
     Program PWSCF v.6.2 (svn rev. 14038) starts on 24Jan2019 at 17: 1:51 

     This program is part of the open-source Quantum ESPRESSO suite
     for quantum simulation of materials; please cite
         "P. Giannozzi et al., J. Phys.:Condens. Matter 21 395502 (2009);
         "P. Giannozzi et al., J. Phys.:Condens. Matter 29 465901 (2017);
          URL http://www.quantum-espresso.org", 
     in publications or presentations arising from this work. More details at
     http://www.quantum-espresso.org/quote

     Parallel version (MPI), running on     1 processors

     MPI processes distributed on     1 nodes
     Reading input from ./AlfccSEPNEG0DOT2312314885369362.in
Warning: card &IONS ignored
Warning: card / ignored
Warning: card &CELL ignored
Warning: card / ignored

     Current dimensions of program PWSCF are:
     Max number of different atomic species (ntypx) = 10
     Max number of k-points (npk) =  40000
     Max angular momentum in pseudopotentials (lmaxx) =  3
     Message from routine iosys:
     minimal I/O required, wf_collect reset to FALSE

     Subspace diagonalization in iterative solution of the eigenvalue problem:
     a serial algorithm will be used

     Found symmetry operation: I + ( -0.5000 -0.5000  0.0000)
     This is a supercell, fractional translations are disabled
 
     G-vector sticks info
     --------------------
     sticks:   dense  smooth     PW     G-vecs:    dense   smooth      PW
     Sum         465     465    149                 5771     5771    1095
 


     bravais-lattice index     =            0
     lattice parameter (alat)  =       7.6325  a.u.
     unit-cell volume          =     341.8150 (a.u.)^3
     number of atoms/cell      =            4
     number of atomic types    =            1
     number of electrons       =        12.00
     number of Kohn-Sham states=           10
     kinetic-energy cutoff     =      25.0000  Ry
     charge density cutoff     =     100.0000  Ry
     convergence threshold     =      1.0E-07
     mixing beta               =       0.7000
     number of iterations used =            8  plain     mixing
     Exchange-correlation      = SLA  PW   PBE  PBE ( 1  4  3  4 0 0)

     celldm(1)=   7.632472  celldm(2)=   0.000000  celldm(3)=   0.000000
     celldm(4)=   0.000000  celldm(5)=   0.000000  celldm(6)=   0.000000

     crystal axes: (cart. coord. in units of alat)
               a(1) = (   1.000000   0.000000   0.000000 )  
               a(2) = (   0.000000   1.000000   0.000000 )  
               a(3) = (   0.000000   0.000000   0.768768 )  

     reciprocal axes: (cart. coord. in units 2 pi/alat)
               b(1) = (  1.000000  0.000000  0.000000 )  
               b(2) = (  0.000000  1.000000  0.000000 )  
               b(3) = (  0.000000  0.000000  1.300782 )  


     PseudoPot. # 1 for Al read from file:
     ./al_pbe_v1.uspp.F.UPF
     MD5 check sum: 0a6289f5291fc8f409219462bc851e1f
     Pseudo is Ultrasoft + core correction, Zval =  3.0
     Generated by new atomic code, or converted to UPF format
     Using radial grid of  893 points,  3 beta functions with: 
                l(1) =   0
                l(2) =   1
                l(3) =   2
     Q(r) pseudized with  8 coefficients,  rinner =    0.900   0.900   0.900
                                                       0.900   0.900

     atomic species   valence    mass     pseudopotential
        Al             3.00    26.98150     Al( 1.00)

     16 Sym. Ops., with inversion, found


                                    s                        frac. trans.

      isym =  1     identity                                     

 cryst.   s( 1) = (     1          0          0      )
                  (     0          1          0      )
                  (     0          0          1      )

 cart.    s( 1) = (  1.0000000  0.0000000  0.0000000 )
                  (  0.0000000  1.0000000  0.0000000 )
                  (  0.0000000  0.0000000  1.0000000 )


      isym =  2     180 deg rotation - cart. axis [0,0,1]        

 cryst.   s( 2) = (    -1          0          0      )
                  (     0         -1          0      )
                  (     0          0          1      )

 cart.    s( 2) = ( -1.0000000  0.0000000  0.0000000 )
                  (  0.0000000 -1.0000000  0.0000000 )
                  (  0.0000000  0.0000000  1.0000000 )


      isym =  3     180 deg rotation - cart. axis [0,1,0]        

 cryst.   s( 3) = (    -1          0          0      )
                  (     0          1          0      )
                  (     0          0         -1      )

 cart.    s( 3) = ( -1.0000000  0.0000000  0.0000000 )
                  (  0.0000000  1.0000000  0.0000000 )
                  (  0.0000000  0.0000000 -1.0000000 )


      isym =  4     180 deg rotation - cart. axis [1,0,0]        

 cryst.   s( 4) = (     1          0          0      )
                  (     0         -1          0      )
                  (     0          0         -1      )

 cart.    s( 4) = (  1.0000000  0.0000000  0.0000000 )
                  (  0.0000000 -1.0000000  0.0000000 )
                  (  0.0000000  0.0000000 -1.0000000 )


      isym =  5     180 deg rotation - cart. axis [1,1,0]        

 cryst.   s( 5) = (     0          1          0      )
                  (     1          0          0      )
                  (     0          0         -1      )

 cart.    s( 5) = (  0.0000000  1.0000000  0.0000000 )
                  (  1.0000000  0.0000000  0.0000000 )
                  (  0.0000000  0.0000000 -1.0000000 )


      isym =  6     180 deg rotation - cart. axis [1,-1,0]       

 cryst.   s( 6) = (     0         -1          0      )
                  (    -1          0          0      )
                  (     0          0         -1      )

 cart.    s( 6) = (  0.0000000 -1.0000000  0.0000000 )
                  ( -1.0000000  0.0000000  0.0000000 )
                  (  0.0000000  0.0000000 -1.0000000 )


      isym =  7      90 deg rotation - cart. axis [0,0,-1]       

 cryst.   s( 7) = (     0         -1          0      )
                  (     1          0          0      )
                  (     0          0          1      )

 cart.    s( 7) = (  0.0000000  1.0000000  0.0000000 )
                  ( -1.0000000  0.0000000  0.0000000 )
                  (  0.0000000  0.0000000  1.0000000 )


      isym =  8      90 deg rotation - cart. axis [0,0,1]        

 cryst.   s( 8) = (     0          1          0      )
                  (    -1          0          0      )
                  (     0          0          1      )

 cart.    s( 8) = (  0.0000000 -1.0000000  0.0000000 )
                  (  1.0000000  0.0000000  0.0000000 )
                  (  0.0000000  0.0000000  1.0000000 )


      isym =  9     inversion                                    

 cryst.   s( 9) = (    -1          0          0      )
                  (     0         -1          0      )
                  (     0          0         -1      )

 cart.    s( 9) = ( -1.0000000  0.0000000  0.0000000 )
                  (  0.0000000 -1.0000000  0.0000000 )
                  (  0.0000000  0.0000000 -1.0000000 )


      isym = 10     inv. 180 deg rotation - cart. axis [0,0,1]   

 cryst.   s(10) = (     1          0          0      )
                  (     0          1          0      )
                  (     0          0         -1      )

 cart.    s(10) = (  1.0000000  0.0000000  0.0000000 )
                  (  0.0000000  1.0000000  0.0000000 )
                  (  0.0000000  0.0000000 -1.0000000 )


      isym = 11     inv. 180 deg rotation - cart. axis [0,1,0]   

 cryst.   s(11) = (     1          0          0      )
                  (     0         -1          0      )
                  (     0          0          1      )

 cart.    s(11) = (  1.0000000  0.0000000  0.0000000 )
                  (  0.0000000 -1.0000000  0.0000000 )
                  (  0.0000000  0.0000000  1.0000000 )


      isym = 12     inv. 180 deg rotation - cart. axis [1,0,0]   

 cryst.   s(12) = (    -1          0          0      )
                  (     0          1          0      )
                  (     0          0          1      )

 cart.    s(12) = ( -1.0000000  0.0000000  0.0000000 )
                  (  0.0000000  1.0000000  0.0000000 )
                  (  0.0000000  0.0000000  1.0000000 )


      isym = 13     inv. 180 deg rotation - cart. axis [1,1,0]   

 cryst.   s(13) = (     0         -1          0      )
                  (    -1          0          0      )
                  (     0          0          1      )

 cart.    s(13) = (  0.0000000 -1.0000000  0.0000000 )
                  ( -1.0000000  0.0000000  0.0000000 )
                  (  0.0000000  0.0000000  1.0000000 )


      isym = 14     inv. 180 deg rotation - cart. axis [1,-1,0]  

 cryst.   s(14) = (     0          1          0      )
                  (     1          0          0      )
                  (     0          0          1      )

 cart.    s(14) = (  0.0000000  1.0000000  0.0000000 )
                  (  1.0000000  0.0000000  0.0000000 )
                  (  0.0000000  0.0000000  1.0000000 )


      isym = 15     inv.  90 deg rotation - cart. axis [0,0,-1]  

 cryst.   s(15) = (     0          1          0      )
                  (    -1          0          0      )
                  (     0          0         -1      )

 cart.    s(15) = (  0.0000000 -1.0000000  0.0000000 )
                  (  1.0000000  0.0000000  0.0000000 )
                  (  0.0000000  0.0000000 -1.0000000 )


      isym = 16     inv.  90 deg rotation - cart. axis [0,0,1]   

 cryst.   s(16) = (     0         -1          0      )
                  (     1          0          0      )
                  (     0          0         -1      )

 cart.    s(16) = (  0.0000000  1.0000000  0.0000000 )
                  ( -1.0000000  0.0000000  0.0000000 )
                  (  0.0000000  0.0000000 -1.0000000 )


   Cartesian axes

     site n.     atom                  positions (alat units)
         1           Al  tau(   1) = (   0.0000000   0.0000000   0.0000000  )
         2           Al  tau(   2) = (   0.5000000   0.5000000   0.0000000  )
         3           Al  tau(   3) = (   0.5000000   0.0000000   0.3843842  )
         4           Al  tau(   4) = (   0.0000000   0.5000000   0.3843842  )

   Crystallographic axes

     site n.     atom                  positions (cryst. coord.)
         1           Al  tau(   1) = (  0.0000000  0.0000000  0.0000000  )
         2           Al  tau(   2) = (  0.5000000  0.5000000  0.0000000  )
         3           Al  tau(   3) = (  0.5000000  0.0000000  0.5000000  )
         4           Al  tau(   4) = (  0.0000000  0.5000000  0.5000000  )

     number of k points=   660  Marzari-Vanderbilt smearing, width (Ry)=  0.0100
                       cart. coord. in units 2pi/alat
        k(    1) = (   0.0000000   0.0000000   0.0000000), wk =   0.0002684
        k(    2) = (   0.0000000   0.0000000   0.0565557), wk =   0.0005368
        k(    3) = (   0.0000000   0.0000000   0.1131115), wk =   0.0005368
        k(    4) = (   0.0000000   0.0000000   0.1696672), wk =   0.0005368
        k(    5) = (   0.0000000   0.0000000   0.2262229), wk =   0.0005368
        k(    6) = (   0.0000000   0.0000000   0.2827786), wk =   0.0005368
        k(    7) = (   0.0000000   0.0000000   0.3393344), wk =   0.0005368
        k(    8) = (   0.0000000   0.0000000   0.3958901), wk =   0.0005368
        k(    9) = (   0.0000000   0.0000000   0.4524458), wk =   0.0005368
        k(   10) = (   0.0000000   0.0000000   0.5090016), wk =   0.0005368
        k(   11) = (   0.0000000   0.0000000   0.5655573), wk =   0.0005368
        k(   12) = (   0.0000000   0.0000000   0.6221130), wk =   0.0005368
        k(   13) = (   0.0000000   0.0555556   0.0000000), wk =   0.0010735
        k(   14) = (   0.0000000   0.0555556   0.0565557), wk =   0.0021471
        k(   15) = (   0.0000000   0.0555556   0.1131115), wk =   0.0021471
        k(   16) = (   0.0000000   0.0555556   0.1696672), wk =   0.0021471
        k(   17) = (   0.0000000   0.0555556   0.2262229), wk =   0.0021471
        k(   18) = (   0.0000000   0.0555556   0.2827786), wk =   0.0021471
        k(   19) = (   0.0000000   0.0555556   0.3393344), wk =   0.0021471
        k(   20) = (   0.0000000   0.0555556   0.3958901), wk =   0.0021471
        k(   21) = (   0.0000000   0.0555556   0.4524458), wk =   0.0021471
        k(   22) = (   0.0000000   0.0555556   0.5090016), wk =   0.0021471
        k(   23) = (   0.0000000   0.0555556   0.5655573), wk =   0.0021471
        k(   24) = (   0.0000000   0.0555556   0.6221130), wk =   0.0021471
        k(   25) = (   0.0000000   0.1111111   0.0000000), wk =   0.0010735
        k(   26) = (   0.0000000   0.1111111   0.0565557), wk =   0.0021471
        k(   27) = (   0.0000000   0.1111111   0.1131115), wk =   0.0021471
        k(   28) = (   0.0000000   0.1111111   0.1696672), wk =   0.0021471
        k(   29) = (   0.0000000   0.1111111   0.2262229), wk =   0.0021471
        k(   30) = (   0.0000000   0.1111111   0.2827786), wk =   0.0021471
        k(   31) = (   0.0000000   0.1111111   0.3393344), wk =   0.0021471
        k(   32) = (   0.0000000   0.1111111   0.3958901), wk =   0.0021471
        k(   33) = (   0.0000000   0.1111111   0.4524458), wk =   0.0021471
        k(   34) = (   0.0000000   0.1111111   0.5090016), wk =   0.0021471
        k(   35) = (   0.0000000   0.1111111   0.5655573), wk =   0.0021471
        k(   36) = (   0.0000000   0.1111111   0.6221130), wk =   0.0021471
        k(   37) = (   0.0000000   0.1666667   0.0000000), wk =   0.0010735
        k(   38) = (   0.0000000   0.1666667   0.0565557), wk =   0.0021471
        k(   39) = (   0.0000000   0.1666667   0.1131115), wk =   0.0021471
        k(   40) = (   0.0000000   0.1666667   0.1696672), wk =   0.0021471
        k(   41) = (   0.0000000   0.1666667   0.2262229), wk =   0.0021471
        k(   42) = (   0.0000000   0.1666667   0.2827786), wk =   0.0021471
        k(   43) = (   0.0000000   0.1666667   0.3393344), wk =   0.0021471
        k(   44) = (   0.0000000   0.1666667   0.3958901), wk =   0.0021471
        k(   45) = (   0.0000000   0.1666667   0.4524458), wk =   0.0021471
        k(   46) = (   0.0000000   0.1666667   0.5090016), wk =   0.0021471
        k(   47) = (   0.0000000   0.1666667   0.5655573), wk =   0.0021471
        k(   48) = (   0.0000000   0.1666667   0.6221130), wk =   0.0021471
        k(   49) = (   0.0000000   0.2222222   0.0000000), wk =   0.0010735
        k(   50) = (   0.0000000   0.2222222   0.0565557), wk =   0.0021471
        k(   51) = (   0.0000000   0.2222222   0.1131115), wk =   0.0021471
        k(   52) = (   0.0000000   0.2222222   0.1696672), wk =   0.0021471
        k(   53) = (   0.0000000   0.2222222   0.2262229), wk =   0.0021471
        k(   54) = (   0.0000000   0.2222222   0.2827786), wk =   0.0021471
        k(   55) = (   0.0000000   0.2222222   0.3393344), wk =   0.0021471
        k(   56) = (   0.0000000   0.2222222   0.3958901), wk =   0.0021471
        k(   57) = (   0.0000000   0.2222222   0.4524458), wk =   0.0021471
        k(   58) = (   0.0000000   0.2222222   0.5090016), wk =   0.0021471
        k(   59) = (   0.0000000   0.2222222   0.5655573), wk =   0.0021471
        k(   60) = (   0.0000000   0.2222222   0.6221130), wk =   0.0021471
        k(   61) = (   0.0000000   0.2777778   0.0000000), wk =   0.0010735
        k(   62) = (   0.0000000   0.2777778   0.0565557), wk =   0.0021471
        k(   63) = (   0.0000000   0.2777778   0.1131115), wk =   0.0021471
        k(   64) = (   0.0000000   0.2777778   0.1696672), wk =   0.0021471
        k(   65) = (   0.0000000   0.2777778   0.2262229), wk =   0.0021471
        k(   66) = (   0.0000000   0.2777778   0.2827786), wk =   0.0021471
        k(   67) = (   0.0000000   0.2777778   0.3393344), wk =   0.0021471
        k(   68) = (   0.0000000   0.2777778   0.3958901), wk =   0.0021471
        k(   69) = (   0.0000000   0.2777778   0.4524458), wk =   0.0021471
        k(   70) = (   0.0000000   0.2777778   0.5090016), wk =   0.0021471
        k(   71) = (   0.0000000   0.2777778   0.5655573), wk =   0.0021471
        k(   72) = (   0.0000000   0.2777778   0.6221130), wk =   0.0021471
        k(   73) = (   0.0000000   0.3333333   0.0000000), wk =   0.0010735
        k(   74) = (   0.0000000   0.3333333   0.0565557), wk =   0.0021471
        k(   75) = (   0.0000000   0.3333333   0.1131115), wk =   0.0021471
        k(   76) = (   0.0000000   0.3333333   0.1696672), wk =   0.0021471
        k(   77) = (   0.0000000   0.3333333   0.2262229), wk =   0.0021471
        k(   78) = (   0.0000000   0.3333333   0.2827786), wk =   0.0021471
        k(   79) = (   0.0000000   0.3333333   0.3393344), wk =   0.0021471
        k(   80) = (   0.0000000   0.3333333   0.3958901), wk =   0.0021471
        k(   81) = (   0.0000000   0.3333333   0.4524458), wk =   0.0021471
        k(   82) = (   0.0000000   0.3333333   0.5090016), wk =   0.0021471
        k(   83) = (   0.0000000   0.3333333   0.5655573), wk =   0.0021471
        k(   84) = (   0.0000000   0.3333333   0.6221130), wk =   0.0021471
        k(   85) = (   0.0000000   0.3888889   0.0000000), wk =   0.0010735
        k(   86) = (   0.0000000   0.3888889   0.0565557), wk =   0.0021471
        k(   87) = (   0.0000000   0.3888889   0.1131115), wk =   0.0021471
        k(   88) = (   0.0000000   0.3888889   0.1696672), wk =   0.0021471
        k(   89) = (   0.0000000   0.3888889   0.2262229), wk =   0.0021471
        k(   90) = (   0.0000000   0.3888889   0.2827786), wk =   0.0021471
        k(   91) = (   0.0000000   0.3888889   0.3393344), wk =   0.0021471
        k(   92) = (   0.0000000   0.3888889   0.3958901), wk =   0.0021471
        k(   93) = (   0.0000000   0.3888889   0.4524458), wk =   0.0021471
        k(   94) = (   0.0000000   0.3888889   0.5090016), wk =   0.0021471
        k(   95) = (   0.0000000   0.3888889   0.5655573), wk =   0.0021471
        k(   96) = (   0.0000000   0.3888889   0.6221130), wk =   0.0021471
        k(   97) = (   0.0000000   0.4444444   0.0000000), wk =   0.0010735
        k(   98) = (   0.0000000   0.4444444   0.0565557), wk =   0.0021471
        k(   99) = (   0.0000000   0.4444444   0.1131115), wk =   0.0021471
        k(  100) = (   0.0000000   0.4444444   0.1696672), wk =   0.0021471
        k(  101) = (   0.0000000   0.4444444   0.2262229), wk =   0.0021471
        k(  102) = (   0.0000000   0.4444444   0.2827786), wk =   0.0021471
        k(  103) = (   0.0000000   0.4444444   0.3393344), wk =   0.0021471
        k(  104) = (   0.0000000   0.4444444   0.3958901), wk =   0.0021471
        k(  105) = (   0.0000000   0.4444444   0.4524458), wk =   0.0021471
        k(  106) = (   0.0000000   0.4444444   0.5090016), wk =   0.0021471
        k(  107) = (   0.0000000   0.4444444   0.5655573), wk =   0.0021471
        k(  108) = (   0.0000000   0.4444444   0.6221130), wk =   0.0021471
        k(  109) = (   0.0000000  -0.5000000   0.0000000), wk =   0.0005368
        k(  110) = (   0.0000000  -0.5000000   0.0565557), wk =   0.0010735
        k(  111) = (   0.0000000  -0.5000000   0.1131115), wk =   0.0010735
        k(  112) = (   0.0000000  -0.5000000   0.1696672), wk =   0.0010735
        k(  113) = (   0.0000000  -0.5000000   0.2262229), wk =   0.0010735
        k(  114) = (   0.0000000  -0.5000000   0.2827786), wk =   0.0010735
        k(  115) = (   0.0000000  -0.5000000   0.3393344), wk =   0.0010735
        k(  116) = (   0.0000000  -0.5000000   0.3958901), wk =   0.0010735
        k(  117) = (   0.0000000  -0.5000000   0.4524458), wk =   0.0010735
        k(  118) = (   0.0000000  -0.5000000   0.5090016), wk =   0.0010735
        k(  119) = (   0.0000000  -0.5000000   0.5655573), wk =   0.0010735
        k(  120) = (   0.0000000  -0.5000000   0.6221130), wk =   0.0010735
        k(  121) = (   0.0555556   0.0555556   0.0000000), wk =   0.0010735
        k(  122) = (   0.0555556   0.0555556   0.0565557), wk =   0.0021471
        k(  123) = (   0.0555556   0.0555556   0.1131115), wk =   0.0021471
        k(  124) = (   0.0555556   0.0555556   0.1696672), wk =   0.0021471
        k(  125) = (   0.0555556   0.0555556   0.2262229), wk =   0.0021471
        k(  126) = (   0.0555556   0.0555556   0.2827786), wk =   0.0021471
        k(  127) = (   0.0555556   0.0555556   0.3393344), wk =   0.0021471
        k(  128) = (   0.0555556   0.0555556   0.3958901), wk =   0.0021471
        k(  129) = (   0.0555556   0.0555556   0.4524458), wk =   0.0021471
        k(  130) = (   0.0555556   0.0555556   0.5090016), wk =   0.0021471
        k(  131) = (   0.0555556   0.0555556   0.5655573), wk =   0.0021471
        k(  132) = (   0.0555556   0.0555556   0.6221130), wk =   0.0021471
        k(  133) = (   0.0555556   0.1111111   0.0000000), wk =   0.0021471
        k(  134) = (   0.0555556   0.1111111   0.0565557), wk =   0.0042941
        k(  135) = (   0.0555556   0.1111111   0.1131115), wk =   0.0042941
        k(  136) = (   0.0555556   0.1111111   0.1696672), wk =   0.0042941
        k(  137) = (   0.0555556   0.1111111   0.2262229), wk =   0.0042941
        k(  138) = (   0.0555556   0.1111111   0.2827786), wk =   0.0042941
        k(  139) = (   0.0555556   0.1111111   0.3393344), wk =   0.0042941
        k(  140) = (   0.0555556   0.1111111   0.3958901), wk =   0.0042941
        k(  141) = (   0.0555556   0.1111111   0.4524458), wk =   0.0042941
        k(  142) = (   0.0555556   0.1111111   0.5090016), wk =   0.0042941
        k(  143) = (   0.0555556   0.1111111   0.5655573), wk =   0.0042941
        k(  144) = (   0.0555556   0.1111111   0.6221130), wk =   0.0042941
        k(  145) = (   0.0555556   0.1666667   0.0000000), wk =   0.0021471
        k(  146) = (   0.0555556   0.1666667   0.0565557), wk =   0.0042941
        k(  147) = (   0.0555556   0.1666667   0.1131115), wk =   0.0042941
        k(  148) = (   0.0555556   0.1666667   0.1696672), wk =   0.0042941
        k(  149) = (   0.0555556   0.1666667   0.2262229), wk =   0.0042941
        k(  150) = (   0.0555556   0.1666667   0.2827786), wk =   0.0042941
        k(  151) = (   0.0555556   0.1666667   0.3393344), wk =   0.0042941
        k(  152) = (   0.0555556   0.1666667   0.3958901), wk =   0.0042941
        k(  153) = (   0.0555556   0.1666667   0.4524458), wk =   0.0042941
        k(  154) = (   0.0555556   0.1666667   0.5090016), wk =   0.0042941
        k(  155) = (   0.0555556   0.1666667   0.5655573), wk =   0.0042941
        k(  156) = (   0.0555556   0.1666667   0.6221130), wk =   0.0042941
        k(  157) = (   0.0555556   0.2222222   0.0000000), wk =   0.0021471
        k(  158) = (   0.0555556   0.2222222   0.0565557), wk =   0.0042941
        k(  159) = (   0.0555556   0.2222222   0.1131115), wk =   0.0042941
        k(  160) = (   0.0555556   0.2222222   0.1696672), wk =   0.0042941
        k(  161) = (   0.0555556   0.2222222   0.2262229), wk =   0.0042941
        k(  162) = (   0.0555556   0.2222222   0.2827786), wk =   0.0042941
        k(  163) = (   0.0555556   0.2222222   0.3393344), wk =   0.0042941
        k(  164) = (   0.0555556   0.2222222   0.3958901), wk =   0.0042941
        k(  165) = (   0.0555556   0.2222222   0.4524458), wk =   0.0042941
        k(  166) = (   0.0555556   0.2222222   0.5090016), wk =   0.0042941
        k(  167) = (   0.0555556   0.2222222   0.5655573), wk =   0.0042941
        k(  168) = (   0.0555556   0.2222222   0.6221130), wk =   0.0042941
        k(  169) = (   0.0555556   0.2777778   0.0000000), wk =   0.0021471
        k(  170) = (   0.0555556   0.2777778   0.0565557), wk =   0.0042941
        k(  171) = (   0.0555556   0.2777778   0.1131115), wk =   0.0042941
        k(  172) = (   0.0555556   0.2777778   0.1696672), wk =   0.0042941
        k(  173) = (   0.0555556   0.2777778   0.2262229), wk =   0.0042941
        k(  174) = (   0.0555556   0.2777778   0.2827786), wk =   0.0042941
        k(  175) = (   0.0555556   0.2777778   0.3393344), wk =   0.0042941
        k(  176) = (   0.0555556   0.2777778   0.3958901), wk =   0.0042941
        k(  177) = (   0.0555556   0.2777778   0.4524458), wk =   0.0042941
        k(  178) = (   0.0555556   0.2777778   0.5090016), wk =   0.0042941
        k(  179) = (   0.0555556   0.2777778   0.5655573), wk =   0.0042941
        k(  180) = (   0.0555556   0.2777778   0.6221130), wk =   0.0042941
        k(  181) = (   0.0555556   0.3333333   0.0000000), wk =   0.0021471
        k(  182) = (   0.0555556   0.3333333   0.0565557), wk =   0.0042941
        k(  183) = (   0.0555556   0.3333333   0.1131115), wk =   0.0042941
        k(  184) = (   0.0555556   0.3333333   0.1696672), wk =   0.0042941
        k(  185) = (   0.0555556   0.3333333   0.2262229), wk =   0.0042941
        k(  186) = (   0.0555556   0.3333333   0.2827786), wk =   0.0042941
        k(  187) = (   0.0555556   0.3333333   0.3393344), wk =   0.0042941
        k(  188) = (   0.0555556   0.3333333   0.3958901), wk =   0.0042941
        k(  189) = (   0.0555556   0.3333333   0.4524458), wk =   0.0042941
        k(  190) = (   0.0555556   0.3333333   0.5090016), wk =   0.0042941
        k(  191) = (   0.0555556   0.3333333   0.5655573), wk =   0.0042941
        k(  192) = (   0.0555556   0.3333333   0.6221130), wk =   0.0042941
        k(  193) = (   0.0555556   0.3888889   0.0000000), wk =   0.0021471
        k(  194) = (   0.0555556   0.3888889   0.0565557), wk =   0.0042941
        k(  195) = (   0.0555556   0.3888889   0.1131115), wk =   0.0042941
        k(  196) = (   0.0555556   0.3888889   0.1696672), wk =   0.0042941
        k(  197) = (   0.0555556   0.3888889   0.2262229), wk =   0.0042941
        k(  198) = (   0.0555556   0.3888889   0.2827786), wk =   0.0042941
        k(  199) = (   0.0555556   0.3888889   0.3393344), wk =   0.0042941
        k(  200) = (   0.0555556   0.3888889   0.3958901), wk =   0.0042941
        k(  201) = (   0.0555556   0.3888889   0.4524458), wk =   0.0042941
        k(  202) = (   0.0555556   0.3888889   0.5090016), wk =   0.0042941
        k(  203) = (   0.0555556   0.3888889   0.5655573), wk =   0.0042941
        k(  204) = (   0.0555556   0.3888889   0.6221130), wk =   0.0042941
        k(  205) = (   0.0555556   0.4444444   0.0000000), wk =   0.0021471
        k(  206) = (   0.0555556   0.4444444   0.0565557), wk =   0.0042941
        k(  207) = (   0.0555556   0.4444444   0.1131115), wk =   0.0042941
        k(  208) = (   0.0555556   0.4444444   0.1696672), wk =   0.0042941
        k(  209) = (   0.0555556   0.4444444   0.2262229), wk =   0.0042941
        k(  210) = (   0.0555556   0.4444444   0.2827786), wk =   0.0042941
        k(  211) = (   0.0555556   0.4444444   0.3393344), wk =   0.0042941
        k(  212) = (   0.0555556   0.4444444   0.3958901), wk =   0.0042941
        k(  213) = (   0.0555556   0.4444444   0.4524458), wk =   0.0042941
        k(  214) = (   0.0555556   0.4444444   0.5090016), wk =   0.0042941
        k(  215) = (   0.0555556   0.4444444   0.5655573), wk =   0.0042941
        k(  216) = (   0.0555556   0.4444444   0.6221130), wk =   0.0042941
        k(  217) = (   0.0555556  -0.5000000   0.0000000), wk =   0.0010735
        k(  218) = (   0.0555556  -0.5000000   0.0565557), wk =   0.0021471
        k(  219) = (   0.0555556  -0.5000000   0.1131115), wk =   0.0021471
        k(  220) = (   0.0555556  -0.5000000   0.1696672), wk =   0.0021471
        k(  221) = (   0.0555556  -0.5000000   0.2262229), wk =   0.0021471
        k(  222) = (   0.0555556  -0.5000000   0.2827786), wk =   0.0021471
        k(  223) = (   0.0555556  -0.5000000   0.3393344), wk =   0.0021471
        k(  224) = (   0.0555556  -0.5000000   0.3958901), wk =   0.0021471
        k(  225) = (   0.0555556  -0.5000000   0.4524458), wk =   0.0021471
        k(  226) = (   0.0555556  -0.5000000   0.5090016), wk =   0.0021471
        k(  227) = (   0.0555556  -0.5000000   0.5655573), wk =   0.0021471
        k(  228) = (   0.0555556  -0.5000000   0.6221130), wk =   0.0021471
        k(  229) = (   0.1111111   0.1111111   0.0000000), wk =   0.0010735
        k(  230) = (   0.1111111   0.1111111   0.0565557), wk =   0.0021471
        k(  231) = (   0.1111111   0.1111111   0.1131115), wk =   0.0021471
        k(  232) = (   0.1111111   0.1111111   0.1696672), wk =   0.0021471
        k(  233) = (   0.1111111   0.1111111   0.2262229), wk =   0.0021471
        k(  234) = (   0.1111111   0.1111111   0.2827786), wk =   0.0021471
        k(  235) = (   0.1111111   0.1111111   0.3393344), wk =   0.0021471
        k(  236) = (   0.1111111   0.1111111   0.3958901), wk =   0.0021471
        k(  237) = (   0.1111111   0.1111111   0.4524458), wk =   0.0021471
        k(  238) = (   0.1111111   0.1111111   0.5090016), wk =   0.0021471
        k(  239) = (   0.1111111   0.1111111   0.5655573), wk =   0.0021471
        k(  240) = (   0.1111111   0.1111111   0.6221130), wk =   0.0021471
        k(  241) = (   0.1111111   0.1666667   0.0000000), wk =   0.0021471
        k(  242) = (   0.1111111   0.1666667   0.0565557), wk =   0.0042941
        k(  243) = (   0.1111111   0.1666667   0.1131115), wk =   0.0042941
        k(  244) = (   0.1111111   0.1666667   0.1696672), wk =   0.0042941
        k(  245) = (   0.1111111   0.1666667   0.2262229), wk =   0.0042941
        k(  246) = (   0.1111111   0.1666667   0.2827786), wk =   0.0042941
        k(  247) = (   0.1111111   0.1666667   0.3393344), wk =   0.0042941
        k(  248) = (   0.1111111   0.1666667   0.3958901), wk =   0.0042941
        k(  249) = (   0.1111111   0.1666667   0.4524458), wk =   0.0042941
        k(  250) = (   0.1111111   0.1666667   0.5090016), wk =   0.0042941
        k(  251) = (   0.1111111   0.1666667   0.5655573), wk =   0.0042941
        k(  252) = (   0.1111111   0.1666667   0.6221130), wk =   0.0042941
        k(  253) = (   0.1111111   0.2222222   0.0000000), wk =   0.0021471
        k(  254) = (   0.1111111   0.2222222   0.0565557), wk =   0.0042941
        k(  255) = (   0.1111111   0.2222222   0.1131115), wk =   0.0042941
        k(  256) = (   0.1111111   0.2222222   0.1696672), wk =   0.0042941
        k(  257) = (   0.1111111   0.2222222   0.2262229), wk =   0.0042941
        k(  258) = (   0.1111111   0.2222222   0.2827786), wk =   0.0042941
        k(  259) = (   0.1111111   0.2222222   0.3393344), wk =   0.0042941
        k(  260) = (   0.1111111   0.2222222   0.3958901), wk =   0.0042941
        k(  261) = (   0.1111111   0.2222222   0.4524458), wk =   0.0042941
        k(  262) = (   0.1111111   0.2222222   0.5090016), wk =   0.0042941
        k(  263) = (   0.1111111   0.2222222   0.5655573), wk =   0.0042941
        k(  264) = (   0.1111111   0.2222222   0.6221130), wk =   0.0042941
        k(  265) = (   0.1111111   0.2777778   0.0000000), wk =   0.0021471
        k(  266) = (   0.1111111   0.2777778   0.0565557), wk =   0.0042941
        k(  267) = (   0.1111111   0.2777778   0.1131115), wk =   0.0042941
        k(  268) = (   0.1111111   0.2777778   0.1696672), wk =   0.0042941
        k(  269) = (   0.1111111   0.2777778   0.2262229), wk =   0.0042941
        k(  270) = (   0.1111111   0.2777778   0.2827786), wk =   0.0042941
        k(  271) = (   0.1111111   0.2777778   0.3393344), wk =   0.0042941
        k(  272) = (   0.1111111   0.2777778   0.3958901), wk =   0.0042941
        k(  273) = (   0.1111111   0.2777778   0.4524458), wk =   0.0042941
        k(  274) = (   0.1111111   0.2777778   0.5090016), wk =   0.0042941
        k(  275) = (   0.1111111   0.2777778   0.5655573), wk =   0.0042941
        k(  276) = (   0.1111111   0.2777778   0.6221130), wk =   0.0042941
        k(  277) = (   0.1111111   0.3333333   0.0000000), wk =   0.0021471
        k(  278) = (   0.1111111   0.3333333   0.0565557), wk =   0.0042941
        k(  279) = (   0.1111111   0.3333333   0.1131115), wk =   0.0042941
        k(  280) = (   0.1111111   0.3333333   0.1696672), wk =   0.0042941
        k(  281) = (   0.1111111   0.3333333   0.2262229), wk =   0.0042941
        k(  282) = (   0.1111111   0.3333333   0.2827786), wk =   0.0042941
        k(  283) = (   0.1111111   0.3333333   0.3393344), wk =   0.0042941
        k(  284) = (   0.1111111   0.3333333   0.3958901), wk =   0.0042941
        k(  285) = (   0.1111111   0.3333333   0.4524458), wk =   0.0042941
        k(  286) = (   0.1111111   0.3333333   0.5090016), wk =   0.0042941
        k(  287) = (   0.1111111   0.3333333   0.5655573), wk =   0.0042941
        k(  288) = (   0.1111111   0.3333333   0.6221130), wk =   0.0042941
        k(  289) = (   0.1111111   0.3888889   0.0000000), wk =   0.0021471
        k(  290) = (   0.1111111   0.3888889   0.0565557), wk =   0.0042941
        k(  291) = (   0.1111111   0.3888889   0.1131115), wk =   0.0042941
        k(  292) = (   0.1111111   0.3888889   0.1696672), wk =   0.0042941
        k(  293) = (   0.1111111   0.3888889   0.2262229), wk =   0.0042941
        k(  294) = (   0.1111111   0.3888889   0.2827786), wk =   0.0042941
        k(  295) = (   0.1111111   0.3888889   0.3393344), wk =   0.0042941
        k(  296) = (   0.1111111   0.3888889   0.3958901), wk =   0.0042941
        k(  297) = (   0.1111111   0.3888889   0.4524458), wk =   0.0042941
        k(  298) = (   0.1111111   0.3888889   0.5090016), wk =   0.0042941
        k(  299) = (   0.1111111   0.3888889   0.5655573), wk =   0.0042941
        k(  300) = (   0.1111111   0.3888889   0.6221130), wk =   0.0042941
        k(  301) = (   0.1111111   0.4444444   0.0000000), wk =   0.0021471
        k(  302) = (   0.1111111   0.4444444   0.0565557), wk =   0.0042941
        k(  303) = (   0.1111111   0.4444444   0.1131115), wk =   0.0042941
        k(  304) = (   0.1111111   0.4444444   0.1696672), wk =   0.0042941
        k(  305) = (   0.1111111   0.4444444   0.2262229), wk =   0.0042941
        k(  306) = (   0.1111111   0.4444444   0.2827786), wk =   0.0042941
        k(  307) = (   0.1111111   0.4444444   0.3393344), wk =   0.0042941
        k(  308) = (   0.1111111   0.4444444   0.3958901), wk =   0.0042941
        k(  309) = (   0.1111111   0.4444444   0.4524458), wk =   0.0042941
        k(  310) = (   0.1111111   0.4444444   0.5090016), wk =   0.0042941
        k(  311) = (   0.1111111   0.4444444   0.5655573), wk =   0.0042941
        k(  312) = (   0.1111111   0.4444444   0.6221130), wk =   0.0042941
        k(  313) = (   0.1111111  -0.5000000   0.0000000), wk =   0.0010735
        k(  314) = (   0.1111111  -0.5000000   0.0565557), wk =   0.0021471
        k(  315) = (   0.1111111  -0.5000000   0.1131115), wk =   0.0021471
        k(  316) = (   0.1111111  -0.5000000   0.1696672), wk =   0.0021471
        k(  317) = (   0.1111111  -0.5000000   0.2262229), wk =   0.0021471
        k(  318) = (   0.1111111  -0.5000000   0.2827786), wk =   0.0021471
        k(  319) = (   0.1111111  -0.5000000   0.3393344), wk =   0.0021471
        k(  320) = (   0.1111111  -0.5000000   0.3958901), wk =   0.0021471
        k(  321) = (   0.1111111  -0.5000000   0.4524458), wk =   0.0021471
        k(  322) = (   0.1111111  -0.5000000   0.5090016), wk =   0.0021471
        k(  323) = (   0.1111111  -0.5000000   0.5655573), wk =   0.0021471
        k(  324) = (   0.1111111  -0.5000000   0.6221130), wk =   0.0021471
        k(  325) = (   0.1666667   0.1666667   0.0000000), wk =   0.0010735
        k(  326) = (   0.1666667   0.1666667   0.0565557), wk =   0.0021471
        k(  327) = (   0.1666667   0.1666667   0.1131115), wk =   0.0021471
        k(  328) = (   0.1666667   0.1666667   0.1696672), wk =   0.0021471
        k(  329) = (   0.1666667   0.1666667   0.2262229), wk =   0.0021471
        k(  330) = (   0.1666667   0.1666667   0.2827786), wk =   0.0021471
        k(  331) = (   0.1666667   0.1666667   0.3393344), wk =   0.0021471
        k(  332) = (   0.1666667   0.1666667   0.3958901), wk =   0.0021471
        k(  333) = (   0.1666667   0.1666667   0.4524458), wk =   0.0021471
        k(  334) = (   0.1666667   0.1666667   0.5090016), wk =   0.0021471
        k(  335) = (   0.1666667   0.1666667   0.5655573), wk =   0.0021471
        k(  336) = (   0.1666667   0.1666667   0.6221130), wk =   0.0021471
        k(  337) = (   0.1666667   0.2222222   0.0000000), wk =   0.0021471
        k(  338) = (   0.1666667   0.2222222   0.0565557), wk =   0.0042941
        k(  339) = (   0.1666667   0.2222222   0.1131115), wk =   0.0042941
        k(  340) = (   0.1666667   0.2222222   0.1696672), wk =   0.0042941
        k(  341) = (   0.1666667   0.2222222   0.2262229), wk =   0.0042941
        k(  342) = (   0.1666667   0.2222222   0.2827786), wk =   0.0042941
        k(  343) = (   0.1666667   0.2222222   0.3393344), wk =   0.0042941
        k(  344) = (   0.1666667   0.2222222   0.3958901), wk =   0.0042941
        k(  345) = (   0.1666667   0.2222222   0.4524458), wk =   0.0042941
        k(  346) = (   0.1666667   0.2222222   0.5090016), wk =   0.0042941
        k(  347) = (   0.1666667   0.2222222   0.5655573), wk =   0.0042941
        k(  348) = (   0.1666667   0.2222222   0.6221130), wk =   0.0042941
        k(  349) = (   0.1666667   0.2777778   0.0000000), wk =   0.0021471
        k(  350) = (   0.1666667   0.2777778   0.0565557), wk =   0.0042941
        k(  351) = (   0.1666667   0.2777778   0.1131115), wk =   0.0042941
        k(  352) = (   0.1666667   0.2777778   0.1696672), wk =   0.0042941
        k(  353) = (   0.1666667   0.2777778   0.2262229), wk =   0.0042941
        k(  354) = (   0.1666667   0.2777778   0.2827786), wk =   0.0042941
        k(  355) = (   0.1666667   0.2777778   0.3393344), wk =   0.0042941
        k(  356) = (   0.1666667   0.2777778   0.3958901), wk =   0.0042941
        k(  357) = (   0.1666667   0.2777778   0.4524458), wk =   0.0042941
        k(  358) = (   0.1666667   0.2777778   0.5090016), wk =   0.0042941
        k(  359) = (   0.1666667   0.2777778   0.5655573), wk =   0.0042941
        k(  360) = (   0.1666667   0.2777778   0.6221130), wk =   0.0042941
        k(  361) = (   0.1666667   0.3333333   0.0000000), wk =   0.0021471
        k(  362) = (   0.1666667   0.3333333   0.0565557), wk =   0.0042941
        k(  363) = (   0.1666667   0.3333333   0.1131115), wk =   0.0042941
        k(  364) = (   0.1666667   0.3333333   0.1696672), wk =   0.0042941
        k(  365) = (   0.1666667   0.3333333   0.2262229), wk =   0.0042941
        k(  366) = (   0.1666667   0.3333333   0.2827786), wk =   0.0042941
        k(  367) = (   0.1666667   0.3333333   0.3393344), wk =   0.0042941
        k(  368) = (   0.1666667   0.3333333   0.3958901), wk =   0.0042941
        k(  369) = (   0.1666667   0.3333333   0.4524458), wk =   0.0042941
        k(  370) = (   0.1666667   0.3333333   0.5090016), wk =   0.0042941
        k(  371) = (   0.1666667   0.3333333   0.5655573), wk =   0.0042941
        k(  372) = (   0.1666667   0.3333333   0.6221130), wk =   0.0042941
        k(  373) = (   0.1666667   0.3888889   0.0000000), wk =   0.0021471
        k(  374) = (   0.1666667   0.3888889   0.0565557), wk =   0.0042941
        k(  375) = (   0.1666667   0.3888889   0.1131115), wk =   0.0042941
        k(  376) = (   0.1666667   0.3888889   0.1696672), wk =   0.0042941
        k(  377) = (   0.1666667   0.3888889   0.2262229), wk =   0.0042941
        k(  378) = (   0.1666667   0.3888889   0.2827786), wk =   0.0042941
        k(  379) = (   0.1666667   0.3888889   0.3393344), wk =   0.0042941
        k(  380) = (   0.1666667   0.3888889   0.3958901), wk =   0.0042941
        k(  381) = (   0.1666667   0.3888889   0.4524458), wk =   0.0042941
        k(  382) = (   0.1666667   0.3888889   0.5090016), wk =   0.0042941
        k(  383) = (   0.1666667   0.3888889   0.5655573), wk =   0.0042941
        k(  384) = (   0.1666667   0.3888889   0.6221130), wk =   0.0042941
        k(  385) = (   0.1666667   0.4444444   0.0000000), wk =   0.0021471
        k(  386) = (   0.1666667   0.4444444   0.0565557), wk =   0.0042941
        k(  387) = (   0.1666667   0.4444444   0.1131115), wk =   0.0042941
        k(  388) = (   0.1666667   0.4444444   0.1696672), wk =   0.0042941
        k(  389) = (   0.1666667   0.4444444   0.2262229), wk =   0.0042941
        k(  390) = (   0.1666667   0.4444444   0.2827786), wk =   0.0042941
        k(  391) = (   0.1666667   0.4444444   0.3393344), wk =   0.0042941
        k(  392) = (   0.1666667   0.4444444   0.3958901), wk =   0.0042941
        k(  393) = (   0.1666667   0.4444444   0.4524458), wk =   0.0042941
        k(  394) = (   0.1666667   0.4444444   0.5090016), wk =   0.0042941
        k(  395) = (   0.1666667   0.4444444   0.5655573), wk =   0.0042941
        k(  396) = (   0.1666667   0.4444444   0.6221130), wk =   0.0042941
        k(  397) = (   0.1666667  -0.5000000   0.0000000), wk =   0.0010735
        k(  398) = (   0.1666667  -0.5000000   0.0565557), wk =   0.0021471
        k(  399) = (   0.1666667  -0.5000000   0.1131115), wk =   0.0021471
        k(  400) = (   0.1666667  -0.5000000   0.1696672), wk =   0.0021471
        k(  401) = (   0.1666667  -0.5000000   0.2262229), wk =   0.0021471
        k(  402) = (   0.1666667  -0.5000000   0.2827786), wk =   0.0021471
        k(  403) = (   0.1666667  -0.5000000   0.3393344), wk =   0.0021471
        k(  404) = (   0.1666667  -0.5000000   0.3958901), wk =   0.0021471
        k(  405) = (   0.1666667  -0.5000000   0.4524458), wk =   0.0021471
        k(  406) = (   0.1666667  -0.5000000   0.5090016), wk =   0.0021471
        k(  407) = (   0.1666667  -0.5000000   0.5655573), wk =   0.0021471
        k(  408) = (   0.1666667  -0.5000000   0.6221130), wk =   0.0021471
        k(  409) = (   0.2222222   0.2222222   0.0000000), wk =   0.0010735
        k(  410) = (   0.2222222   0.2222222   0.0565557), wk =   0.0021471
        k(  411) = (   0.2222222   0.2222222   0.1131115), wk =   0.0021471
        k(  412) = (   0.2222222   0.2222222   0.1696672), wk =   0.0021471
        k(  413) = (   0.2222222   0.2222222   0.2262229), wk =   0.0021471
        k(  414) = (   0.2222222   0.2222222   0.2827786), wk =   0.0021471
        k(  415) = (   0.2222222   0.2222222   0.3393344), wk =   0.0021471
        k(  416) = (   0.2222222   0.2222222   0.3958901), wk =   0.0021471
        k(  417) = (   0.2222222   0.2222222   0.4524458), wk =   0.0021471
        k(  418) = (   0.2222222   0.2222222   0.5090016), wk =   0.0021471
        k(  419) = (   0.2222222   0.2222222   0.5655573), wk =   0.0021471
        k(  420) = (   0.2222222   0.2222222   0.6221130), wk =   0.0021471
        k(  421) = (   0.2222222   0.2777778   0.0000000), wk =   0.0021471
        k(  422) = (   0.2222222   0.2777778   0.0565557), wk =   0.0042941
        k(  423) = (   0.2222222   0.2777778   0.1131115), wk =   0.0042941
        k(  424) = (   0.2222222   0.2777778   0.1696672), wk =   0.0042941
        k(  425) = (   0.2222222   0.2777778   0.2262229), wk =   0.0042941
        k(  426) = (   0.2222222   0.2777778   0.2827786), wk =   0.0042941
        k(  427) = (   0.2222222   0.2777778   0.3393344), wk =   0.0042941
        k(  428) = (   0.2222222   0.2777778   0.3958901), wk =   0.0042941
        k(  429) = (   0.2222222   0.2777778   0.4524458), wk =   0.0042941
        k(  430) = (   0.2222222   0.2777778   0.5090016), wk =   0.0042941
        k(  431) = (   0.2222222   0.2777778   0.5655573), wk =   0.0042941
        k(  432) = (   0.2222222   0.2777778   0.6221130), wk =   0.0042941
        k(  433) = (   0.2222222   0.3333333   0.0000000), wk =   0.0021471
        k(  434) = (   0.2222222   0.3333333   0.0565557), wk =   0.0042941
        k(  435) = (   0.2222222   0.3333333   0.1131115), wk =   0.0042941
        k(  436) = (   0.2222222   0.3333333   0.1696672), wk =   0.0042941
        k(  437) = (   0.2222222   0.3333333   0.2262229), wk =   0.0042941
        k(  438) = (   0.2222222   0.3333333   0.2827786), wk =   0.0042941
        k(  439) = (   0.2222222   0.3333333   0.3393344), wk =   0.0042941
        k(  440) = (   0.2222222   0.3333333   0.3958901), wk =   0.0042941
        k(  441) = (   0.2222222   0.3333333   0.4524458), wk =   0.0042941
        k(  442) = (   0.2222222   0.3333333   0.5090016), wk =   0.0042941
        k(  443) = (   0.2222222   0.3333333   0.5655573), wk =   0.0042941
        k(  444) = (   0.2222222   0.3333333   0.6221130), wk =   0.0042941
        k(  445) = (   0.2222222   0.3888889   0.0000000), wk =   0.0021471
        k(  446) = (   0.2222222   0.3888889   0.0565557), wk =   0.0042941
        k(  447) = (   0.2222222   0.3888889   0.1131115), wk =   0.0042941
        k(  448) = (   0.2222222   0.3888889   0.1696672), wk =   0.0042941
        k(  449) = (   0.2222222   0.3888889   0.2262229), wk =   0.0042941
        k(  450) = (   0.2222222   0.3888889   0.2827786), wk =   0.0042941
        k(  451) = (   0.2222222   0.3888889   0.3393344), wk =   0.0042941
        k(  452) = (   0.2222222   0.3888889   0.3958901), wk =   0.0042941
        k(  453) = (   0.2222222   0.3888889   0.4524458), wk =   0.0042941
        k(  454) = (   0.2222222   0.3888889   0.5090016), wk =   0.0042941
        k(  455) = (   0.2222222   0.3888889   0.5655573), wk =   0.0042941
        k(  456) = (   0.2222222   0.3888889   0.6221130), wk =   0.0042941
        k(  457) = (   0.2222222   0.4444444   0.0000000), wk =   0.0021471
        k(  458) = (   0.2222222   0.4444444   0.0565557), wk =   0.0042941
        k(  459) = (   0.2222222   0.4444444   0.1131115), wk =   0.0042941
        k(  460) = (   0.2222222   0.4444444   0.1696672), wk =   0.0042941
        k(  461) = (   0.2222222   0.4444444   0.2262229), wk =   0.0042941
        k(  462) = (   0.2222222   0.4444444   0.2827786), wk =   0.0042941
        k(  463) = (   0.2222222   0.4444444   0.3393344), wk =   0.0042941
        k(  464) = (   0.2222222   0.4444444   0.3958901), wk =   0.0042941
        k(  465) = (   0.2222222   0.4444444   0.4524458), wk =   0.0042941
        k(  466) = (   0.2222222   0.4444444   0.5090016), wk =   0.0042941
        k(  467) = (   0.2222222   0.4444444   0.5655573), wk =   0.0042941
        k(  468) = (   0.2222222   0.4444444   0.6221130), wk =   0.0042941
        k(  469) = (   0.2222222  -0.5000000   0.0000000), wk =   0.0010735
        k(  470) = (   0.2222222  -0.5000000   0.0565557), wk =   0.0021471
        k(  471) = (   0.2222222  -0.5000000   0.1131115), wk =   0.0021471
        k(  472) = (   0.2222222  -0.5000000   0.1696672), wk =   0.0021471
        k(  473) = (   0.2222222  -0.5000000   0.2262229), wk =   0.0021471
        k(  474) = (   0.2222222  -0.5000000   0.2827786), wk =   0.0021471
        k(  475) = (   0.2222222  -0.5000000   0.3393344), wk =   0.0021471
        k(  476) = (   0.2222222  -0.5000000   0.3958901), wk =   0.0021471
        k(  477) = (   0.2222222  -0.5000000   0.4524458), wk =   0.0021471
        k(  478) = (   0.2222222  -0.5000000   0.5090016), wk =   0.0021471
        k(  479) = (   0.2222222  -0.5000000   0.5655573), wk =   0.0021471
        k(  480) = (   0.2222222  -0.5000000   0.6221130), wk =   0.0021471
        k(  481) = (   0.2777778   0.2777778   0.0000000), wk =   0.0010735
        k(  482) = (   0.2777778   0.2777778   0.0565557), wk =   0.0021471
        k(  483) = (   0.2777778   0.2777778   0.1131115), wk =   0.0021471
        k(  484) = (   0.2777778   0.2777778   0.1696672), wk =   0.0021471
        k(  485) = (   0.2777778   0.2777778   0.2262229), wk =   0.0021471
        k(  486) = (   0.2777778   0.2777778   0.2827786), wk =   0.0021471
        k(  487) = (   0.2777778   0.2777778   0.3393344), wk =   0.0021471
        k(  488) = (   0.2777778   0.2777778   0.3958901), wk =   0.0021471
        k(  489) = (   0.2777778   0.2777778   0.4524458), wk =   0.0021471
        k(  490) = (   0.2777778   0.2777778   0.5090016), wk =   0.0021471
        k(  491) = (   0.2777778   0.2777778   0.5655573), wk =   0.0021471
        k(  492) = (   0.2777778   0.2777778   0.6221130), wk =   0.0021471
        k(  493) = (   0.2777778   0.3333333   0.0000000), wk =   0.0021471
        k(  494) = (   0.2777778   0.3333333   0.0565557), wk =   0.0042941
        k(  495) = (   0.2777778   0.3333333   0.1131115), wk =   0.0042941
        k(  496) = (   0.2777778   0.3333333   0.1696672), wk =   0.0042941
        k(  497) = (   0.2777778   0.3333333   0.2262229), wk =   0.0042941
        k(  498) = (   0.2777778   0.3333333   0.2827786), wk =   0.0042941
        k(  499) = (   0.2777778   0.3333333   0.3393344), wk =   0.0042941
        k(  500) = (   0.2777778   0.3333333   0.3958901), wk =   0.0042941
        k(  501) = (   0.2777778   0.3333333   0.4524458), wk =   0.0042941
        k(  502) = (   0.2777778   0.3333333   0.5090016), wk =   0.0042941
        k(  503) = (   0.2777778   0.3333333   0.5655573), wk =   0.0042941
        k(  504) = (   0.2777778   0.3333333   0.6221130), wk =   0.0042941
        k(  505) = (   0.2777778   0.3888889   0.0000000), wk =   0.0021471
        k(  506) = (   0.2777778   0.3888889   0.0565557), wk =   0.0042941
        k(  507) = (   0.2777778   0.3888889   0.1131115), wk =   0.0042941
        k(  508) = (   0.2777778   0.3888889   0.1696672), wk =   0.0042941
        k(  509) = (   0.2777778   0.3888889   0.2262229), wk =   0.0042941
        k(  510) = (   0.2777778   0.3888889   0.2827786), wk =   0.0042941
        k(  511) = (   0.2777778   0.3888889   0.3393344), wk =   0.0042941
        k(  512) = (   0.2777778   0.3888889   0.3958901), wk =   0.0042941
        k(  513) = (   0.2777778   0.3888889   0.4524458), wk =   0.0042941
        k(  514) = (   0.2777778   0.3888889   0.5090016), wk =   0.0042941
        k(  515) = (   0.2777778   0.3888889   0.5655573), wk =   0.0042941
        k(  516) = (   0.2777778   0.3888889   0.6221130), wk =   0.0042941
        k(  517) = (   0.2777778   0.4444444   0.0000000), wk =   0.0021471
        k(  518) = (   0.2777778   0.4444444   0.0565557), wk =   0.0042941
        k(  519) = (   0.2777778   0.4444444   0.1131115), wk =   0.0042941
        k(  520) = (   0.2777778   0.4444444   0.1696672), wk =   0.0042941
        k(  521) = (   0.2777778   0.4444444   0.2262229), wk =   0.0042941
        k(  522) = (   0.2777778   0.4444444   0.2827786), wk =   0.0042941
        k(  523) = (   0.2777778   0.4444444   0.3393344), wk =   0.0042941
        k(  524) = (   0.2777778   0.4444444   0.3958901), wk =   0.0042941
        k(  525) = (   0.2777778   0.4444444   0.4524458), wk =   0.0042941
        k(  526) = (   0.2777778   0.4444444   0.5090016), wk =   0.0042941
        k(  527) = (   0.2777778   0.4444444   0.5655573), wk =   0.0042941
        k(  528) = (   0.2777778   0.4444444   0.6221130), wk =   0.0042941
        k(  529) = (   0.2777778  -0.5000000   0.0000000), wk =   0.0010735
        k(  530) = (   0.2777778  -0.5000000   0.0565557), wk =   0.0021471
        k(  531) = (   0.2777778  -0.5000000   0.1131115), wk =   0.0021471
        k(  532) = (   0.2777778  -0.5000000   0.1696672), wk =   0.0021471
        k(  533) = (   0.2777778  -0.5000000   0.2262229), wk =   0.0021471
        k(  534) = (   0.2777778  -0.5000000   0.2827786), wk =   0.0021471
        k(  535) = (   0.2777778  -0.5000000   0.3393344), wk =   0.0021471
        k(  536) = (   0.2777778  -0.5000000   0.3958901), wk =   0.0021471
        k(  537) = (   0.2777778  -0.5000000   0.4524458), wk =   0.0021471
        k(  538) = (   0.2777778  -0.5000000   0.5090016), wk =   0.0021471
        k(  539) = (   0.2777778  -0.5000000   0.5655573), wk =   0.0021471
        k(  540) = (   0.2777778  -0.5000000   0.6221130), wk =   0.0021471
        k(  541) = (   0.3333333   0.3333333   0.0000000), wk =   0.0010735
        k(  542) = (   0.3333333   0.3333333   0.0565557), wk =   0.0021471
        k(  543) = (   0.3333333   0.3333333   0.1131115), wk =   0.0021471
        k(  544) = (   0.3333333   0.3333333   0.1696672), wk =   0.0021471
        k(  545) = (   0.3333333   0.3333333   0.2262229), wk =   0.0021471
        k(  546) = (   0.3333333   0.3333333   0.2827786), wk =   0.0021471
        k(  547) = (   0.3333333   0.3333333   0.3393344), wk =   0.0021471
        k(  548) = (   0.3333333   0.3333333   0.3958901), wk =   0.0021471
        k(  549) = (   0.3333333   0.3333333   0.4524458), wk =   0.0021471
        k(  550) = (   0.3333333   0.3333333   0.5090016), wk =   0.0021471
        k(  551) = (   0.3333333   0.3333333   0.5655573), wk =   0.0021471
        k(  552) = (   0.3333333   0.3333333   0.6221130), wk =   0.0021471
        k(  553) = (   0.3333333   0.3888889   0.0000000), wk =   0.0021471
        k(  554) = (   0.3333333   0.3888889   0.0565557), wk =   0.0042941
        k(  555) = (   0.3333333   0.3888889   0.1131115), wk =   0.0042941
        k(  556) = (   0.3333333   0.3888889   0.1696672), wk =   0.0042941
        k(  557) = (   0.3333333   0.3888889   0.2262229), wk =   0.0042941
        k(  558) = (   0.3333333   0.3888889   0.2827786), wk =   0.0042941
        k(  559) = (   0.3333333   0.3888889   0.3393344), wk =   0.0042941
        k(  560) = (   0.3333333   0.3888889   0.3958901), wk =   0.0042941
        k(  561) = (   0.3333333   0.3888889   0.4524458), wk =   0.0042941
        k(  562) = (   0.3333333   0.3888889   0.5090016), wk =   0.0042941
        k(  563) = (   0.3333333   0.3888889   0.5655573), wk =   0.0042941
        k(  564) = (   0.3333333   0.3888889   0.6221130), wk =   0.0042941
        k(  565) = (   0.3333333   0.4444444   0.0000000), wk =   0.0021471
        k(  566) = (   0.3333333   0.4444444   0.0565557), wk =   0.0042941
        k(  567) = (   0.3333333   0.4444444   0.1131115), wk =   0.0042941
        k(  568) = (   0.3333333   0.4444444   0.1696672), wk =   0.0042941
        k(  569) = (   0.3333333   0.4444444   0.2262229), wk =   0.0042941
        k(  570) = (   0.3333333   0.4444444   0.2827786), wk =   0.0042941
        k(  571) = (   0.3333333   0.4444444   0.3393344), wk =   0.0042941
        k(  572) = (   0.3333333   0.4444444   0.3958901), wk =   0.0042941
        k(  573) = (   0.3333333   0.4444444   0.4524458), wk =   0.0042941
        k(  574) = (   0.3333333   0.4444444   0.5090016), wk =   0.0042941
        k(  575) = (   0.3333333   0.4444444   0.5655573), wk =   0.0042941
        k(  576) = (   0.3333333   0.4444444   0.6221130), wk =   0.0042941
        k(  577) = (   0.3333333  -0.5000000   0.0000000), wk =   0.0010735
        k(  578) = (   0.3333333  -0.5000000   0.0565557), wk =   0.0021471
        k(  579) = (   0.3333333  -0.5000000   0.1131115), wk =   0.0021471
        k(  580) = (   0.3333333  -0.5000000   0.1696672), wk =   0.0021471
        k(  581) = (   0.3333333  -0.5000000   0.2262229), wk =   0.0021471
        k(  582) = (   0.3333333  -0.5000000   0.2827786), wk =   0.0021471
        k(  583) = (   0.3333333  -0.5000000   0.3393344), wk =   0.0021471
        k(  584) = (   0.3333333  -0.5000000   0.3958901), wk =   0.0021471
        k(  585) = (   0.3333333  -0.5000000   0.4524458), wk =   0.0021471
        k(  586) = (   0.3333333  -0.5000000   0.5090016), wk =   0.0021471
        k(  587) = (   0.3333333  -0.5000000   0.5655573), wk =   0.0021471
        k(  588) = (   0.3333333  -0.5000000   0.6221130), wk =   0.0021471
        k(  589) = (   0.3888889   0.3888889   0.0000000), wk =   0.0010735
        k(  590) = (   0.3888889   0.3888889   0.0565557), wk =   0.0021471
        k(  591) = (   0.3888889   0.3888889   0.1131115), wk =   0.0021471
        k(  592) = (   0.3888889   0.3888889   0.1696672), wk =   0.0021471
        k(  593) = (   0.3888889   0.3888889   0.2262229), wk =   0.0021471
        k(  594) = (   0.3888889   0.3888889   0.2827786), wk =   0.0021471
        k(  595) = (   0.3888889   0.3888889   0.3393344), wk =   0.0021471
        k(  596) = (   0.3888889   0.3888889   0.3958901), wk =   0.0021471
        k(  597) = (   0.3888889   0.3888889   0.4524458), wk =   0.0021471
        k(  598) = (   0.3888889   0.3888889   0.5090016), wk =   0.0021471
        k(  599) = (   0.3888889   0.3888889   0.5655573), wk =   0.0021471
        k(  600) = (   0.3888889   0.3888889   0.6221130), wk =   0.0021471
        k(  601) = (   0.3888889   0.4444444   0.0000000), wk =   0.0021471
        k(  602) = (   0.3888889   0.4444444   0.0565557), wk =   0.0042941
        k(  603) = (   0.3888889   0.4444444   0.1131115), wk =   0.0042941
        k(  604) = (   0.3888889   0.4444444   0.1696672), wk =   0.0042941
        k(  605) = (   0.3888889   0.4444444   0.2262229), wk =   0.0042941
        k(  606) = (   0.3888889   0.4444444   0.2827786), wk =   0.0042941
        k(  607) = (   0.3888889   0.4444444   0.3393344), wk =   0.0042941
        k(  608) = (   0.3888889   0.4444444   0.3958901), wk =   0.0042941
        k(  609) = (   0.3888889   0.4444444   0.4524458), wk =   0.0042941
        k(  610) = (   0.3888889   0.4444444   0.5090016), wk =   0.0042941
        k(  611) = (   0.3888889   0.4444444   0.5655573), wk =   0.0042941
        k(  612) = (   0.3888889   0.4444444   0.6221130), wk =   0.0042941
        k(  613) = (   0.3888889  -0.5000000   0.0000000), wk =   0.0010735
        k(  614) = (   0.3888889  -0.5000000   0.0565557), wk =   0.0021471
        k(  615) = (   0.3888889  -0.5000000   0.1131115), wk =   0.0021471
        k(  616) = (   0.3888889  -0.5000000   0.1696672), wk =   0.0021471
        k(  617) = (   0.3888889  -0.5000000   0.2262229), wk =   0.0021471
        k(  618) = (   0.3888889  -0.5000000   0.2827786), wk =   0.0021471
        k(  619) = (   0.3888889  -0.5000000   0.3393344), wk =   0.0021471
        k(  620) = (   0.3888889  -0.5000000   0.3958901), wk =   0.0021471
        k(  621) = (   0.3888889  -0.5000000   0.4524458), wk =   0.0021471
        k(  622) = (   0.3888889  -0.5000000   0.5090016), wk =   0.0021471
        k(  623) = (   0.3888889  -0.5000000   0.5655573), wk =   0.0021471
        k(  624) = (   0.3888889  -0.5000000   0.6221130), wk =   0.0021471
        k(  625) = (   0.4444444   0.4444444   0.0000000), wk =   0.0010735
        k(  626) = (   0.4444444   0.4444444   0.0565557), wk =   0.0021471
        k(  627) = (   0.4444444   0.4444444   0.1131115), wk =   0.0021471
        k(  628) = (   0.4444444   0.4444444   0.1696672), wk =   0.0021471
        k(  629) = (   0.4444444   0.4444444   0.2262229), wk =   0.0021471
        k(  630) = (   0.4444444   0.4444444   0.2827786), wk =   0.0021471
        k(  631) = (   0.4444444   0.4444444   0.3393344), wk =   0.0021471
        k(  632) = (   0.4444444   0.4444444   0.3958901), wk =   0.0021471
        k(  633) = (   0.4444444   0.4444444   0.4524458), wk =   0.0021471
        k(  634) = (   0.4444444   0.4444444   0.5090016), wk =   0.0021471
        k(  635) = (   0.4444444   0.4444444   0.5655573), wk =   0.0021471
        k(  636) = (   0.4444444   0.4444444   0.6221130), wk =   0.0021471
        k(  637) = (   0.4444444  -0.5000000   0.0000000), wk =   0.0010735
        k(  638) = (   0.4444444  -0.5000000   0.0565557), wk =   0.0021471
        k(  639) = (   0.4444444  -0.5000000   0.1131115), wk =   0.0021471
        k(  640) = (   0.4444444  -0.5000000   0.1696672), wk =   0.0021471
        k(  641) = (   0.4444444  -0.5000000   0.2262229), wk =   0.0021471
        k(  642) = (   0.4444444  -0.5000000   0.2827786), wk =   0.0021471
        k(  643) = (   0.4444444  -0.5000000   0.3393344), wk =   0.0021471
        k(  644) = (   0.4444444  -0.5000000   0.3958901), wk =   0.0021471
        k(  645) = (   0.4444444  -0.5000000   0.4524458), wk =   0.0021471
        k(  646) = (   0.4444444  -0.5000000   0.5090016), wk =   0.0021471
        k(  647) = (   0.4444444  -0.5000000   0.5655573), wk =   0.0021471
        k(  648) = (   0.4444444  -0.5000000   0.6221130), wk =   0.0021471
        k(  649) = (  -0.5000000  -0.5000000   0.0000000), wk =   0.0002684
        k(  650) = (  -0.5000000  -0.5000000   0.0565557), wk =   0.0005368
        k(  651) = (  -0.5000000  -0.5000000   0.1131115), wk =   0.0005368
        k(  652) = (  -0.5000000  -0.5000000   0.1696672), wk =   0.0005368
        k(  653) = (  -0.5000000  -0.5000000   0.2262229), wk =   0.0005368
        k(  654) = (  -0.5000000  -0.5000000   0.2827786), wk =   0.0005368
        k(  655) = (  -0.5000000  -0.5000000   0.3393344), wk =   0.0005368
        k(  656) = (  -0.5000000  -0.5000000   0.3958901), wk =   0.0005368
        k(  657) = (  -0.5000000  -0.5000000   0.4524458), wk =   0.0005368
        k(  658) = (  -0.5000000  -0.5000000   0.5090016), wk =   0.0005368
        k(  659) = (  -0.5000000  -0.5000000   0.5655573), wk =   0.0005368
        k(  660) = (  -0.5000000  -0.5000000   0.6221130), wk =   0.0005368

                       cryst. coord.
        k(    1) = (   0.0000000   0.0000000   0.0000000), wk =   0.0002684
        k(    2) = (   0.0000000   0.0000000   0.0434783), wk =   0.0005368
        k(    3) = (   0.0000000   0.0000000   0.0869565), wk =   0.0005368
        k(    4) = (   0.0000000   0.0000000   0.1304348), wk =   0.0005368
        k(    5) = (   0.0000000   0.0000000   0.1739130), wk =   0.0005368
        k(    6) = (   0.0000000   0.0000000   0.2173913), wk =   0.0005368
        k(    7) = (   0.0000000   0.0000000   0.2608696), wk =   0.0005368
        k(    8) = (   0.0000000   0.0000000   0.3043478), wk =   0.0005368
        k(    9) = (   0.0000000   0.0000000   0.3478261), wk =   0.0005368
        k(   10) = (   0.0000000   0.0000000   0.3913043), wk =   0.0005368
        k(   11) = (   0.0000000   0.0000000   0.4347826), wk =   0.0005368
        k(   12) = (   0.0000000   0.0000000   0.4782609), wk =   0.0005368
        k(   13) = (   0.0000000   0.0555556   0.0000000), wk =   0.0010735
        k(   14) = (   0.0000000   0.0555556   0.0434783), wk =   0.0021471
        k(   15) = (   0.0000000   0.0555556   0.0869565), wk =   0.0021471
        k(   16) = (   0.0000000   0.0555556   0.1304348), wk =   0.0021471
        k(   17) = (   0.0000000   0.0555556   0.1739130), wk =   0.0021471
        k(   18) = (   0.0000000   0.0555556   0.2173913), wk =   0.0021471
        k(   19) = (   0.0000000   0.0555556   0.2608696), wk =   0.0021471
        k(   20) = (   0.0000000   0.0555556   0.3043478), wk =   0.0021471
        k(   21) = (   0.0000000   0.0555556   0.3478261), wk =   0.0021471
        k(   22) = (   0.0000000   0.0555556   0.3913043), wk =   0.0021471
        k(   23) = (   0.0000000   0.0555556   0.4347826), wk =   0.0021471
        k(   24) = (   0.0000000   0.0555556   0.4782609), wk =   0.0021471
        k(   25) = (   0.0000000   0.1111111   0.0000000), wk =   0.0010735
        k(   26) = (   0.0000000   0.1111111   0.0434783), wk =   0.0021471
        k(   27) = (   0.0000000   0.1111111   0.0869565), wk =   0.0021471
        k(   28) = (   0.0000000   0.1111111   0.1304348), wk =   0.0021471
        k(   29) = (   0.0000000   0.1111111   0.1739130), wk =   0.0021471
        k(   30) = (   0.0000000   0.1111111   0.2173913), wk =   0.0021471
        k(   31) = (   0.0000000   0.1111111   0.2608696), wk =   0.0021471
        k(   32) = (   0.0000000   0.1111111   0.3043478), wk =   0.0021471
        k(   33) = (   0.0000000   0.1111111   0.3478261), wk =   0.0021471
        k(   34) = (   0.0000000   0.1111111   0.3913043), wk =   0.0021471
        k(   35) = (   0.0000000   0.1111111   0.4347826), wk =   0.0021471
        k(   36) = (   0.0000000   0.1111111   0.4782609), wk =   0.0021471
        k(   37) = (   0.0000000   0.1666667   0.0000000), wk =   0.0010735
        k(   38) = (   0.0000000   0.1666667   0.0434783), wk =   0.0021471
        k(   39) = (   0.0000000   0.1666667   0.0869565), wk =   0.0021471
        k(   40) = (   0.0000000   0.1666667   0.1304348), wk =   0.0021471
        k(   41) = (   0.0000000   0.1666667   0.1739130), wk =   0.0021471
        k(   42) = (   0.0000000   0.1666667   0.2173913), wk =   0.0021471
        k(   43) = (   0.0000000   0.1666667   0.2608696), wk =   0.0021471
        k(   44) = (   0.0000000   0.1666667   0.3043478), wk =   0.0021471
        k(   45) = (   0.0000000   0.1666667   0.3478261), wk =   0.0021471
        k(   46) = (   0.0000000   0.1666667   0.3913043), wk =   0.0021471
        k(   47) = (   0.0000000   0.1666667   0.4347826), wk =   0.0021471
        k(   48) = (   0.0000000   0.1666667   0.4782609), wk =   0.0021471
        k(   49) = (   0.0000000   0.2222222   0.0000000), wk =   0.0010735
        k(   50) = (   0.0000000   0.2222222   0.0434783), wk =   0.0021471
        k(   51) = (   0.0000000   0.2222222   0.0869565), wk =   0.0021471
        k(   52) = (   0.0000000   0.2222222   0.1304348), wk =   0.0021471
        k(   53) = (   0.0000000   0.2222222   0.1739130), wk =   0.0021471
        k(   54) = (   0.0000000   0.2222222   0.2173913), wk =   0.0021471
        k(   55) = (   0.0000000   0.2222222   0.2608696), wk =   0.0021471
        k(   56) = (   0.0000000   0.2222222   0.3043478), wk =   0.0021471
        k(   57) = (   0.0000000   0.2222222   0.3478261), wk =   0.0021471
        k(   58) = (   0.0000000   0.2222222   0.3913043), wk =   0.0021471
        k(   59) = (   0.0000000   0.2222222   0.4347826), wk =   0.0021471
        k(   60) = (   0.0000000   0.2222222   0.4782609), wk =   0.0021471
        k(   61) = (   0.0000000   0.2777778   0.0000000), wk =   0.0010735
        k(   62) = (   0.0000000   0.2777778   0.0434783), wk =   0.0021471
        k(   63) = (   0.0000000   0.2777778   0.0869565), wk =   0.0021471
        k(   64) = (   0.0000000   0.2777778   0.1304348), wk =   0.0021471
        k(   65) = (   0.0000000   0.2777778   0.1739130), wk =   0.0021471
        k(   66) = (   0.0000000   0.2777778   0.2173913), wk =   0.0021471
        k(   67) = (   0.0000000   0.2777778   0.2608696), wk =   0.0021471
        k(   68) = (   0.0000000   0.2777778   0.3043478), wk =   0.0021471
        k(   69) = (   0.0000000   0.2777778   0.3478261), wk =   0.0021471
        k(   70) = (   0.0000000   0.2777778   0.3913043), wk =   0.0021471
        k(   71) = (   0.0000000   0.2777778   0.4347826), wk =   0.0021471
        k(   72) = (   0.0000000   0.2777778   0.4782609), wk =   0.0021471
        k(   73) = (   0.0000000   0.3333333   0.0000000), wk =   0.0010735
        k(   74) = (   0.0000000   0.3333333   0.0434783), wk =   0.0021471
        k(   75) = (   0.0000000   0.3333333   0.0869565), wk =   0.0021471
        k(   76) = (   0.0000000   0.3333333   0.1304348), wk =   0.0021471
        k(   77) = (   0.0000000   0.3333333   0.1739130), wk =   0.0021471
        k(   78) = (   0.0000000   0.3333333   0.2173913), wk =   0.0021471
        k(   79) = (   0.0000000   0.3333333   0.2608696), wk =   0.0021471
        k(   80) = (   0.0000000   0.3333333   0.3043478), wk =   0.0021471
        k(   81) = (   0.0000000   0.3333333   0.3478261), wk =   0.0021471
        k(   82) = (   0.0000000   0.3333333   0.3913043), wk =   0.0021471
        k(   83) = (   0.0000000   0.3333333   0.4347826), wk =   0.0021471
        k(   84) = (   0.0000000   0.3333333   0.4782609), wk =   0.0021471
        k(   85) = (   0.0000000   0.3888889   0.0000000), wk =   0.0010735
        k(   86) = (   0.0000000   0.3888889   0.0434783), wk =   0.0021471
        k(   87) = (   0.0000000   0.3888889   0.0869565), wk =   0.0021471
        k(   88) = (   0.0000000   0.3888889   0.1304348), wk =   0.0021471
        k(   89) = (   0.0000000   0.3888889   0.1739130), wk =   0.0021471
        k(   90) = (   0.0000000   0.3888889   0.2173913), wk =   0.0021471
        k(   91) = (   0.0000000   0.3888889   0.2608696), wk =   0.0021471
        k(   92) = (   0.0000000   0.3888889   0.3043478), wk =   0.0021471
        k(   93) = (   0.0000000   0.3888889   0.3478261), wk =   0.0021471
        k(   94) = (   0.0000000   0.3888889   0.3913043), wk =   0.0021471
        k(   95) = (   0.0000000   0.3888889   0.4347826), wk =   0.0021471
        k(   96) = (   0.0000000   0.3888889   0.4782609), wk =   0.0021471
        k(   97) = (   0.0000000   0.4444444   0.0000000), wk =   0.0010735
        k(   98) = (   0.0000000   0.4444444   0.0434783), wk =   0.0021471
        k(   99) = (   0.0000000   0.4444444   0.0869565), wk =   0.0021471
        k(  100) = (   0.0000000   0.4444444   0.1304348), wk =   0.0021471
        k(  101) = (   0.0000000   0.4444444   0.1739130), wk =   0.0021471
        k(  102) = (   0.0000000   0.4444444   0.2173913), wk =   0.0021471
        k(  103) = (   0.0000000   0.4444444   0.2608696), wk =   0.0021471
        k(  104) = (   0.0000000   0.4444444   0.3043478), wk =   0.0021471
        k(  105) = (   0.0000000   0.4444444   0.3478261), wk =   0.0021471
        k(  106) = (   0.0000000   0.4444444   0.3913043), wk =   0.0021471
        k(  107) = (   0.0000000   0.4444444   0.4347826), wk =   0.0021471
        k(  108) = (   0.0000000   0.4444444   0.4782609), wk =   0.0021471
        k(  109) = (   0.0000000  -0.5000000   0.0000000), wk =   0.0005368
        k(  110) = (   0.0000000  -0.5000000   0.0434783), wk =   0.0010735
        k(  111) = (   0.0000000  -0.5000000   0.0869565), wk =   0.0010735
        k(  112) = (   0.0000000  -0.5000000   0.1304348), wk =   0.0010735
        k(  113) = (   0.0000000  -0.5000000   0.1739130), wk =   0.0010735
        k(  114) = (   0.0000000  -0.5000000   0.2173913), wk =   0.0010735
        k(  115) = (   0.0000000  -0.5000000   0.2608696), wk =   0.0010735
        k(  116) = (   0.0000000  -0.5000000   0.3043478), wk =   0.0010735
        k(  117) = (   0.0000000  -0.5000000   0.3478261), wk =   0.0010735
        k(  118) = (   0.0000000  -0.5000000   0.3913043), wk =   0.0010735
        k(  119) = (   0.0000000  -0.5000000   0.4347826), wk =   0.0010735
        k(  120) = (   0.0000000  -0.5000000   0.4782609), wk =   0.0010735
        k(  121) = (   0.0555556   0.0555556   0.0000000), wk =   0.0010735
        k(  122) = (   0.0555556   0.0555556   0.0434783), wk =   0.0021471
        k(  123) = (   0.0555556   0.0555556   0.0869565), wk =   0.0021471
        k(  124) = (   0.0555556   0.0555556   0.1304348), wk =   0.0021471
        k(  125) = (   0.0555556   0.0555556   0.1739130), wk =   0.0021471
        k(  126) = (   0.0555556   0.0555556   0.2173913), wk =   0.0021471
        k(  127) = (   0.0555556   0.0555556   0.2608696), wk =   0.0021471
        k(  128) = (   0.0555556   0.0555556   0.3043478), wk =   0.0021471
        k(  129) = (   0.0555556   0.0555556   0.3478261), wk =   0.0021471
        k(  130) = (   0.0555556   0.0555556   0.3913043), wk =   0.0021471
        k(  131) = (   0.0555556   0.0555556   0.4347826), wk =   0.0021471
        k(  132) = (   0.0555556   0.0555556   0.4782609), wk =   0.0021471
        k(  133) = (   0.0555556   0.1111111   0.0000000), wk =   0.0021471
        k(  134) = (   0.0555556   0.1111111   0.0434783), wk =   0.0042941
        k(  135) = (   0.0555556   0.1111111   0.0869565), wk =   0.0042941
        k(  136) = (   0.0555556   0.1111111   0.1304348), wk =   0.0042941
        k(  137) = (   0.0555556   0.1111111   0.1739130), wk =   0.0042941
        k(  138) = (   0.0555556   0.1111111   0.2173913), wk =   0.0042941
        k(  139) = (   0.0555556   0.1111111   0.2608696), wk =   0.0042941
        k(  140) = (   0.0555556   0.1111111   0.3043478), wk =   0.0042941
        k(  141) = (   0.0555556   0.1111111   0.3478261), wk =   0.0042941
        k(  142) = (   0.0555556   0.1111111   0.3913043), wk =   0.0042941
        k(  143) = (   0.0555556   0.1111111   0.4347826), wk =   0.0042941
        k(  144) = (   0.0555556   0.1111111   0.4782609), wk =   0.0042941
        k(  145) = (   0.0555556   0.1666667   0.0000000), wk =   0.0021471
        k(  146) = (   0.0555556   0.1666667   0.0434783), wk =   0.0042941
        k(  147) = (   0.0555556   0.1666667   0.0869565), wk =   0.0042941
        k(  148) = (   0.0555556   0.1666667   0.1304348), wk =   0.0042941
        k(  149) = (   0.0555556   0.1666667   0.1739130), wk =   0.0042941
        k(  150) = (   0.0555556   0.1666667   0.2173913), wk =   0.0042941
        k(  151) = (   0.0555556   0.1666667   0.2608696), wk =   0.0042941
        k(  152) = (   0.0555556   0.1666667   0.3043478), wk =   0.0042941
        k(  153) = (   0.0555556   0.1666667   0.3478261), wk =   0.0042941
        k(  154) = (   0.0555556   0.1666667   0.3913043), wk =   0.0042941
        k(  155) = (   0.0555556   0.1666667   0.4347826), wk =   0.0042941
        k(  156) = (   0.0555556   0.1666667   0.4782609), wk =   0.0042941
        k(  157) = (   0.0555556   0.2222222   0.0000000), wk =   0.0021471
        k(  158) = (   0.0555556   0.2222222   0.0434783), wk =   0.0042941
        k(  159) = (   0.0555556   0.2222222   0.0869565), wk =   0.0042941
        k(  160) = (   0.0555556   0.2222222   0.1304348), wk =   0.0042941
        k(  161) = (   0.0555556   0.2222222   0.1739130), wk =   0.0042941
        k(  162) = (   0.0555556   0.2222222   0.2173913), wk =   0.0042941
        k(  163) = (   0.0555556   0.2222222   0.2608696), wk =   0.0042941
        k(  164) = (   0.0555556   0.2222222   0.3043478), wk =   0.0042941
        k(  165) = (   0.0555556   0.2222222   0.3478261), wk =   0.0042941
        k(  166) = (   0.0555556   0.2222222   0.3913043), wk =   0.0042941
        k(  167) = (   0.0555556   0.2222222   0.4347826), wk =   0.0042941
        k(  168) = (   0.0555556   0.2222222   0.4782609), wk =   0.0042941
        k(  169) = (   0.0555556   0.2777778   0.0000000), wk =   0.0021471
        k(  170) = (   0.0555556   0.2777778   0.0434783), wk =   0.0042941
        k(  171) = (   0.0555556   0.2777778   0.0869565), wk =   0.0042941
        k(  172) = (   0.0555556   0.2777778   0.1304348), wk =   0.0042941
        k(  173) = (   0.0555556   0.2777778   0.1739130), wk =   0.0042941
        k(  174) = (   0.0555556   0.2777778   0.2173913), wk =   0.0042941
        k(  175) = (   0.0555556   0.2777778   0.2608696), wk =   0.0042941
        k(  176) = (   0.0555556   0.2777778   0.3043478), wk =   0.0042941
        k(  177) = (   0.0555556   0.2777778   0.3478261), wk =   0.0042941
        k(  178) = (   0.0555556   0.2777778   0.3913043), wk =   0.0042941
        k(  179) = (   0.0555556   0.2777778   0.4347826), wk =   0.0042941
        k(  180) = (   0.0555556   0.2777778   0.4782609), wk =   0.0042941
        k(  181) = (   0.0555556   0.3333333   0.0000000), wk =   0.0021471
        k(  182) = (   0.0555556   0.3333333   0.0434783), wk =   0.0042941
        k(  183) = (   0.0555556   0.3333333   0.0869565), wk =   0.0042941
        k(  184) = (   0.0555556   0.3333333   0.1304348), wk =   0.0042941
        k(  185) = (   0.0555556   0.3333333   0.1739130), wk =   0.0042941
        k(  186) = (   0.0555556   0.3333333   0.2173913), wk =   0.0042941
        k(  187) = (   0.0555556   0.3333333   0.2608696), wk =   0.0042941
        k(  188) = (   0.0555556   0.3333333   0.3043478), wk =   0.0042941
        k(  189) = (   0.0555556   0.3333333   0.3478261), wk =   0.0042941
        k(  190) = (   0.0555556   0.3333333   0.3913043), wk =   0.0042941
        k(  191) = (   0.0555556   0.3333333   0.4347826), wk =   0.0042941
        k(  192) = (   0.0555556   0.3333333   0.4782609), wk =   0.0042941
        k(  193) = (   0.0555556   0.3888889   0.0000000), wk =   0.0021471
        k(  194) = (   0.0555556   0.3888889   0.0434783), wk =   0.0042941
        k(  195) = (   0.0555556   0.3888889   0.0869565), wk =   0.0042941
        k(  196) = (   0.0555556   0.3888889   0.1304348), wk =   0.0042941
        k(  197) = (   0.0555556   0.3888889   0.1739130), wk =   0.0042941
        k(  198) = (   0.0555556   0.3888889   0.2173913), wk =   0.0042941
        k(  199) = (   0.0555556   0.3888889   0.2608696), wk =   0.0042941
        k(  200) = (   0.0555556   0.3888889   0.3043478), wk =   0.0042941
        k(  201) = (   0.0555556   0.3888889   0.3478261), wk =   0.0042941
        k(  202) = (   0.0555556   0.3888889   0.3913043), wk =   0.0042941
        k(  203) = (   0.0555556   0.3888889   0.4347826), wk =   0.0042941
        k(  204) = (   0.0555556   0.3888889   0.4782609), wk =   0.0042941
        k(  205) = (   0.0555556   0.4444444   0.0000000), wk =   0.0021471
        k(  206) = (   0.0555556   0.4444444   0.0434783), wk =   0.0042941
        k(  207) = (   0.0555556   0.4444444   0.0869565), wk =   0.0042941
        k(  208) = (   0.0555556   0.4444444   0.1304348), wk =   0.0042941
        k(  209) = (   0.0555556   0.4444444   0.1739130), wk =   0.0042941
        k(  210) = (   0.0555556   0.4444444   0.2173913), wk =   0.0042941
        k(  211) = (   0.0555556   0.4444444   0.2608696), wk =   0.0042941
        k(  212) = (   0.0555556   0.4444444   0.3043478), wk =   0.0042941
        k(  213) = (   0.0555556   0.4444444   0.3478261), wk =   0.0042941
        k(  214) = (   0.0555556   0.4444444   0.3913043), wk =   0.0042941
        k(  215) = (   0.0555556   0.4444444   0.4347826), wk =   0.0042941
        k(  216) = (   0.0555556   0.4444444   0.4782609), wk =   0.0042941
        k(  217) = (   0.0555556  -0.5000000   0.0000000), wk =   0.0010735
        k(  218) = (   0.0555556  -0.5000000   0.0434783), wk =   0.0021471
        k(  219) = (   0.0555556  -0.5000000   0.0869565), wk =   0.0021471
        k(  220) = (   0.0555556  -0.5000000   0.1304348), wk =   0.0021471
        k(  221) = (   0.0555556  -0.5000000   0.1739130), wk =   0.0021471
        k(  222) = (   0.0555556  -0.5000000   0.2173913), wk =   0.0021471
        k(  223) = (   0.0555556  -0.5000000   0.2608696), wk =   0.0021471
        k(  224) = (   0.0555556  -0.5000000   0.3043478), wk =   0.0021471
        k(  225) = (   0.0555556  -0.5000000   0.3478261), wk =   0.0021471
        k(  226) = (   0.0555556  -0.5000000   0.3913043), wk =   0.0021471
        k(  227) = (   0.0555556  -0.5000000   0.4347826), wk =   0.0021471
        k(  228) = (   0.0555556  -0.5000000   0.4782609), wk =   0.0021471
        k(  229) = (   0.1111111   0.1111111   0.0000000), wk =   0.0010735
        k(  230) = (   0.1111111   0.1111111   0.0434783), wk =   0.0021471
        k(  231) = (   0.1111111   0.1111111   0.0869565), wk =   0.0021471
        k(  232) = (   0.1111111   0.1111111   0.1304348), wk =   0.0021471
        k(  233) = (   0.1111111   0.1111111   0.1739130), wk =   0.0021471
        k(  234) = (   0.1111111   0.1111111   0.2173913), wk =   0.0021471
        k(  235) = (   0.1111111   0.1111111   0.2608696), wk =   0.0021471
        k(  236) = (   0.1111111   0.1111111   0.3043478), wk =   0.0021471
        k(  237) = (   0.1111111   0.1111111   0.3478261), wk =   0.0021471
        k(  238) = (   0.1111111   0.1111111   0.3913043), wk =   0.0021471
        k(  239) = (   0.1111111   0.1111111   0.4347826), wk =   0.0021471
        k(  240) = (   0.1111111   0.1111111   0.4782609), wk =   0.0021471
        k(  241) = (   0.1111111   0.1666667   0.0000000), wk =   0.0021471
        k(  242) = (   0.1111111   0.1666667   0.0434783), wk =   0.0042941
        k(  243) = (   0.1111111   0.1666667   0.0869565), wk =   0.0042941
        k(  244) = (   0.1111111   0.1666667   0.1304348), wk =   0.0042941
        k(  245) = (   0.1111111   0.1666667   0.1739130), wk =   0.0042941
        k(  246) = (   0.1111111   0.1666667   0.2173913), wk =   0.0042941
        k(  247) = (   0.1111111   0.1666667   0.2608696), wk =   0.0042941
        k(  248) = (   0.1111111   0.1666667   0.3043478), wk =   0.0042941
[...]
    15.9639  16.5092

     occupation numbers 
     1.0000   1.0000   1.0000   1.0000   0.0000   0.0000   0.0000   0.0000
     0.0000   0.0000

          k = 0.3889 0.4444 0.0566 (   726 PWs)   bands (ev):

     0.9279   1.9055   2.8746   3.8354  13.7216  14.5429  15.4297  15.8476
    16.2272  16.3631

     occupation numbers 
     1.0000   1.0000   1.0000   1.0000   0.0000   0.0000   0.0000   0.0000
     0.0000   0.0000

          k = 0.3889 0.4444 0.1131 (   722 PWs)   bands (ev):

     1.0126   1.9894   2.9575   3.9170  12.7890  13.6400  14.5383  15.4756
    16.0673  16.6060

     occupation numbers 
     1.0000   1.0000   1.0000   1.0000   0.0000   0.0000   0.0000   0.0000
     0.0000   0.0000

          k = 0.3889 0.4444 0.1697 (   719 PWs)   bands (ev):

     1.1536   2.1289   3.0953   4.0524  11.7990  12.6746  13.5792  14.5090
    16.2488  16.8141

     occupation numbers 
     1.0000   1.0000   1.0000   1.0000   0.0000   0.0000   0.0000   0.0000
     0.0000   0.0000

          k = 0.3889 0.4444 0.2262 (   727 PWs)   bands (ev):

     1.3506   2.3239   3.2876   4.2410  10.8191  11.7094  12.6183  13.5436
    16.4474  17.0124

     occupation numbers 
     1.0000   1.0000   1.0000   1.0000   1.0450   0.0000   0.0000   0.0000
     0.0000   0.0000

          k = 0.3889 0.4444 0.2828 (   724 PWs)   bands (ev):

     1.6034   2.5737   3.5337   4.4810   9.8711  10.7689  11.6808  12.6041
    16.6821  17.2422

     occupation numbers 
     1.0000   1.0000   1.0000   1.0000   1.0000   1.0832   0.0000   0.0000
     0.0000   0.0000

          k = 0.3889 0.4444 0.3393 (   727 PWs)   bands (ev):

     1.9113   2.8778   3.8323   4.7693   8.9667   9.8652  10.7785  11.7012
    16.9586  17.5133

     occupation numbers 
     1.0000   1.0000   1.0000   1.0000   1.0000   1.0000   1.0827   0.0000
     0.0000   0.0000

          k = 0.3889 0.4444 0.3959 (   729 PWs)   bands (ev):

     2.2737   3.2350   4.1810   5.0975   8.1188   9.0066   9.9185  10.8407
    17.2775  17.8282

     occupation numbers 
     1.0000   1.0000   1.0000   1.0000   1.0000   1.0000   1.0000   0.9951
     0.0000   0.0000

          k = 0.3889 0.4444 0.4524 (   727 PWs)   bands (ev):

     2.6896   3.6435   4.5748   5.4379   7.3579   8.2013   9.1058  10.0263
    17.6373  18.1875

     occupation numbers 
     1.0000   1.0000   1.0000   1.0000   1.0000   1.0000   1.0000   1.0000
     0.0000   0.0000

          k = 0.3889 0.4444 0.5090 (   728 PWs)   bands (ev):

     3.1574   4.0997   4.9992   5.6549   6.8214   7.4659   8.3461   9.2614
    18.0320  18.5901

     occupation numbers 
     1.0000   1.0000   1.0000   1.0000   1.0000   1.0000   1.0000   1.0000
     0.0000   0.0000

          k = 0.3889 0.4444 0.5656 (   728 PWs)   bands (ev):

     3.6746   4.5954   5.3888   5.3958   6.8601   6.8700   7.6488   8.5495
    18.4476  19.0332

     occupation numbers 
     1.0000   1.0000   1.0000   1.0000   1.0000   1.0000   1.0000   1.0000
     0.0000   0.0000

          k = 0.3889 0.4444 0.6221 (   734 PWs)   bands (ev):

     4.2358   4.8263   5.1032   5.4906   6.6585   7.0420   7.3177   7.8967
    18.8451  19.1099

     occupation numbers 
     1.0000   1.0000   1.0000   1.0000   1.0000   1.0000   1.0000   1.0000
     0.0000   0.0000

          k = 0.3889-0.5000 0.0000 (   724 PWs)   bands (ev):

     1.3625   1.3626   3.3020   3.3021  14.6489  14.6489  15.7791  15.7792
    16.3709  16.3710

     occupation numbers 
     1.0000   1.0000   1.0000   1.0000   0.0000   0.0000   0.0000   0.0000
     0.0000   0.0000

          k = 0.3889-0.5000 0.0566 (   724 PWs)   bands (ev):

     1.3906   1.3908   3.3295   3.3296  14.1213  14.1213  15.8858  15.8858
    16.0564  16.0565

     occupation numbers 
     1.0000   1.0000   1.0000   1.0000   0.0000   0.0000   0.0000   0.0000
     0.0000   0.0000

          k = 0.3889-0.5000 0.1131 (   724 PWs)   bands (ev):

     1.4749   1.4751   3.4118   3.4119  13.1981  13.1981  14.9912  14.9912
    16.3410  16.3410

     occupation numbers 
     1.0000   1.0000   1.0000   1.0000   0.0000   0.0000   0.0000   0.0000
     0.0000   0.0000

          k = 0.3889-0.5000 0.1697 (   718 PWs)   bands (ev):

     1.6153   1.6154   3.5486   3.5487  12.2165  12.2166  14.0244  14.0245
    16.5484  16.5485

     occupation numbers 
     1.0000   1.0000   1.0000   1.0000   0.0000   0.0000   0.0000   0.0000
     0.0000   0.0000

          k = 0.3889-0.5000 0.2262 (   720 PWs)   bands (ev):

     1.8113   1.8115   3.7393   3.7394  11.2417  11.2418  13.0592  13.0592
    16.7568  16.7568

     occupation numbers 
     1.0000   1.0000   1.0000   1.0000   0.0003   0.0003   0.0000   0.0000
     0.0000   0.0000

          k = 0.3889-0.5000 0.2828 (   728 PWs)   bands (ev):

     2.0628   2.0629   3.9829   3.9830  10.2958  10.2959  12.1194  12.1195
    16.9953  16.9954

     occupation numbers 
     1.0000   1.0000   1.0000   1.0000   1.0000   1.0000   0.0000   0.0000
     0.0000   0.0000

          k = 0.3889-0.5000 0.3393 (   728 PWs)   bands (ev):

     2.3690   2.3691   4.2774   4.2775   9.3900   9.3901  11.2159  11.2160
    17.2735  17.2735

     occupation numbers 
     1.0000   1.0000   1.0000   1.0000   1.0000   1.0000   0.0007   0.0007
     0.0000   0.0000

          k = 0.3889-0.5000 0.3959 (   730 PWs)   bands (ev):

     2.7291   2.7292   4.6188   4.6189   8.5333   8.5334  10.3549  10.3550
    17.5942  17.5942

     occupation numbers 
     1.0000   1.0000   1.0000   1.0000   1.0000   1.0000   1.0000   1.0000
     0.0000   0.0000

          k = 0.3889-0.5000 0.4524 (   732 PWs)   bands (ev):

     3.1419   3.1420   4.9963   4.9964   7.7396   7.7397   9.5405   9.5407
    17.9574  17.9574

     occupation numbers 
     1.0000   1.0000   1.0000   1.0000   1.0000   1.0000   1.0000   1.0000
     0.0000   0.0000

          k = 0.3889-0.5000 0.5090 (   732 PWs)   bands (ev):

     3.6051   3.6052   5.3701   5.3702   7.0503   7.0504   8.7769   8.7770
    18.3606  18.3607

     occupation numbers 
     1.0000   1.0000   1.0000   1.0000   1.0000   1.0000   1.0000   1.0000
     0.0000   0.0000

          k = 0.3889-0.5000 0.5656 (   730 PWs)   bands (ev):

     4.1144   4.1145   5.5410   5.5411   6.6659   6.6661   8.0694   8.0695
    18.7978  18.7978

     occupation numbers 
     1.0000   1.0000   1.0000   1.0000   1.0000   1.0000   1.0000   1.0000
     0.0000   0.0000

          k = 0.3889-0.5000 0.6221 (   734 PWs)   bands (ev):

     4.6589   4.6590   5.1995   5.1996   6.8967   6.8968   7.4295   7.4296
    19.2528  19.2530

     occupation numbers 
     1.0000   1.0000   1.0000   1.0000   1.0000   1.0000   1.0000   1.0000
     0.0000   0.0000

          k = 0.4444 0.4444 0.0000 (   726 PWs)   bands (ev):

     1.3083   2.2829   2.2829   3.2491  14.6014  15.4624  15.4624  16.3237
    16.4642  16.6608

     occupation numbers 
     1.0000   1.0000   1.0000   1.0000   0.0000   0.0000   0.0000   0.0000
     0.0000   0.0000

          k = 0.4444 0.4444 0.0566 (   724 PWs)   bands (ev):

     1.3365   2.3107   2.3107   3.2766  14.0947  14.9559  14.9559  15.8554
    16.9100  16.9101

     occupation numbers 
     1.0000   1.0000   1.0000   1.0000   0.0000   0.0000   0.0000   0.0000
     0.0000   0.0000

          k = 0.4444 0.4444 0.1131 (   720 PWs)   bands (ev):

     1.4208   2.3941   2.3941   3.3589  13.1682  14.0464  14.0464  14.9597
    17.1740  17.1740

     occupation numbers 
     1.0000   1.0000   1.0000   1.0000   0.0000   0.0000   0.0000   0.0000
     0.0000   0.0000

          k = 0.4444 0.4444 0.1697 (   716 PWs)   bands (ev):

     1.5612   2.5330   2.5330   3.4958  12.1797  13.0718  13.0718  13.9874
    17.3725  17.5120

     occupation numbers 
     1.0000   1.0000   1.0000   1.0000   0.0000   0.0000   0.0000   0.0000
     0.0000   0.0000

          k = 0.4444 0.4444 0.2262 (   721 PWs)   bands (ev):

     1.7574   2.7269   2.7269   3.6866  11.2000  12.1011  12.1011  13.0179
    17.5755  17.6772

     occupation numbers 
     1.0000   1.0000   1.0000   1.0000   0.0013   0.0000   0.0000   0.0000
     0.0000   0.0000

          k = 0.4444 0.4444 0.2828 (   724 PWs)   bands (ev):

     2.0090   2.9752   2.9752   3.9303  10.2508  11.1572  11.1573  12.0753
    17.8090  17.8902

     occupation numbers 
     1.0000   1.0000   1.0000   1.0000   1.0000   0.0057   0.0057   0.0000
     0.0000   0.0000

          k = 0.4444 0.4444 0.3393 (   725 PWs)   bands (ev):

     2.3153   3.2771   3.2771   4.2251   9.3428  10.2510  10.2510  11.1699
    18.0810  18.1492

     occupation numbers 
     1.0000   1.0000   1.0000   1.0000   1.0000   1.0000   1.0000   0.0038
     0.0000   0.0000

          k = 0.4444 0.4444 0.3959 (   725 PWs)   bands (ev):

     2.6757   3.6311   3.6311   4.5667   8.4847   9.3889   9.3889  10.3075
    18.3926  18.4540

     occupation numbers 
     1.0000   1.0000   1.0000   1.0000   1.0000   1.0000   1.0000   1.0000
     0.0000   0.0000

          k = 0.4444 0.4444 0.4524 (   729 PWs)   bands (ev):

     3.0887   4.0342   4.0342   4.9445   7.6898   8.5768   8.5768   9.4921
    18.7408  18.8030

     occupation numbers 
     1.0000   1.0000   1.0000   1.0000   1.0000   1.0000   1.0000   1.0000
     0.0000   0.0000

          k = 0.4444 0.4444 0.5090 (   733 PWs)   bands (ev):

     3.5521   4.4800   4.4800   5.3186   6.9996   7.8230   7.8230   8.7276
    19.1158  19.1944

     occupation numbers 
     1.0000   1.0000   1.0000   1.0000   1.0000   1.0000   1.0000   1.0000
     0.0000   0.0000

          k = 0.4444 0.4444 0.5656 (   738 PWs)   bands (ev):

     4.0618   4.9489   4.9489   5.4897   6.6147   7.1482   7.1482   8.0194
    19.4890  19.6229

     occupation numbers 
     1.0000   1.0000   1.0000   1.0000   1.0000   1.0000   1.0000   1.0000
     0.0000   0.0000

          k = 0.4444 0.4444 0.6221 (   736 PWs)   bands (ev):

     4.6067   5.1477   5.3532   5.3532   6.6409   6.6409   6.8457   7.3790
    19.7710  19.7712

     occupation numbers 
     1.0000   1.0000   1.0000   1.0000   1.0000   1.0000   1.0000   1.0000
     0.0000   0.0000

          k = 0.4444-0.5000 0.0000 (   722 PWs)   bands (ev):

     1.7696   1.7697   2.7402   2.7404  15.0082  15.0082  15.8694  15.8694
    16.7003  16.7004

     occupation numbers 
     1.0000   1.0000   1.0000   1.0000   0.0000   0.0000   0.0000   0.0000
     0.0000   0.0000

          k = 0.4444-0.5000 0.0566 (   722 PWs)   bands (ev):

     1.7976   1.7977   2.7679   2.7680  14.5068  14.5068  15.3878  15.3878
    17.0465  17.0465

     occupation numbers 
     1.0000   1.0000   1.0000   1.0000   0.0000   0.0000   0.0000   0.0000
     0.0000   0.0000

          k = 0.4444-0.5000 0.1131 (   722 PWs)   bands (ev):

     1.8815   1.8816   2.8509   2.8510  13.5878  13.5878  14.4840  14.4840
    17.3824  17.3825

     occupation numbers 
     1.0000   1.0000   1.0000   1.0000   0.0000   0.0000   0.0000   0.0000
     0.0000   0.0000

          k = 0.4444-0.5000 0.1697 (   716 PWs)   bands (ev):

     2.0212   2.0213   2.9888   2.9889  12.6043  12.6043  13.5085  13.5085
    17.5767  17.5768

     occupation numbers 
     1.0000   1.0000   1.0000   1.0000   0.0000   0.0000   0.0000   0.0000
     0.0000   0.0000

          k = 0.4444-0.5000 0.2262 (   720 PWs)   bands (ev):

     2.2164   2.2165   3.1814   3.1815  11.6276  11.6277  12.5370  12.5370
    17.7699  17.7701

     occupation numbers 
     1.0000   1.0000   1.0000   1.0000   0.0000   0.0000   0.0000   0.0000
     0.0000   0.0000

          k = 0.4444-0.5000 0.2828 (   726 PWs)   bands (ev):

     2.4665   2.4666   3.4278   3.4279  10.6800  10.6801  11.5927  11.5928
    17.9960  17.9961

     occupation numbers 
     1.0000   1.0000   1.0000   1.0000   1.0337   1.0338   0.0000   0.0000
     0.0000   0.0000

          k = 0.4444-0.5000 0.3393 (   724 PWs)   bands (ev):

     2.7709   2.7710   3.7268   3.7269   9.7717   9.7718  10.6861  10.6862
    18.2631  18.2631

     occupation numbers 
     1.0000   1.0000   1.0000   1.0000   1.0000   1.0000   1.0374   1.0375
     0.0000   0.0000

          k = 0.4444-0.5000 0.3959 (   724 PWs)   bands (ev):

     3.1285   3.1287   4.0759   4.0760   8.9098   8.9099   9.8230   9.8231
    18.5725  18.5725

     occupation numbers 
     1.0000   1.0000   1.0000   1.0000   1.0000   1.0000   1.0000   1.0000
     0.0000   0.0000

          k = 0.4444-0.5000 0.4524 (   726 PWs)   bands (ev):

     3.5375   3.5376   4.4702   4.4703   8.1022   8.1023   9.0081   9.0082
    18.9231  18.9232

     occupation numbers 
     1.0000   1.0000   1.0000   1.0000   1.0000   1.0000   1.0000   1.0000
     0.0000   0.0000

          k = 0.4444-0.5000 0.5090 (   734 PWs)   bands (ev):

     3.9944   3.9945   4.8952   4.8953   7.3650   7.3652   8.2466   8.2467
    19.3107  19.3109

     occupation numbers 
     1.0000   1.0000   1.0000   1.0000   1.0000   1.0000   1.0000   1.0000
     0.0000   0.0000

          k = 0.4444-0.5000 0.5656 (   736 PWs)   bands (ev):

     4.4908   4.4909   5.2926   5.2927   6.7577   6.7579   7.5479   7.5481
    19.7236  19.7236

     occupation numbers 
     1.0000   1.0000   1.0000   1.0000   1.0000   1.0000   1.0000   1.0000
     0.0000   0.0000

          k = 0.4444-0.5000 0.6221 (   738 PWs)   bands (ev):

     4.9994   4.9995   5.3877   5.3877   6.5556   6.5558   6.9400   6.9401
    20.1271  20.1273

     occupation numbers 
     1.0000   1.0000   1.0000   1.0000   1.0000   1.0000   1.0000   1.0000
     0.0000   0.0000

          k =-0.5000-0.5000 0.0000 (   720 PWs)   bands (ev):

     2.2291   2.2292   2.2292   2.2293  15.4150  15.4150  15.4151  15.4151
    17.3945  17.3947

     occupation numbers 
     1.0000   1.0000   1.0000   1.0000   0.0000   0.0000   0.0000   0.0000
     0.0000   0.0000

          k =-0.5000-0.5000 0.0566 (   720 PWs)   bands (ev):

     2.2569   2.2570   2.2570   2.2571  14.9275  14.9275  14.9275  14.9275
    17.8818  17.8819

     occupation numbers 
     1.0000   1.0000   1.0000   1.0000   0.0000   0.0000   0.0000   0.0000
     0.0000   0.0000

          k =-0.5000-0.5000 0.1131 (   736 PWs)   bands (ev):

     2.3404   2.3405   2.3405   2.3406  14.0157  14.0158  14.0158  14.0158
    18.1847  18.1848

     occupation numbers 
     1.0000   1.0000   1.0000   1.0000   0.0000   0.0000   0.0000   0.0000
     0.0000   0.0000

          k =-0.5000-0.5000 0.1697 (   720 PWs)   bands (ev):

     2.4793   2.4794   2.4794   2.4795  13.0347  13.0348  13.0348  13.0349
    18.3025  18.3027

     occupation numbers 
     1.0000   1.0000   1.0000   1.0000   0.0000   0.0000   0.0000   0.0000
     0.0000   0.0000

          k =-0.5000-0.5000 0.2262 (   720 PWs)   bands (ev):

     2.6733   2.6734   2.6734   2.6735  12.0594  12.0595  12.0595  12.0596
    18.4668  18.4670

     occupation numbers 
     1.0000   1.0000   1.0000   1.0000   0.0000   0.0000   0.0000   0.0000
     0.0000   0.0000

          k =-0.5000-0.5000 0.2828 (   732 PWs)   bands (ev):

     2.9218   2.9219   2.9219   2.9220  11.1125  11.1126  11.1126  11.1127
    18.6773  18.6775

     occupation numbers 
     1.0000   1.0000   1.0000   1.0000   0.0213   0.0213   0.0213   0.0212
     0.0000   0.0000

          k =-0.5000-0.5000 0.3393 (   724 PWs)   bands (ev):

     3.2239   3.2240   3.2240   3.2241  10.2041  10.2042  10.2042  10.2044
    18.9330  18.9332

     occupation numbers 
     1.0000   1.0000   1.0000   1.0000   1.0000   1.0000   1.0000   1.0000
     0.0000   0.0000

          k =-0.5000-0.5000 0.3959 (   720 PWs)   bands (ev):

     3.5781   3.5782   3.5782   3.5783   9.3406   9.3407   9.3407   9.3408
    19.2321  19.2323

     occupation numbers 
     1.0000   1.0000   1.0000   1.0000   1.0000   1.0000   1.0000   1.0000
     0.0000   0.0000

          k =-0.5000-0.5000 0.4524 (   720 PWs)   bands (ev):

     3.9815   3.9816   3.9816   3.9817   8.5274   8.5275   8.5275   8.5276
    19.5706  19.5707

     occupation numbers 
     1.0000   1.0000   1.0000   1.0000   1.0000   1.0000   1.0000   1.0000
     0.0000   0.0000

          k =-0.5000-0.5000 0.5090 (   744 PWs)   bands (ev):

     4.4276   4.4277   4.4277   4.4278   7.7727   7.7728   7.7728   7.7729
    19.9395  19.9398

     occupation numbers 
     1.0000   1.0000   1.0000   1.0000   1.0000   1.0000   1.0000   1.0000
     0.0000   0.0000

          k =-0.5000-0.5000 0.5656 (   744 PWs)   bands (ev):

     4.8969   4.8970   4.8970   4.8970   7.0972   7.0973   7.0973   7.0975
    20.3135  20.3136

     occupation numbers 
     1.0000   1.0000   1.0000   1.0000   1.0000   1.0000   1.0000   1.0000
     0.0000   0.0000

          k =-0.5000-0.5000 0.6221 (   736 PWs)   bands (ev):

     5.3016   5.3017   5.3017   5.3018   6.5892   6.5894   6.5894   6.5896
    20.6047  20.6047

     occupation numbers 
     1.0000   1.0000   1.0000   1.0000   1.0000   1.0000   1.0000   1.0000
     0.0000   0.0000

     the Fermi energy is    10.9642 ev

!    total energy              =     -26.69211904 Ry
     Harris-Foulkes estimate   =     -26.69211909 Ry
     estimated scf accuracy    <       0.00000008 Ry

     The total energy is the sum of the following terms:

     one-electron contribution =      14.66836537 Ry
     hartree contribution      =       0.04647539 Ry
     xc contribution           =     -17.80074162 Ry
     ewald contribution        =     -23.60615513 Ry
     smearing contrib. (-TS)   =      -0.00006307 Ry

     convergence has been achieved in   5 iterations
 
     init_run     :    116.08s CPU      6.34s WALL (       1 calls)
     electrons    :   1379.76s CPU     72.58s WALL (       1 calls)

     Called by init_run:
     wfcinit      :    115.79s CPU      6.10s WALL (       1 calls)
     wfcinit:atom :      2.25s CPU      0.12s WALL (     660 calls)
     wfcinit:wfcr :    104.15s CPU      5.49s WALL (     660 calls)
     potinit      :      0.04s CPU      0.01s WALL (       1 calls)

     Called by electrons:
     c_bands      :   1180.34s CPU     62.10s WALL (       6 calls)
     sum_band     :    197.97s CPU     10.39s WALL (       6 calls)
     v_of_rho     :      0.56s CPU      0.03s WALL (       6 calls)
     v_h          :      0.02s CPU      0.00s WALL (       6 calls)
     v_xc         :      0.53s CPU      0.03s WALL (       6 calls)
     newd         :      0.41s CPU      0.03s WALL (       6 calls)
     mix_rho      :      0.11s CPU      0.01s WALL (       6 calls)

     Called by c_bands:
     init_us_2    :     38.41s CPU      2.03s WALL (    8580 calls)
     cegterg      :   1083.87s CPU     57.06s WALL (    3960 calls)

     Called by sum_band:
     sum_band:bec :      1.38s CPU      0.07s WALL (    3960 calls)
     addusdens    :      0.69s CPU      0.04s WALL (       6 calls)

     Called by *egterg:
     h_psi        :   1040.42s CPU     54.69s WALL (   13569 calls)
     s_psi        :      7.92s CPU      0.43s WALL (   13569 calls)
     g_psi        :      7.73s CPU      0.41s WALL (    8949 calls)
     cdiaghg      :     46.83s CPU      2.50s WALL (   12249 calls)
     cegterg:over :      8.93s CPU      0.47s WALL (    8949 calls)
     cegterg:upda :     11.83s CPU      0.63s WALL (    8949 calls)
     cegterg:last :      4.58s CPU      0.24s WALL (    3963 calls)

     Called by h_psi:
     h_psi:pot    :   1030.45s CPU     54.15s WALL (   13569 calls)
     h_psi:calbec :     26.34s CPU      1.40s WALL (   13569 calls)
     vloc_psi     :    981.47s CPU     51.55s WALL (   13569 calls)
     add_vuspsi   :     11.75s CPU      0.62s WALL (   13569 calls)

     General routines
     calbec       :     25.38s CPU      1.35s WALL (   17529 calls)
     fft          :      0.17s CPU      0.04s WALL (      80 calls)
     fftw         :    987.18s CPU     51.93s WALL (  258988 calls)
 
     Parallel routines
 
     PWSCF        : 24m56.03s CPU     1m19.05s WALL

 
   This run was terminated on:  17: 3:10  24Jan2019            

=------------------------------------------------------------------------------=
   JOB DONE.
=------------------------------------------------------------------------------=
