
     Program PWSCF v.6.2 (svn rev. 14038) starts on 24Jan2019 at 12:25:27 

     This program is part of the open-source Quantum ESPRESSO suite
     for quantum simulation of materials; please cite
         "P. Giannozzi et al., J. Phys.:Condens. Matter 21 395502 (2009);
         "P. Giannozzi et al., J. Phys.:Condens. Matter 29 465901 (2017);
          URL http://www.quantum-espresso.org", 
     in publications or presentations arising from this work. More details at
     http://www.quantum-espresso.org/quote

     Parallel version (MPI), running on     1 processors

     MPI processes distributed on     1 nodes
     Reading input from ./Al16.in
Warning: card &IONS ignored
Warning: card / ignored
Warning: card &CELL ignored
Warning: card / ignored

     Current dimensions of program PWSCF are:
     Max number of different atomic species (ntypx) = 10
     Max number of k-points (npk) =  40000
     Max angular momentum in pseudopotentials (lmaxx) =  3
     Message from routine iosys:
     minimal I/O required, wf_collect reset to FALSE

     Subspace diagonalization in iterative solution of the eigenvalue problem:
     a serial algorithm will be used

 
     G-vector sticks info
     --------------------
     sticks:   dense  smooth     PW     G-vecs:    dense   smooth      PW
     Sum         283     283     97                 3119     3119     645
 


     bravais-lattice index     =            0
     lattice parameter (alat)  =       5.3970  a.u.
     unit-cell volume          =     111.1567 (a.u.)^3
     number of atoms/cell      =            1
     number of atomic types    =            1
     number of electrons       =         3.00
     number of Kohn-Sham states=            6
     kinetic-energy cutoff     =      35.0000  Ry
     charge density cutoff     =     140.0000  Ry
     convergence threshold     =      1.0E-05
     mixing beta               =       0.7000
     number of iterations used =            8  plain     mixing
     Exchange-correlation      = SLA  PZ   NOGX NOGC ( 1  1  0  0 0 0)

     celldm(1)=   5.396971  celldm(2)=   0.000000  celldm(3)=   0.000000
     celldm(4)=   0.000000  celldm(5)=   0.000000  celldm(6)=   0.000000

     crystal axes: (cart. coord. in units of alat)
               a(1) = (   0.866025   0.000000   0.500000 )  
               a(2) = (   0.288675   0.816497   0.500000 )  
               a(3) = (   0.000000   0.000000   1.000000 )  

     reciprocal axes: (cart. coord. in units 2 pi/alat)
               b(1) = (  1.154701 -0.408248  0.000000 )  
               b(2) = (  0.000000  1.224745  0.000000 )  
               b(3) = ( -0.577350 -0.408248  1.000000 )  


     PseudoPot. # 1 for Al read from file:
     ./al_lda_v1.uspp.F.UPF
     MD5 check sum: 51a9e5980debfdd3404790b200e14add
     Pseudo is Ultrasoft + core correction, Zval =  3.0
     Generated by new atomic code, or converted to UPF format
     Using radial grid of  893 points,  3 beta functions with: 
                l(1) =   0
                l(2) =   1
                l(3) =   2
     Q(r) pseudized with  8 coefficients,  rinner =    0.900   0.900   0.900
                                                       0.900   0.900

     atomic species   valence    mass     pseudopotential
        Al             3.00    26.98150     Al( 1.00)

      4 Sym. Ops., with inversion, found


                                    s                        frac. trans.

      isym =  1     identity                                     

 cryst.   s( 1) = (     1          0          0      )
                  (     0          1          0      )
                  (     0          0          1      )

 cart.    s( 1) = (  1.0000000  0.0000000  0.0000000 )
                  (  0.0000000  1.0000000  0.0000000 )
                  (  0.0000000 -0.0000000  1.0000000 )


      isym =  2     180 deg rotation - cart. axis [0,0,1]        

 cryst.   s( 2) = (    -1          0          1      )
                  (     0         -1          1      )
                  (     0          0          1      )

 cart.    s( 2) = ( -1.0000000  0.0000000  0.0000000 )
                  (  0.0000000 -1.0000000  0.0000000 )
                  (  0.0000004  0.0000003  1.0000000 )


      isym =  3     inversion                                    

 cryst.   s( 3) = (    -1          0          0      )
                  (     0         -1          0      )
                  (     0          0         -1      )

 cart.    s( 3) = ( -1.0000000  0.0000000  0.0000000 )
                  (  0.0000000 -1.0000000  0.0000000 )
                  ( -0.0000000  0.0000000 -1.0000000 )


      isym =  4     inv. 180 deg rotation - cart. axis [0,0,1]   

 cryst.   s( 4) = (     1          0         -1      )
                  (     0          1         -1      )
                  (     0          0         -1      )

 cart.    s( 4) = (  1.0000000  0.0000000  0.0000000 )
                  (  0.0000000  1.0000000  0.0000000 )
                  ( -0.0000004 -0.0000003 -1.0000000 )


   Cartesian axes

     site n.     atom                  positions (alat units)
         1           Al  tau(   1) = (   0.0000000   0.0000000   0.0000000  )

   Crystallographic axes

     site n.     atom                  positions (cryst. coord.)
         1           Al  tau(   1) = (  0.0000000  0.0000000  0.0000000  )

     number of k points=  1098  Marzari-Vanderbilt smearing, width (Ry)=  0.0100
                       cart. coord. in units 2pi/alat
        k(    1) = (   0.0000000   0.0000000   0.0000000), wk =   0.0004883
        k(    2) = (  -0.0360844  -0.0255155   0.0625000), wk =   0.0019531
        k(    3) = (  -0.0721688  -0.0510310   0.1250000), wk =   0.0019531
        k(    4) = (  -0.1082531  -0.0765465   0.1875000), wk =   0.0019531
        k(    5) = (  -0.1443375  -0.1020620   0.2499999), wk =   0.0019531
        k(    6) = (  -0.1804219  -0.1275775   0.3124999), wk =   0.0019531
        k(    7) = (  -0.2165063  -0.1530930   0.3749999), wk =   0.0019531
        k(    8) = (  -0.2525906  -0.1786086   0.4374999), wk =   0.0019531
        k(    9) = (   0.2886750   0.2041241  -0.4999999), wk =   0.0009766
        k(   10) = (   0.0000000   0.0765466   0.0000000), wk =   0.0009766
        k(   11) = (  -0.0360844   0.0510310   0.0625000), wk =   0.0019531
        k(   12) = (  -0.0721688   0.0255155   0.1250000), wk =   0.0019531
        k(   13) = (  -0.1082531   0.0000000   0.1875000), wk =   0.0019531
        k(   14) = (  -0.1443375  -0.0255155   0.2499999), wk =   0.0019531
        k(   15) = (  -0.1804219  -0.0510310   0.3124999), wk =   0.0019531
        k(   16) = (  -0.2165063  -0.0765465   0.3749999), wk =   0.0019531
        k(   17) = (  -0.2525906  -0.1020620   0.4374999), wk =   0.0019531
        k(   18) = (   0.2886750   0.2806706  -0.4999999), wk =   0.0019531
        k(   19) = (   0.2525906   0.2551551  -0.4374999), wk =   0.0019531
        k(   20) = (   0.2165063   0.2296396  -0.3749999), wk =   0.0019531
        k(   21) = (   0.1804219   0.2041241  -0.3124999), wk =   0.0019531
        k(   22) = (   0.1443375   0.1786086  -0.2499999), wk =   0.0019531
        k(   23) = (   0.1082531   0.1530931  -0.1875000), wk =   0.0019531
        k(   24) = (   0.0721688   0.1275776  -0.1250000), wk =   0.0019531
        k(   25) = (   0.0360844   0.1020621  -0.0625000), wk =   0.0019531
        k(   26) = (   0.0000000   0.1530931   0.0000000), wk =   0.0009766
        k(   27) = (  -0.0360844   0.1275776   0.0625000), wk =   0.0019531
        k(   28) = (  -0.0721688   0.1020621   0.1250000), wk =   0.0019531
        k(   29) = (  -0.1082531   0.0765466   0.1875000), wk =   0.0019531
        k(   30) = (  -0.1443375   0.0510311   0.2499999), wk =   0.0019531
        k(   31) = (  -0.1804219   0.0255156   0.3124999), wk =   0.0019531
        k(   32) = (  -0.2165063   0.0000001   0.3749999), wk =   0.0019531
        k(   33) = (  -0.2525906  -0.0255155   0.4374999), wk =   0.0019531
        k(   34) = (   0.2886750   0.3572172  -0.4999999), wk =   0.0019531
        k(   35) = (   0.2525906   0.3317017  -0.4374999), wk =   0.0019531
        k(   36) = (   0.2165063   0.3061861  -0.3749999), wk =   0.0019531
        k(   37) = (   0.1804219   0.2806706  -0.3124999), wk =   0.0019531
        k(   38) = (   0.1443375   0.2551551  -0.2499999), wk =   0.0019531
        k(   39) = (   0.1082531   0.2296396  -0.1875000), wk =   0.0019531
        k(   40) = (   0.0721688   0.2041241  -0.1250000), wk =   0.0019531
        k(   41) = (   0.0360844   0.1786086  -0.0625000), wk =   0.0019531
        k(   42) = (   0.0000000   0.2296397   0.0000000), wk =   0.0009766
        k(   43) = (  -0.0360844   0.2041241   0.0625000), wk =   0.0019531
        k(   44) = (  -0.0721688   0.1786086   0.1250000), wk =   0.0019531
        k(   45) = (  -0.1082531   0.1530931   0.1875000), wk =   0.0019531
        k(   46) = (  -0.1443375   0.1275776   0.2499999), wk =   0.0019531
        k(   47) = (  -0.1804219   0.1020621   0.3124999), wk =   0.0019531
        k(   48) = (  -0.2165063   0.0765466   0.3749999), wk =   0.0019531
        k(   49) = (  -0.2525906   0.0510311   0.4374999), wk =   0.0019531
        k(   50) = (   0.2886750   0.4337637  -0.4999999), wk =   0.0019531
        k(   51) = (   0.2525906   0.4082482  -0.4374999), wk =   0.0019531
        k(   52) = (   0.2165063   0.3827327  -0.3749999), wk =   0.0019531
        k(   53) = (   0.1804219   0.3572172  -0.3124999), wk =   0.0019531
        k(   54) = (   0.1443375   0.3317017  -0.2499999), wk =   0.0019531
        k(   55) = (   0.1082531   0.3061862  -0.1875000), wk =   0.0019531
        k(   56) = (   0.0721688   0.2806707  -0.1250000), wk =   0.0019531
        k(   57) = (   0.0360844   0.2551552  -0.0625000), wk =   0.0019531
        k(   58) = (   0.0000000   0.3061862   0.0000000), wk =   0.0009766
        k(   59) = (  -0.0360844   0.2806707   0.0625000), wk =   0.0019531
        k(   60) = (  -0.0721688   0.2551552   0.1250000), wk =   0.0019531
        k(   61) = (  -0.1082531   0.2296397   0.1875000), wk =   0.0019531
        k(   62) = (  -0.1443375   0.2041242   0.2499999), wk =   0.0019531
        k(   63) = (  -0.1804219   0.1786087   0.3124999), wk =   0.0019531
        k(   64) = (  -0.2165063   0.1530932   0.3749999), wk =   0.0019531
        k(   65) = (  -0.2525906   0.1275776   0.4374999), wk =   0.0019531
        k(   66) = (   0.2886750   0.5103103  -0.4999999), wk =   0.0019531
        k(   67) = (   0.2525906   0.4847948  -0.4374999), wk =   0.0019531
        k(   68) = (   0.2165063   0.4592792  -0.3749999), wk =   0.0019531
        k(   69) = (   0.1804219   0.4337637  -0.3124999), wk =   0.0019531
        k(   70) = (   0.1443375   0.4082482  -0.2499999), wk =   0.0019531
        k(   71) = (   0.1082531   0.3827327  -0.1875000), wk =   0.0019531
        k(   72) = (   0.0721688   0.3572172  -0.1250000), wk =   0.0019531
        k(   73) = (   0.0360844   0.3317017  -0.0625000), wk =   0.0019531
        k(   74) = (   0.0000000   0.3827328   0.0000000), wk =   0.0009766
        k(   75) = (  -0.0360844   0.3572172   0.0625000), wk =   0.0019531
        k(   76) = (  -0.0721688   0.3317017   0.1250000), wk =   0.0019531
        k(   77) = (  -0.1082531   0.3061862   0.1875000), wk =   0.0019531
        k(   78) = (  -0.1443375   0.2806707   0.2499999), wk =   0.0019531
        k(   79) = (  -0.1804219   0.2551552   0.3124999), wk =   0.0019531
        k(   80) = (  -0.2165063   0.2296397   0.3749999), wk =   0.0019531
        k(   81) = (  -0.2525906   0.2041242   0.4374999), wk =   0.0019531
        k(   82) = (   0.2886750   0.5868568  -0.4999999), wk =   0.0019531
        k(   83) = (   0.2525906   0.5613413  -0.4374999), wk =   0.0019531
        k(   84) = (   0.2165063   0.5358258  -0.3749999), wk =   0.0019531
        k(   85) = (   0.1804219   0.5103103  -0.3124999), wk =   0.0019531
        k(   86) = (   0.1443375   0.4847948  -0.2499999), wk =   0.0019531
        k(   87) = (   0.1082531   0.4592793  -0.1875000), wk =   0.0019531
        k(   88) = (   0.0721688   0.4337638  -0.1250000), wk =   0.0019531
        k(   89) = (   0.0360844   0.4082483  -0.0625000), wk =   0.0019531
        k(   90) = (   0.0000000   0.4592793   0.0000000), wk =   0.0009766
        k(   91) = (  -0.0360844   0.4337638   0.0625000), wk =   0.0019531
        k(   92) = (  -0.0721688   0.4082483   0.1250000), wk =   0.0019531
        k(   93) = (  -0.1082531   0.3827328   0.1875000), wk =   0.0019531
        k(   94) = (  -0.1443375   0.3572173   0.2499999), wk =   0.0019531
        k(   95) = (  -0.1804219   0.3317018   0.3124999), wk =   0.0019531
        k(   96) = (  -0.2165063   0.3061863   0.3749999), wk =   0.0019531
        k(   97) = (  -0.2525906   0.2806707   0.4374999), wk =   0.0019531
        k(   98) = (   0.2886750   0.6634034  -0.4999999), wk =   0.0019531
        k(   99) = (   0.2525906   0.6378879  -0.4374999), wk =   0.0019531
        k(  100) = (   0.2165063   0.6123723  -0.3749999), wk =   0.0019531
        k(  101) = (   0.1804219   0.5868568  -0.3124999), wk =   0.0019531
        k(  102) = (   0.1443375   0.5613413  -0.2499999), wk =   0.0019531
        k(  103) = (   0.1082531   0.5358258  -0.1875000), wk =   0.0019531
        k(  104) = (   0.0721688   0.5103103  -0.1250000), wk =   0.0019531
        k(  105) = (   0.0360844   0.4847948  -0.0625000), wk =   0.0019531
        k(  106) = (   0.0000000   0.5358259   0.0000000), wk =   0.0009766
        k(  107) = (  -0.0360844   0.5103103   0.0625000), wk =   0.0019531
        k(  108) = (  -0.0721688   0.4847948   0.1250000), wk =   0.0019531
        k(  109) = (  -0.1082531   0.4592793   0.1875000), wk =   0.0019531
        k(  110) = (  -0.1443375   0.4337638   0.2499999), wk =   0.0019531
        k(  111) = (  -0.1804219   0.4082483   0.3124999), wk =   0.0019531
        k(  112) = (  -0.2165063   0.3827328   0.3749999), wk =   0.0019531
        k(  113) = (  -0.2525906   0.3572173   0.4374999), wk =   0.0019531
        k(  114) = (   0.2886750   0.7399499  -0.4999999), wk =   0.0019531
        k(  115) = (   0.2525906   0.7144344  -0.4374999), wk =   0.0019531
        k(  116) = (   0.2165063   0.6889189  -0.3749999), wk =   0.0019531
        k(  117) = (   0.1804219   0.6634034  -0.3124999), wk =   0.0019531
        k(  118) = (   0.1443375   0.6378879  -0.2499999), wk =   0.0019531
        k(  119) = (   0.1082531   0.6123724  -0.1875000), wk =   0.0019531
        k(  120) = (   0.0721688   0.5868569  -0.1250000), wk =   0.0019531
        k(  121) = (   0.0360844   0.5613414  -0.0625000), wk =   0.0019531
        k(  122) = (   0.0000000  -0.6123724   0.0000000), wk =   0.0004883
        k(  123) = (  -0.0360844  -0.6378879   0.0625000), wk =   0.0019531
        k(  124) = (  -0.0721688  -0.6634034   0.1250000), wk =   0.0019531
        k(  125) = (  -0.1082531  -0.6889189   0.1875000), wk =   0.0019531
        k(  126) = (  -0.1443375  -0.7144344   0.2499999), wk =   0.0019531
        k(  127) = (  -0.1804219  -0.7399499   0.3124999), wk =   0.0019531
        k(  128) = (  -0.2165063  -0.7654655   0.3749999), wk =   0.0019531
        k(  129) = (  -0.2525906  -0.7909810   0.4374999), wk =   0.0019531
        k(  130) = (   0.2886750  -0.4082483  -0.4999999), wk =   0.0009766
        k(  131) = (   0.0721688  -0.0255155   0.0000000), wk =   0.0009766
        k(  132) = (   0.0000000  -0.0765465   0.1250000), wk =   0.0019531
        k(  133) = (  -0.0360844  -0.1020620   0.1875000), wk =   0.0019531
        k(  134) = (  -0.0721687  -0.1275775   0.2499999), wk =   0.0019531
        k(  135) = (  -0.1082531  -0.1530931   0.3124999), wk =   0.0019531
        k(  136) = (  -0.1443375  -0.1786086   0.3749999), wk =   0.0019531
        k(  137) = (  -0.1804219  -0.2041241   0.4374999), wk =   0.0019531
        k(  138) = (   0.3608438   0.1786085  -0.4999999), wk =   0.0019531
        k(  139) = (   0.3247594   0.1530930  -0.4374999), wk =   0.0019531
        k(  140) = (   0.2886751   0.1275775  -0.3749999), wk =   0.0019531
        k(  141) = (   0.2525907   0.1020620  -0.3124999), wk =   0.0019531
        k(  142) = (   0.2165063   0.0765465  -0.2499999), wk =   0.0019531
        k(  143) = (   0.1804219   0.0510310  -0.1875000), wk =   0.0019531
        k(  144) = (   0.1443375   0.0255155  -0.1250000), wk =   0.0019531
        k(  145) = (   0.1082532  -0.0000000  -0.0625000), wk =   0.0019531
        k(  146) = (   0.0721688   0.0510310   0.0000000), wk =   0.0009766
        k(  147) = (   0.0000000   0.0000000   0.1250000), wk =   0.0009766
        k(  148) = (  -0.0360844  -0.0255155   0.1875000), wk =   0.0019531
        k(  149) = (  -0.0721687  -0.0510310   0.2499999), wk =   0.0019531
        k(  150) = (  -0.1082531  -0.0765465   0.3124999), wk =   0.0019531
        k(  151) = (  -0.1443375  -0.1020620   0.3749999), wk =   0.0019531
        k(  152) = (  -0.1804219  -0.1275775   0.4374999), wk =   0.0019531
        k(  153) = (   0.3608438   0.2551551  -0.4999999), wk =   0.0019531
        k(  154) = (   0.3247594   0.2296396  -0.4374999), wk =   0.0019531
        k(  155) = (   0.2886751   0.2041241  -0.3749999), wk =   0.0019531
        k(  156) = (   0.2525907   0.1786086  -0.3124999), wk =   0.0019531
        k(  157) = (   0.2165063   0.1530931  -0.2499999), wk =   0.0019531
        k(  158) = (   0.1804219   0.1275776  -0.1875000), wk =   0.0019531
        k(  159) = (   0.1443375   0.1020620  -0.1250000), wk =   0.0019531
        k(  160) = (   0.1082532   0.0765465  -0.0625000), wk =   0.0019531
        k(  161) = (   0.0721688   0.1275776   0.0000000), wk =   0.0009766
        k(  162) = (  -0.0360844   0.0510311   0.1875000), wk =   0.0019531
        k(  163) = (  -0.0721687   0.0255156   0.2499999), wk =   0.0019531
        k(  164) = (  -0.1082531   0.0000000   0.3124999), wk =   0.0019531
        k(  165) = (  -0.1443375  -0.0255155   0.3749999), wk =   0.0019531
        k(  166) = (  -0.1804219  -0.0510310   0.4374999), wk =   0.0019531
        k(  167) = (   0.3608438   0.3317016  -0.4999999), wk =   0.0019531
        k(  168) = (   0.3247594   0.3061861  -0.4374999), wk =   0.0019531
        k(  169) = (   0.2886751   0.2806706  -0.3749999), wk =   0.0019531
        k(  170) = (   0.2525907   0.2551551  -0.3124999), wk =   0.0019531
        k(  171) = (   0.2165063   0.2296396  -0.2499999), wk =   0.0019531
        k(  172) = (   0.1804219   0.2041241  -0.1875000), wk =   0.0019531
        k(  173) = (   0.1443375   0.1786086  -0.1250000), wk =   0.0019531
        k(  174) = (   0.1082532   0.1530931  -0.0625000), wk =   0.0019531
        k(  175) = (   0.0721688   0.2041241   0.0000000), wk =   0.0009766
        k(  176) = (   0.0000000   0.1530931   0.1250000), wk =   0.0019531
        k(  177) = (  -0.0360844   0.1275776   0.1875000), wk =   0.0019531
        k(  178) = (  -0.0721687   0.1020621   0.2499999), wk =   0.0019531
        k(  179) = (  -0.1082531   0.0765466   0.3124999), wk =   0.0019531
        k(  180) = (  -0.1443375   0.0510311   0.3749999), wk =   0.0019531
        k(  181) = (  -0.1804219   0.0255156   0.4374999), wk =   0.0019531
        k(  182) = (   0.3608438   0.4082482  -0.4999999), wk =   0.0019531
        k(  183) = (   0.3247594   0.3827327  -0.4374999), wk =   0.0019531
        k(  184) = (   0.2886751   0.3572172  -0.3749999), wk =   0.0019531
        k(  185) = (   0.2525907   0.3317017  -0.3124999), wk =   0.0019531
        k(  186) = (   0.2165063   0.3061862  -0.2499999), wk =   0.0019531
        k(  187) = (   0.1804219   0.2806707  -0.1875000), wk =   0.0019531
        k(  188) = (   0.1443375   0.2551552  -0.1250000), wk =   0.0019531
        k(  189) = (   0.1082532   0.2296396  -0.0625000), wk =   0.0019531
        k(  190) = (   0.0721688   0.2806707   0.0000000), wk =   0.0009766
        k(  191) = (   0.0000000   0.2296397   0.1250000), wk =   0.0019531
        k(  192) = (  -0.0360844   0.2041242   0.1875000), wk =   0.0019531
        k(  193) = (  -0.0721687   0.1786087   0.2499999), wk =   0.0019531
        k(  194) = (  -0.1082531   0.1530931   0.3124999), wk =   0.0019531
        k(  195) = (  -0.1443375   0.1275776   0.3749999), wk =   0.0019531
        k(  196) = (  -0.1804219   0.1020621   0.4374999), wk =   0.0019531
        k(  197) = (   0.3608438   0.4847947  -0.4999999), wk =   0.0019531
        k(  198) = (   0.3247594   0.4592792  -0.4374999), wk =   0.0019531
        k(  199) = (   0.2886751   0.4337637  -0.3749999), wk =   0.0019531
        k(  200) = (   0.2525907   0.4082482  -0.3124999), wk =   0.0019531
        k(  201) = (   0.2165063   0.3827327  -0.2499999), wk =   0.0019531
        k(  202) = (   0.1804219   0.3572172  -0.1875000), wk =   0.0019531
        k(  203) = (   0.1443375   0.3317017  -0.1250000), wk =   0.0019531
        k(  204) = (   0.1082532   0.3061862  -0.0625000), wk =   0.0019531
        k(  205) = (   0.0721688   0.3572172   0.0000000), wk =   0.0009766
        k(  206) = (   0.0000000   0.3061862   0.1250000), wk =   0.0019531
        k(  207) = (  -0.0360844   0.2806707   0.1875000), wk =   0.0019531
        k(  208) = (  -0.0721687   0.2551552   0.2499999), wk =   0.0019531
        k(  209) = (  -0.1082531   0.2296397   0.3124999), wk =   0.0019531
        k(  210) = (  -0.1443375   0.2041242   0.3749999), wk =   0.0019531
        k(  211) = (  -0.1804219   0.1786087   0.4374999), wk =   0.0019531
        k(  212) = (   0.3608438   0.5613413  -0.4999999), wk =   0.0019531
        k(  213) = (   0.3247594   0.5358258  -0.4374999), wk =   0.0019531
        k(  214) = (   0.2886751   0.5103103  -0.3749999), wk =   0.0019531
        k(  215) = (   0.2525907   0.4847948  -0.3124999), wk =   0.0019531
        k(  216) = (   0.2165063   0.4592793  -0.2499999), wk =   0.0019531
        k(  217) = (   0.1804219   0.4337638  -0.1875000), wk =   0.0019531
        k(  218) = (   0.1443375   0.4082483  -0.1250000), wk =   0.0019531
        k(  219) = (   0.1082532   0.3827327  -0.0625000), wk =   0.0019531
        k(  220) = (   0.0721688   0.4337638   0.0000000), wk =   0.0009766
        k(  221) = (   0.0000000   0.3827328   0.1250000), wk =   0.0019531
        k(  222) = (  -0.0360844   0.3572173   0.1875000), wk =   0.0019531
        k(  223) = (  -0.0721687   0.3317018   0.2499999), wk =   0.0019531
        k(  224) = (  -0.1082531   0.3061862   0.3124999), wk =   0.0019531
        k(  225) = (  -0.1443375   0.2806707   0.3749999), wk =   0.0019531
        k(  226) = (  -0.1804219   0.2551552   0.4374999), wk =   0.0019531
        k(  227) = (   0.3608438   0.6378878  -0.4999999), wk =   0.0019531
        k(  228) = (   0.3247594   0.6123723  -0.4374999), wk =   0.0019531
        k(  229) = (   0.2886751   0.5868568  -0.3749999), wk =   0.0019531
        k(  230) = (   0.2525907   0.5613413  -0.3124999), wk =   0.0019531
        k(  231) = (   0.2165063   0.5358258  -0.2499999), wk =   0.0019531
        k(  232) = (   0.1804219   0.5103103  -0.1875000), wk =   0.0019531
        k(  233) = (   0.1443375   0.4847948  -0.1250000), wk =   0.0019531
        k(  234) = (   0.1082532   0.4592793  -0.0625000), wk =   0.0019531
        k(  235) = (   0.0721688   0.5103103   0.0000000), wk =   0.0009766
        k(  236) = (   0.0000000   0.4592793   0.1250000), wk =   0.0019531
        k(  237) = (  -0.0360844   0.4337638   0.1875000), wk =   0.0019531
        k(  238) = (  -0.0721687   0.4082483   0.2499999), wk =   0.0019531
        k(  239) = (  -0.1082531   0.3827328   0.3124999), wk =   0.0019531
        k(  240) = (  -0.1443375   0.3572173   0.3749999), wk =   0.0019531
        k(  241) = (  -0.1804219   0.3317018   0.4374999), wk =   0.0019531
        k(  242) = (   0.3608438   0.7144344  -0.4999999), wk =   0.0019531
        k(  243) = (   0.3247594   0.6889189  -0.4374999), wk =   0.0019531
        k(  244) = (   0.2886751   0.6634034  -0.3749999), wk =   0.0019531
        k(  245) = (   0.2525907   0.6378879  -0.3124999), wk =   0.0019531
        k(  246) = (   0.2165063   0.6123724  -0.2499999), wk =   0.0019531
        k(  247) = (   0.1804219   0.5868569  -0.1875000), wk =   0.0019531
        k(  248) = (   0.1443375   0.5613414  -0.1250000), wk =   0.0019531
        k(  249) = (   0.1082532   0.5358258  -0.0625000), wk =   0.0019531
        k(  250) = (   0.0721688  -0.6378879   0.0000000), wk =   0.0009766
        k(  251) = (   0.0000000  -0.6889189   0.1250000), wk =   0.0019531
        k(  252) = (  -0.0360844  -0.7144344   0.1875000), wk =   0.0019531
        k(  253) = (  -0.0721687  -0.7399500   0.2499999), wk =   0.0019531
        k(  254) = (  -0.1082531  -0.7654655   0.3124999), wk =   0.0019531
        k(  255) = (  -0.1443375  -0.7909810   0.3749999), wk =   0.0019531
        k(  256) = (  -0.1804219  -0.8164965   0.4374999), wk =   0.0019531
        k(  257) = (   0.3608438  -0.4337639  -0.4999999), wk =   0.0019531
        k(  258) = (   0.3247594  -0.4592794  -0.4374999), wk =   0.0019531
        k(  259) = (   0.2886751  -0.4847949  -0.3749999), wk =   0.0019531
        k(  260) = (   0.2525907  -0.5103104  -0.3124999), wk =   0.0019531
        k(  261) = (   0.2165063  -0.5358259  -0.2499999), wk =   0.0019531
        k(  262) = (   0.1804219  -0.5613414  -0.1875000), wk =   0.0019531
        k(  263) = (   0.1443375  -0.5868569  -0.1250000), wk =   0.0019531
        k(  264) = (   0.1082532  -0.6123724  -0.0625000), wk =   0.0019531
        k(  265) = (   0.0721688  -0.5613414   0.0000000), wk =   0.0009766
        k(  266) = (   0.0000000  -0.6123724   0.1250000), wk =   0.0009766
        k(  267) = (  -0.0360844  -0.6378879   0.1875000), wk =   0.0019531
        k(  268) = (  -0.0721687  -0.6634034   0.2499999), wk =   0.0019531
        k(  269) = (  -0.1082531  -0.6889189   0.3124999), wk =   0.0019531
        k(  270) = (  -0.1443375  -0.7144344   0.3749999), wk =   0.0019531
        k(  271) = (  -0.1804219  -0.7399499   0.4374999), wk =   0.0019531
        k(  272) = (   0.3608438  -0.3572173  -0.4999999), wk =   0.0019531
        k(  273) = (   0.3247594  -0.3827328  -0.4374999), wk =   0.0019531
        k(  274) = (   0.2886751  -0.4082483  -0.3749999), wk =   0.0019531
        k(  275) = (   0.2525907  -0.4337638  -0.3124999), wk =   0.0019531
        k(  276) = (   0.2165063  -0.4592793  -0.2499999), wk =   0.0019531
        k(  277) = (   0.1804219  -0.4847948  -0.1875000), wk =   0.0019531
        k(  278) = (   0.1443375  -0.5103104  -0.1250000), wk =   0.0019531
        k(  279) = (   0.1082532  -0.5358259  -0.0625000), wk =   0.0019531
        k(  280) = (   0.0721688  -0.4847948   0.0000000), wk =   0.0009766
        k(  281) = (  -0.0360844  -0.5613413   0.1875000), wk =   0.0019531
        k(  282) = (  -0.0721687  -0.5868569   0.2499999), wk =   0.0019531
        k(  283) = (  -0.1082531  -0.6123724   0.3124999), wk =   0.0019531
        k(  284) = (  -0.1443375  -0.6378879   0.3749999), wk =   0.0019531
        k(  285) = (  -0.1804219  -0.6634034   0.4374999), wk =   0.0019531
        k(  286) = (   0.3608438  -0.2806708  -0.4999999), wk =   0.0019531
        k(  287) = (   0.3247594  -0.3061863  -0.4374999), wk =   0.0019531
        k(  288) = (   0.2886751  -0.3317018  -0.3749999), wk =   0.0019531
        k(  289) = (   0.2525907  -0.3572173  -0.3124999), wk =   0.0019531
        k(  290) = (   0.2165063  -0.3827328  -0.2499999), wk =   0.0019531
        k(  291) = (   0.1804219  -0.4082483  -0.1875000), wk =   0.0019531
        k(  292) = (   0.1443375  -0.4337638  -0.1250000), wk =   0.0019531
        k(  293) = (   0.1082532  -0.4592793  -0.0625000), wk =   0.0019531
        k(  294) = (   0.0721688  -0.4082483   0.0000000), wk =   0.0009766
        k(  295) = (  -0.0360844  -0.4847948   0.1875000), wk =   0.0019531
        k(  296) = (  -0.0721687  -0.5103103   0.2499999), wk =   0.0019531
        k(  297) = (  -0.1082531  -0.5358258   0.3124999), wk =   0.0019531
        k(  298) = (  -0.1443375  -0.5613413   0.3749999), wk =   0.0019531
        k(  299) = (  -0.1804219  -0.5868568   0.4374999), wk =   0.0019531
        k(  300) = (   0.3608438  -0.2041242  -0.4999999), wk =   0.0019531
        k(  301) = (   0.3247594  -0.2296397  -0.4374999), wk =   0.0019531
        k(  302) = (   0.2886751  -0.2551552  -0.3749999), wk =   0.0019531
        k(  303) = (   0.2525907  -0.2806707  -0.3124999), wk =   0.0019531
        k(  304) = (   0.2165063  -0.3061862  -0.2499999), wk =   0.0019531
        k(  305) = (   0.1804219  -0.3317017  -0.1875000), wk =   0.0019531
        k(  306) = (   0.1443375  -0.3572173  -0.1250000), wk =   0.0019531
        k(  307) = (   0.1082532  -0.3827328  -0.0625000), wk =   0.0019531
        k(  308) = (   0.0721688  -0.3317017   0.0000000), wk =   0.0009766
        k(  309) = (  -0.0360844  -0.4082482   0.1875000), wk =   0.0019531
        k(  310) = (  -0.0721687  -0.4337638   0.2499999), wk =   0.0019531
        k(  311) = (  -0.1082531  -0.4592793   0.3124999), wk =   0.0019531
        k(  312) = (  -0.1443375  -0.4847948   0.3749999), wk =   0.0019531
        k(  313) = (  -0.1804219  -0.5103103   0.4374999), wk =   0.0019531
        k(  314) = (   0.3608438  -0.1275777  -0.4999999), wk =   0.0019531
        k(  315) = (   0.3247594  -0.1530932  -0.4374999), wk =   0.0019531
        k(  316) = (   0.2886751  -0.1786087  -0.3749999), wk =   0.0019531
        k(  317) = (   0.2525907  -0.2041242  -0.3124999), wk =   0.0019531
        k(  318) = (   0.2165063  -0.2296397  -0.2499999), wk =   0.0019531
        k(  319) = (   0.1804219  -0.2551552  -0.1875000), wk =   0.0019531
        k(  320) = (   0.1443375  -0.2806707  -0.1250000), wk =   0.0019531
        k(  321) = (   0.1082532  -0.3061862  -0.0625000), wk =   0.0019531
        k(  322) = (   0.0721688  -0.2551552   0.0000000), wk =   0.0009766
        k(  323) = (  -0.0360844  -0.3317017   0.1875000), wk =   0.0019531
        k(  324) = (  -0.0721687  -0.3572172   0.2499999), wk =   0.0019531
        k(  325) = (  -0.1082531  -0.3827327   0.3124999), wk =   0.0019531
        k(  326) = (  -0.1443375  -0.4082482   0.3749999), wk =   0.0019531
        k(  327) = (  -0.1804219  -0.4337637   0.4374999), wk =   0.0019531
        k(  328) = (   0.3608438  -0.0510311  -0.4999999), wk =   0.0019531
        k(  329) = (   0.3247594  -0.0765466  -0.4374999), wk =   0.0019531
        k(  330) = (   0.2886751  -0.1020621  -0.3749999), wk =   0.0019531
        k(  331) = (   0.2525907  -0.1275776  -0.3124999), wk =   0.0019531
        k(  332) = (   0.2165063  -0.1530931  -0.2499999), wk =   0.0019531
        k(  333) = (   0.1804219  -0.1786086  -0.1875000), wk =   0.0019531
        k(  334) = (   0.1443375  -0.2041242  -0.1250000), wk =   0.0019531
        k(  335) = (   0.1082532  -0.2296397  -0.0625000), wk =   0.0019531
        k(  336) = (   0.0721688  -0.1786086   0.0000000), wk =   0.0009766
        k(  337) = (  -0.0360844  -0.2551551   0.1875000), wk =   0.0019531
        k(  338) = (  -0.0721687  -0.2806706   0.2499999), wk =   0.0019531
        k(  339) = (  -0.1082531  -0.3061862   0.3124999), wk =   0.0019531
        k(  340) = (  -0.1443375  -0.3317017   0.3749999), wk =   0.0019531
        k(  341) = (  -0.1804219  -0.3572172   0.4374999), wk =   0.0019531
        k(  342) = (   0.3608438   0.0255154  -0.4999999), wk =   0.0019531
        k(  343) = (   0.3247594  -0.0000001  -0.4374999), wk =   0.0019531
        k(  344) = (   0.2886751  -0.0255156  -0.3749999), wk =   0.0019531
        k(  345) = (   0.2525907  -0.0510311  -0.3124999), wk =   0.0019531
        k(  346) = (   0.2165063  -0.0765466  -0.2499999), wk =   0.0019531
        k(  347) = (   0.1804219  -0.1020621  -0.1875000), wk =   0.0019531
        k(  348) = (   0.1443375  -0.1275776  -0.1250000), wk =   0.0019531
        k(  349) = (   0.1082532  -0.1530931  -0.0625000), wk =   0.0019531
        k(  350) = (   0.0721688  -0.1020621   0.0000000), wk =   0.0009766
        k(  351) = (  -0.0360844  -0.1786086   0.1875000), wk =   0.0019531
        k(  352) = (  -0.0721687  -0.2041241   0.2499999), wk =   0.0019531
        k(  353) = (  -0.1082531  -0.2296396   0.3124999), wk =   0.0019531
        k(  354) = (  -0.1443375  -0.2551551   0.3749999), wk =   0.0019531
        k(  355) = (  -0.1804219  -0.2806706   0.4374999), wk =   0.0019531
        k(  356) = (   0.3608438   0.1020620  -0.4999999), wk =   0.0019531
        k(  357) = (   0.3247594   0.0765465  -0.4374999), wk =   0.0019531
        k(  358) = (   0.2886751   0.0510310  -0.3749999), wk =   0.0019531
        k(  359) = (   0.2525907   0.0255155  -0.3124999), wk =   0.0019531
        k(  360) = (   0.2165063  -0.0000000  -0.2499999), wk =   0.0019531
        k(  361) = (   0.1804219  -0.0255155  -0.1875000), wk =   0.0019531
        k(  362) = (   0.1443375  -0.0510311  -0.1250000), wk =   0.0019531
        k(  363) = (   0.1082532  -0.0765466  -0.0625000), wk =   0.0019531
        k(  364) = (   0.1443376  -0.0510310   0.0000000), wk =   0.0009766
        k(  365) = (   0.0000001  -0.1530931   0.2499999), wk =   0.0019531
        k(  366) = (  -0.0360843  -0.1786086   0.3124999), wk =   0.0019531
        k(  367) = (  -0.0721687  -0.2041241   0.3749999), wk =   0.0019531
        k(  368) = (  -0.1082531  -0.2296396   0.4374999), wk =   0.0019531
        k(  369) = (   0.4330126   0.1530930  -0.4999999), wk =   0.0019531
        k(  370) = (   0.3969282   0.1275775  -0.4374999), wk =   0.0019531
        k(  371) = (   0.3608438   0.1020620  -0.3749999), wk =   0.0019531
        k(  372) = (   0.3247595   0.0765465  -0.3124999), wk =   0.0019531
        k(  373) = (   0.2886751   0.0510310  -0.2499999), wk =   0.0019531
        k(  374) = (   0.2525907   0.0255155  -0.1875000), wk =   0.0019531
        k(  375) = (   0.2165063  -0.0000000  -0.1250000), wk =   0.0019531
        k(  376) = (   0.1804219  -0.0255155  -0.0625000), wk =   0.0019531
        k(  377) = (   0.1443376   0.0255155   0.0000000), wk =   0.0009766
        k(  378) = (   0.0000001  -0.0765465   0.2499999), wk =   0.0019531
        k(  379) = (  -0.0360843  -0.1020620   0.3124999), wk =   0.0019531
        k(  380) = (  -0.0721687  -0.1275775   0.3749999), wk =   0.0019531
        k(  381) = (  -0.1082531  -0.1530930   0.4374999), wk =   0.0019531
        k(  382) = (   0.4330126   0.2296396  -0.4999999), wk =   0.0019531
        k(  383) = (   0.3969282   0.2041241  -0.4374999), wk =   0.0019531
        k(  384) = (   0.3608438   0.1786086  -0.3749999), wk =   0.0019531
        k(  385) = (   0.3247595   0.1530931  -0.3124999), wk =   0.0019531
        k(  386) = (   0.2886751   0.1275775  -0.2499999), wk =   0.0019531
        k(  387) = (   0.2525907   0.1020620  -0.1875000), wk =   0.0019531
        k(  388) = (   0.2165063   0.0765465  -0.1250000), wk =   0.0019531
        k(  389) = (   0.1804219   0.0510310  -0.0625000), wk =   0.0019531
        k(  390) = (   0.1443376   0.1020621   0.0000000), wk =   0.0009766
        k(  391) = (   0.0000001   0.0000000   0.2499999), wk =   0.0009766
        k(  392) = (  -0.0360843  -0.0255155   0.3124999), wk =   0.0019531
        k(  393) = (  -0.0721687  -0.0510310   0.3749999), wk =   0.0019531
        k(  394) = (  -0.1082531  -0.0765465   0.4374999), wk =   0.0019531
        k(  395) = (   0.4330126   0.3061861  -0.4999999), wk =   0.0019531
        k(  396) = (   0.3969282   0.2806706  -0.4374999), wk =   0.0019531
        k(  397) = (   0.3608438   0.2551551  -0.3749999), wk =   0.0019531
        k(  398) = (   0.3247595   0.2296396  -0.3124999), wk =   0.0019531
        k(  399) = (   0.2886751   0.2041241  -0.2499999), wk =   0.0019531
        k(  400) = (   0.2525907   0.1786086  -0.1875000), wk =   0.0019531
        k(  401) = (   0.2165063   0.1530931  -0.1250000), wk =   0.0019531
        k(  402) = (   0.1804219   0.1275776  -0.0625000), wk =   0.0019531
        k(  403) = (   0.1443376   0.1786086   0.0000000), wk =   0.0009766
        k(  404) = (  -0.0360843   0.0510311   0.3124999), wk =   0.0019531
        k(  405) = (  -0.0721687   0.0255156   0.3749999), wk =   0.0019531
        k(  406) = (  -0.1082531   0.0000001   0.4374999), wk =   0.0019531
        k(  407) = (   0.4330126   0.3827327  -0.4999999), wk =   0.0019531
        k(  408) = (   0.3969282   0.3572172  -0.4374999), wk =   0.0019531
        k(  409) = (   0.3608438   0.3317017  -0.3749999), wk =   0.0019531
        k(  410) = (   0.3247595   0.3061862  -0.3124999), wk =   0.0019531
        k(  411) = (   0.2886751   0.2806706  -0.2499999), wk =   0.0019531
        k(  412) = (   0.2525907   0.2551551  -0.1875000), wk =   0.0019531
        k(  413) = (   0.2165063   0.2296396  -0.1250000), wk =   0.0019531
        k(  414) = (   0.1804219   0.2041241  -0.0625000), wk =   0.0019531
        k(  415) = (   0.1443376   0.2551552   0.0000000), wk =   0.0009766
        k(  416) = (  -0.0360843   0.1275776   0.3124999), wk =   0.0019531
        k(  417) = (  -0.0721687   0.1020621   0.3749999), wk =   0.0019531
        k(  418) = (  -0.1082531   0.0765466   0.4374999), wk =   0.0019531
        k(  419) = (   0.4330126   0.4592792  -0.4999999), wk =   0.0019531
        k(  420) = (   0.3969282   0.4337637  -0.4374999), wk =   0.0019531
        k(  421) = (   0.3608438   0.4082482  -0.3749999), wk =   0.0019531
        k(  422) = (   0.3247595   0.3827327  -0.3124999), wk =   0.0019531
        k(  423) = (   0.2886751   0.3572172  -0.2499999), wk =   0.0019531
        k(  424) = (   0.2525907   0.3317017  -0.1875000), wk =   0.0019531
        k(  425) = (   0.2165063   0.3061862  -0.1250000), wk =   0.0019531
        k(  426) = (   0.1804219   0.2806707  -0.0625000), wk =   0.0019531
        k(  427) = (   0.1443376   0.3317017   0.0000000), wk =   0.0009766
        k(  428) = (   0.0000001   0.2296397   0.2499999), wk =   0.0019531
        k(  429) = (  -0.0360843   0.2041242   0.3124999), wk =   0.0019531
        k(  430) = (  -0.0721687   0.1786087   0.3749999), wk =   0.0019531
        k(  431) = (  -0.1082531   0.1530932   0.4374999), wk =   0.0019531
        k(  432) = (   0.4330126   0.5358258  -0.4999999), wk =   0.0019531
        k(  433) = (   0.3969282   0.5103103  -0.4374999), wk =   0.0019531
        k(  434) = (   0.3608438   0.4847948  -0.3749999), wk =   0.0019531
        k(  435) = (   0.3247595   0.4592793  -0.3124999), wk =   0.0019531
        k(  436) = (   0.2886751   0.4337638  -0.2499999), wk =   0.0019531
        k(  437) = (   0.2525907   0.4082482  -0.1875000), wk =   0.0019531
        k(  438) = (   0.2165063   0.3827327  -0.1250000), wk =   0.0019531
        k(  439) = (   0.1804219   0.3572172  -0.0625000), wk =   0.0019531
        k(  440) = (   0.1443376   0.4082483   0.0000000), wk =   0.0009766
        k(  441) = (   0.0000001   0.3061862   0.2499999), wk =   0.0019531
        k(  442) = (  -0.0360843   0.2806707   0.3124999), wk =   0.0019531
        k(  443) = (  -0.0721687   0.2551552   0.3749999), wk =   0.0019531
        k(  444) = (  -0.1082531   0.2296397   0.4374999), wk =   0.0019531
        k(  445) = (   0.4330126   0.6123723  -0.4999999), wk =   0.0019531
        k(  446) = (   0.3969282   0.5868568  -0.4374999), wk =   0.0019531
        k(  447) = (   0.3608438   0.5613413  -0.3749999), wk =   0.0019531
        k(  448) = (   0.3247595   0.5358258  -0.3124999), wk =   0.0019531
        k(  449) = (   0.2886751   0.5103103  -0.2499999), wk =   0.0019531
        k(  450) = (   0.2525907   0.4847948  -0.1875000), wk =   0.0019531
        k(  451) = (   0.2165063   0.4592793  -0.1250000), wk =   0.0019531
        k(  452) = (   0.1804219   0.4337638  -0.0625000), wk =   0.0019531
        k(  453) = (   0.1443376   0.4847948   0.0000000), wk =   0.0009766
        k(  454) = (   0.0000001   0.3827328   0.2499999), wk =   0.0019531
        k(  455) = (  -0.0360843   0.3572173   0.3124999), wk =   0.0019531
        k(  456) = (  -0.0721687   0.3317018   0.3749999), wk =   0.0019531
        k(  457) = (  -0.1082531   0.3061863   0.4374999), wk =   0.0019531
        k(  458) = (   0.4330126   0.6889189  -0.4999999), wk =   0.0019531
        k(  459) = (   0.3969282   0.6634034  -0.4374999), wk =   0.0019531
        k(  460) = (   0.3608438   0.6378879  -0.3749999), wk =   0.0019531
        k(  461) = (   0.3247595   0.6123724  -0.3124999), wk =   0.0019531
        k(  462) = (   0.2886751   0.5868569  -0.2499999), wk =   0.0019531
        k(  463) = (   0.2525907   0.5613413  -0.1875000), wk =   0.0019531
        k(  464) = (   0.2165063   0.5358258  -0.1250000), wk =   0.0019531
        k(  465) = (   0.1804219   0.5103103  -0.0625000), wk =   0.0019531
        k(  466) = (   0.1443376  -0.6634034   0.0000000), wk =   0.0009766
        k(  467) = (   0.0000001  -0.7654655   0.2499999), wk =   0.0019531
        k(  468) = (  -0.0360843  -0.7909810   0.3124999), wk =   0.0019531
        k(  469) = (  -0.0721687  -0.8164965   0.3749999), wk =   0.0019531
        k(  470) = (  -0.1082531  -0.8420120   0.4374999), wk =   0.0019531
        k(  471) = (   0.4330126  -0.4592794  -0.4999999), wk =   0.0019531
        k(  472) = (   0.3969282  -0.4847949  -0.4374999), wk =   0.0019531
        k(  473) = (   0.3608438  -0.5103104  -0.3749999), wk =   0.0019531
        k(  474) = (   0.3247595  -0.5358259  -0.3124999), wk =   0.0019531
        k(  475) = (   0.2886751  -0.5613414  -0.2499999), wk =   0.0019531
        k(  476) = (   0.2525907  -0.5868569  -0.1875000), wk =   0.0019531
        k(  477) = (   0.2165063  -0.6123724  -0.1250000), wk =   0.0019531
        k(  478) = (   0.1804219  -0.6378879  -0.0625000), wk =   0.0019531
        k(  479) = (   0.1443376  -0.5868569   0.0000000), wk =   0.0009766
        k(  480) = (   0.0000001  -0.6889189   0.2499999), wk =   0.0019531
        k(  481) = (  -0.0360843  -0.7144344   0.3124999), wk =   0.0019531
        k(  482) = (  -0.0721687  -0.7399499   0.3749999), wk =   0.0019531
        k(  483) = (  -0.1082531  -0.7654654   0.4374999), wk =   0.0019531
        k(  484) = (   0.4330126  -0.3827328  -0.4999999), wk =   0.0019531
        k(  485) = (   0.3969282  -0.4082483  -0.4374999), wk =   0.0019531
        k(  486) = (   0.3608438  -0.4337638  -0.3749999), wk =   0.0019531
        k(  487) = (   0.3247595  -0.4592793  -0.3124999), wk =   0.0019531
        k(  488) = (   0.2886751  -0.4847949  -0.2499999), wk =   0.0019531
        k(  489) = (   0.2525907  -0.5103104  -0.1875000), wk =   0.0019531
        k(  490) = (   0.2165063  -0.5358259  -0.1250000), wk =   0.0019531
        k(  491) = (   0.1804219  -0.5613414  -0.0625000), wk =   0.0019531
        k(  492) = (   0.1443376  -0.5103103   0.0000000), wk =   0.0009766
        k(  493) = (   0.0000001  -0.6123724   0.2499999), wk =   0.0009766
        k(  494) = (  -0.0360843  -0.6378879   0.3124999), wk =   0.0019531
        k(  495) = (  -0.0721687  -0.6634034   0.3749999), wk =   0.0019531
        k(  496) = (  -0.1082531  -0.6889189   0.4374999), wk =   0.0019531
        k(  497) = (   0.4330126  -0.3061863  -0.4999999), wk =   0.0019531
        k(  498) = (   0.3969282  -0.3317018  -0.4374999), wk =   0.0019531
        k(  499) = (   0.3608438  -0.3572173  -0.3749999), wk =   0.0019531
        k(  500) = (   0.3247595  -0.3827328  -0.3124999), wk =   0.0019531
        k(  501) = (   0.2886751  -0.4082483  -0.2499999), wk =   0.0019531
        k(  502) = (   0.2525907  -0.4337638  -0.1875000), wk =   0.0019531
        k(  503) = (   0.2165063  -0.4592793  -0.1250000), wk =   0.0019531
        k(  504) = (   0.1804219  -0.4847948  -0.0625000), wk =   0.0019531
        k(  505) = (   0.1443376  -0.4337638   0.0000000), wk =   0.0009766
        k(  506) = (  -0.0360843  -0.5613413   0.3124999), wk =   0.0019531
        k(  507) = (  -0.0721687  -0.5868568   0.3749999), wk =   0.0019531
        k(  508) = (  -0.1082531  -0.6123723   0.4374999), wk =   0.0019531
        k(  509) = (   0.4330126  -0.2296397  -0.4999999), wk =   0.0019531
        k(  510) = (   0.3969282  -0.2551552  -0.4374999), wk =   0.0019531
        k(  511) = (   0.3608438  -0.2806707  -0.3749999), wk =   0.0019531
        k(  512) = (   0.3247595  -0.3061862  -0.3124999), wk =   0.0019531
        k(  513) = (   0.2886751  -0.3317018  -0.2499999), wk =   0.0019531
        k(  514) = (   0.2525907  -0.3572173  -0.1875000), wk =   0.0019531
        k(  515) = (   0.2165063  -0.3827328  -0.1250000), wk =   0.0019531
        k(  516) = (   0.1804219  -0.4082483  -0.0625000), wk =   0.0019531
        k(  517) = (   0.1443376  -0.3572172   0.0000000), wk =   0.0009766
        k(  518) = (  -0.0360843  -0.4847948   0.3124999), wk =   0.0019531
        k(  519) = (  -0.0721687  -0.5103103   0.3749999), wk =   0.0019531
        k(  520) = (  -0.1082531  -0.5358258   0.4374999), wk =   0.0019531
        k(  521) = (   0.4330126  -0.1530932  -0.4999999), wk =   0.0019531
        k(  522) = (   0.3969282  -0.1786087  -0.4374999), wk =   0.0019531
        k(  523) = (   0.3608438  -0.2041242  -0.3749999), wk =   0.0019531
        k(  524) = (   0.3247595  -0.2296397  -0.3124999), wk =   0.0019531
        k(  525) = (   0.2886751  -0.2551552  -0.2499999), wk =   0.0019531
        k(  526) = (   0.2525907  -0.2806707  -0.1875000), wk =   0.0019531
        k(  527) = (   0.2165063  -0.3061862  -0.1250000), wk =   0.0019531
        k(  528) = (   0.1804219  -0.3317017  -0.0625000), wk =   0.0019531
        k(  529) = (   0.1443376  -0.2806707   0.0000000), wk =   0.0009766
        k(  530) = (  -0.0360843  -0.4082482   0.3124999), wk =   0.0019531
        k(  531) = (  -0.0721687  -0.4337637   0.3749999), wk =   0.0019531
        k(  532) = (  -0.1082531  -0.4592792   0.4374999), wk =   0.0019531
        k(  533) = (   0.4330126  -0.0765466  -0.4999999), wk =   0.0019531
        k(  534) = (   0.3969282  -0.1020621  -0.4374999), wk =   0.0019531
        k(  535) = (   0.3608438  -0.1275776  -0.3749999), wk =   0.0019531
        k(  536) = (   0.3247595  -0.1530931  -0.3124999), wk =   0.0019531
        k(  537) = (   0.2886751  -0.1786087  -0.2499999), wk =   0.0019531
        k(  538) = (   0.2525907  -0.2041242  -0.1875000), wk =   0.0019531
        k(  539) = (   0.2165063  -0.2296397  -0.1250000), wk =   0.0019531
        k(  540) = (   0.1804219  -0.2551552  -0.0625000), wk =   0.0019531
        k(  541) = (   0.1443376  -0.2041241   0.0000000), wk =   0.0009766
        k(  542) = (  -0.0360843  -0.3317017   0.3124999), wk =   0.0019531
        k(  543) = (  -0.0721687  -0.3572172   0.3749999), wk =   0.0019531
        k(  544) = (  -0.1082531  -0.3827327   0.4374999), wk =   0.0019531
        k(  545) = (   0.4330126  -0.0000001  -0.4999999), wk =   0.0019531
        k(  546) = (   0.3969282  -0.0255156  -0.4374999), wk =   0.0019531
        k(  547) = (   0.3608438  -0.0510311  -0.3749999), wk =   0.0019531
        k(  548) = (   0.3247595  -0.0765466  -0.3124999), wk =   0.0019531
        k(  549) = (   0.2886751  -0.1020621  -0.2499999), wk =   0.0019531
        k(  550) = (   0.2525907  -0.1275776  -0.1875000), wk =   0.0019531
        k(  551) = (   0.2165063  -0.1530931  -0.1250000), wk =   0.0019531
        k(  552) = (   0.1804219  -0.1786086  -0.0625000), wk =   0.0019531
        k(  553) = (   0.1443376  -0.1275776   0.0000000), wk =   0.0009766
        k(  554) = (  -0.0360843  -0.2551551   0.3124999), wk =   0.0019531
        k(  555) = (  -0.0721687  -0.2806706   0.3749999), wk =   0.0019531
        k(  556) = (  -0.1082531  -0.3061861   0.4374999), wk =   0.0019531
        k(  557) = (   0.4330126   0.0765465  -0.4999999), wk =   0.0019531
        k(  558) = (   0.3969282   0.0510310  -0.4374999), wk =   0.0019531
        k(  559) = (   0.3608438   0.0255155  -0.3749999), wk =   0.0019531
        k(  560) = (   0.3247595  -0.0000000  -0.3124999), wk =   0.0019531
        k(  561) = (   0.2886751  -0.0255156  -0.2499999), wk =   0.0019531
        k(  562) = (   0.2525907  -0.0510311  -0.1875000), wk =   0.0019531
        k(  563) = (   0.2165063  -0.0765466  -0.1250000), wk =   0.0019531
        k(  564) = (   0.1804219  -0.1020621  -0.0625000), wk =   0.0019531
        k(  565) = (   0.2165063  -0.0765466   0.0000000), wk =   0.0009766
        k(  566) = (   0.0000001  -0.2296396   0.3749999), wk =   0.0019531
        k(  567) = (  -0.0360843  -0.2551551   0.4374999), wk =   0.0019531
        k(  568) = (   0.5051814   0.1275775  -0.4999999), wk =   0.0019531
        k(  569) = (   0.4690970   0.1020620  -0.4374999), wk =   0.0019531
        k(  570) = (   0.4330126   0.0765465  -0.3749999), wk =   0.0019531
        k(  571) = (   0.3969282   0.0510310  -0.3124999), wk =   0.0019531
        k(  572) = (   0.3608439   0.0255155  -0.2499999), wk =   0.0019531
        k(  573) = (   0.3247595  -0.0000000  -0.1875000), wk =   0.0019531
        k(  574) = (   0.2886751  -0.0255155  -0.1250000), wk =   0.0019531
        k(  575) = (   0.2525907  -0.0510310  -0.0625000), wk =   0.0019531
        k(  576) = (   0.2165063   0.0000000   0.0000000), wk =   0.0009766
        k(  577) = (   0.0000001  -0.1530930   0.3749999), wk =   0.0019531
        k(  578) = (  -0.0360843  -0.1786086   0.4374999), wk =   0.0019531
        k(  579) = (   0.5051814   0.2041241  -0.4999999), wk =   0.0019531
        k(  580) = (   0.4690970   0.1786086  -0.4374999), wk =   0.0019531
        k(  581) = (   0.4330126   0.1530930  -0.3749999), wk =   0.0019531
        k(  582) = (   0.3969282   0.1275775  -0.3124999), wk =   0.0019531
        k(  583) = (   0.3608439   0.1020620  -0.2499999), wk =   0.0019531
        k(  584) = (   0.3247595   0.0765465  -0.1875000), wk =   0.0019531
        k(  585) = (   0.2886751   0.0510310  -0.1250000), wk =   0.0019531
        k(  586) = (   0.2525907   0.0255155  -0.0625000), wk =   0.0019531
        k(  587) = (   0.2165063   0.0765466   0.0000000), wk =   0.0009766
        k(  588) = (   0.0000001  -0.0765465   0.3749999), wk =   0.0019531
        k(  589) = (  -0.0360843  -0.1020620   0.4374999), wk =   0.0019531
        k(  590) = (   0.5051814   0.2806706  -0.4999999), wk =   0.0019531
        k(  591) = (   0.4690970   0.2551551  -0.4374999), wk =   0.0019531
        k(  592) = (   0.4330126   0.2296396  -0.3749999), wk =   0.0019531
        k(  593) = (   0.3969282   0.2041241  -0.3124999), wk =   0.0019531
        k(  594) = (   0.3608439   0.1786086  -0.2499999), wk =   0.0019531
        k(  595) = (   0.3247595   0.1530931  -0.1875000), wk =   0.0019531
        k(  596) = (   0.2886751   0.1275776  -0.1250000), wk =   0.0019531
        k(  597) = (   0.2525907   0.1020621  -0.0625000), wk =   0.0019531
        k(  598) = (   0.2165063   0.1530931   0.0000000), wk =   0.0009766
        k(  599) = (   0.0000001   0.0000001   0.3749999), wk =   0.0009766
        k(  600) = (  -0.0360843  -0.0255155   0.4374999), wk =   0.0019531
        k(  601) = (   0.5051814   0.3572172  -0.4999999), wk =   0.0019531
        k(  602) = (   0.4690970   0.3317017  -0.4374999), wk =   0.0019531
        k(  603) = (   0.4330126   0.3061861  -0.3749999), wk =   0.0019531
        k(  604) = (   0.3969282   0.2806706  -0.3124999), wk =   0.0019531
        k(  605) = (   0.3608439   0.2551551  -0.2499999), wk =   0.0019531
        k(  606) = (   0.3247595   0.2296396  -0.1875000), wk =   0.0019531
        k(  607) = (   0.2886751   0.2041241  -0.1250000), wk =   0.0019531
        k(  608) = (   0.2525907   0.1786086  -0.0625000), wk =   0.0019531
        k(  609) = (   0.2165063   0.2296397   0.0000000), wk =   0.0009766
        k(  610) = (  -0.0360843   0.0510311   0.4374999), wk =   0.0019531
        k(  611) = (   0.5051814   0.4337637  -0.4999999), wk =   0.0019531
        k(  612) = (   0.4690970   0.4082482  -0.4374999), wk =   0.0019531
        k(  613) = (   0.4330126   0.3827327  -0.3749999), wk =   0.0019531
        k(  614) = (   0.3969282   0.3572172  -0.3124999), wk =   0.0019531
        k(  615) = (   0.3608439   0.3317017  -0.2499999), wk =   0.0019531
        k(  616) = (   0.3247595   0.3061862  -0.1875000), wk =   0.0019531
        k(  617) = (   0.2886751   0.2806707  -0.1250000), wk =   0.0019531
        k(  618) = (   0.2525907   0.2551552  -0.0625000), wk =   0.0019531
        k(  619) = (   0.2165063   0.3061862   0.0000000), wk =   0.0009766
        k(  620) = (  -0.0360843   0.1275776   0.4374999), wk =   0.0019531
        k(  621) = (   0.5051814   0.5103103  -0.4999999), wk =   0.0019531
        k(  622) = (   0.4690970   0.4847948  -0.4374999), wk =   0.0019531
        k(  623) = (   0.4330126   0.4592792  -0.3749999), wk =   0.0019531
        k(  624) = (   0.3969282   0.4337637  -0.3124999), wk =   0.0019531
        k(  625) = (   0.3608439   0.4082482  -0.2499999), wk =   0.0019531
        k(  626) = (   0.3247595   0.3827327  -0.1875000), wk =   0.0019531
        k(  627) = (   0.2886751   0.3572172  -0.1250000), wk =   0.0019531
        k(  628) = (   0.2525907   0.3317017  -0.0625000), wk =   0.0019531
        k(  629) = (   0.2165063   0.3827328   0.0000000), wk =   0.0009766
        k(  630) = (  -0.0360843   0.2041242   0.4374999), wk =   0.0019531
        k(  631) = (   0.5051814   0.5868568  -0.4999999), wk =   0.0019531
        k(  632) = (   0.4690970   0.5613413  -0.4374999), wk =   0.0019531
        k(  633) = (   0.4330126   0.5358258  -0.3749999), wk =   0.0019531
        k(  634) = (   0.3969282   0.5103103  -0.3124999), wk =   0.0019531
        k(  635) = (   0.3608439   0.4847948  -0.2499999), wk =   0.0019531
        k(  636) = (   0.3247595   0.4592793  -0.1875000), wk =   0.0019531
        k(  637) = (   0.2886751   0.4337638  -0.1250000), wk =   0.0019531
        k(  638) = (   0.2525907   0.4082483  -0.0625000), wk =   0.0019531
        k(  639) = (   0.2165063   0.4592793   0.0000000), wk =   0.0009766
        k(  640) = (   0.0000001   0.3061863   0.3749999), wk =   0.0019531
        k(  641) = (  -0.0360843   0.2806707   0.4374999), wk =   0.0019531
        k(  642) = (   0.5051814   0.6634034  -0.4999999), wk =   0.0019531
        k(  643) = (   0.4690970   0.6378879  -0.4374999), wk =   0.0019531
        k(  644) = (   0.4330126   0.6123723  -0.3749999), wk =   0.0019531
        k(  645) = (   0.3969282   0.5868568  -0.3124999), wk =   0.0019531
        k(  646) = (   0.3608439   0.5613413  -0.2499999), wk =   0.0019531
        k(  647) = (   0.3247595   0.5358258  -0.1875000), wk =   0.0019531
        k(  648) = (   0.2886751   0.5103103  -0.1250000), wk =   0.0019531
        k(  649) = (   0.2525907   0.4847948  -0.0625000), wk =   0.0019531
        k(  650) = (   0.2165063  -0.6889190   0.0000000), wk =   0.0009766
        k(  651) = (   0.0000001  -0.8420120   0.3749999), wk =   0.0019531
        k(  652) = (  -0.0360843  -0.8675275   0.4374999), wk =   0.0019531
        k(  653) = (   0.5051814  -0.4847949  -0.4999999), wk =   0.0019531
        k(  654) = (   0.4690970  -0.5103104  -0.4374999), wk =   0.0019531
        k(  655) = (   0.4330126  -0.5358259  -0.3749999), wk =   0.0019531
        k(  656) = (   0.3969282  -0.5613414  -0.3124999), wk =   0.0019531
        k(  657) = (   0.3608439  -0.5868569  -0.2499999), wk =   0.0019531
        k(  658) = (   0.3247595  -0.6123724  -0.1875000), wk =   0.0019531
        k(  659) = (   0.2886751  -0.6378879  -0.1250000), wk =   0.0019531
        k(  660) = (   0.2525907  -0.6634034  -0.0625000), wk =   0.0019531
        k(  661) = (   0.2165063  -0.6123724   0.0000000), wk =   0.0009766
        k(  662) = (   0.0000001  -0.7654655   0.3749999), wk =   0.0019531
        k(  663) = (  -0.0360843  -0.7909810   0.4374999), wk =   0.0019531
        k(  664) = (   0.5051814  -0.4082483  -0.4999999), wk =   0.0019531
        k(  665) = (   0.4690970  -0.4337638  -0.4374999), wk =   0.0019531
        k(  666) = (   0.4330126  -0.4592794  -0.3749999), wk =   0.0019531
        k(  667) = (   0.3969282  -0.4847949  -0.3124999), wk =   0.0019531
        k(  668) = (   0.3608439  -0.5103104  -0.2499999), wk =   0.0019531
        k(  669) = (   0.3247595  -0.5358259  -0.1875000), wk =   0.0019531
        k(  670) = (   0.2886751  -0.5613414  -0.1250000), wk =   0.0019531
        k(  671) = (   0.2525907  -0.5868569  -0.0625000), wk =   0.0019531
        k(  672) = (   0.2165063  -0.5358259   0.0000000), wk =   0.0009766
        k(  673) = (   0.0000001  -0.6889189   0.3749999), wk =   0.0019531
        k(  674) = (  -0.0360843  -0.7144344   0.4374999), wk =   0.0019531
        k(  675) = (   0.5051814  -0.3317018  -0.4999999), wk =   0.0019531
        k(  676) = (   0.4690970  -0.3572173  -0.4374999), wk =   0.0019531
        k(  677) = (   0.4330126  -0.3827328  -0.3749999), wk =   0.0019531
        k(  678) = (   0.3969282  -0.4082483  -0.3124999), wk =   0.0019531
        k(  679) = (   0.3608439  -0.4337638  -0.2499999), wk =   0.0019531
        k(  680) = (   0.3247595  -0.4592793  -0.1875000), wk =   0.0019531
        k(  681) = (   0.2886751  -0.4847948  -0.1250000), wk =   0.0019531
        k(  682) = (   0.2525907  -0.5103103  -0.0625000), wk =   0.0019531
        k(  683) = (   0.2165063  -0.4592793   0.0000000), wk =   0.0009766
        k(  684) = (   0.0000001  -0.6123723   0.3749999), wk =   0.0009766
        k(  685) = (  -0.0360843  -0.6378879   0.4374999), wk =   0.0019531
        k(  686) = (   0.5051814  -0.2551552  -0.4999999), wk =   0.0019531
        k(  687) = (   0.4690970  -0.2806707  -0.4374999), wk =   0.0019531
        k(  688) = (   0.4330126  -0.3061863  -0.3749999), wk =   0.0019531
        k(  689) = (   0.3969282  -0.3317018  -0.3124999), wk =   0.0019531
        k(  690) = (   0.3608439  -0.3572173  -0.2499999), wk =   0.0019531
        k(  691) = (   0.3247595  -0.3827328  -0.1875000), wk =   0.0019531
        k(  692) = (   0.2886751  -0.4082483  -0.1250000), wk =   0.0019531
        k(  693) = (   0.2525907  -0.4337638  -0.0625000), wk =   0.0019531
        k(  694) = (   0.2165063  -0.3827328   0.0000000), wk =   0.0009766
        k(  695) = (  -0.0360843  -0.5613413   0.4374999), wk =   0.0019531
        k(  696) = (   0.5051814  -0.1786087  -0.4999999), wk =   0.0019531
        k(  697) = (   0.4690970  -0.2041242  -0.4374999), wk =   0.0019531
        k(  698) = (   0.4330126  -0.2296397  -0.3749999), wk =   0.0019531
        k(  699) = (   0.3969282  -0.2551552  -0.3124999), wk =   0.0019531
        k(  700) = (   0.3608439  -0.2806707  -0.2499999), wk =   0.0019531
        k(  701) = (   0.3247595  -0.3061862  -0.1875000), wk =   0.0019531
        k(  702) = (   0.2886751  -0.3317017  -0.1250000), wk =   0.0019531
        k(  703) = (   0.2525907  -0.3572172  -0.0625000), wk =   0.0019531
        k(  704) = (   0.2165063  -0.3061862   0.0000000), wk =   0.0009766
        k(  705) = (  -0.0360843  -0.4847948   0.4374999), wk =   0.0019531
        k(  706) = (   0.5051814  -0.1020621  -0.4999999), wk =   0.0019531
        k(  707) = (   0.4690970  -0.1275776  -0.4374999), wk =   0.0019531
        k(  708) = (   0.4330126  -0.1530932  -0.3749999), wk =   0.0019531
        k(  709) = (   0.3969282  -0.1786087  -0.3124999), wk =   0.0019531
        k(  710) = (   0.3608439  -0.2041242  -0.2499999), wk =   0.0019531
        k(  711) = (   0.3247595  -0.2296397  -0.1875000), wk =   0.0019531
        k(  712) = (   0.2886751  -0.2551552  -0.1250000), wk =   0.0019531
        k(  713) = (   0.2525907  -0.2806707  -0.0625000), wk =   0.0019531
        k(  714) = (   0.2165063  -0.2296397   0.0000000), wk =   0.0009766
        k(  715) = (  -0.0360843  -0.4082482   0.4374999), wk =   0.0019531
        k(  716) = (   0.5051814  -0.0255156  -0.4999999), wk =   0.0019531
        k(  717) = (   0.4690970  -0.0510311  -0.4374999), wk =   0.0019531
        k(  718) = (   0.4330126  -0.0765466  -0.3749999), wk =   0.0019531
        k(  719) = (   0.3969282  -0.1020621  -0.3124999), wk =   0.0019531
        k(  720) = (   0.3608439  -0.1275776  -0.2499999), wk =   0.0019531
        k(  721) = (   0.3247595  -0.1530931  -0.1875000), wk =   0.0019531
        k(  722) = (   0.2886751  -0.1786086  -0.1250000), wk =   0.0019531
        k(  723) = (   0.2525907  -0.2041241  -0.0625000), wk =   0.0019531
        k(  724) = (   0.2165063  -0.1530931   0.0000000), wk =   0.0009766
        k(  725) = (  -0.0360843  -0.3317017   0.4374999), wk =   0.0019531
        k(  726) = (   0.5051814   0.0510310  -0.4999999), wk =   0.0019531
        k(  727) = (   0.4690970   0.0255155  -0.4374999), wk =   0.0019531
        k(  728) = (   0.4330126  -0.0000001  -0.3749999), wk =   0.0019531
        k(  729) = (   0.3969282  -0.0255156  -0.3124999), wk =   0.0019531
        k(  730) = (   0.3608439  -0.0510311  -0.2499999), wk =   0.0019531
        k(  731) = (   0.3247595  -0.0765466  -0.1875000), wk =   0.0019531
        k(  732) = (   0.2886751  -0.1020621  -0.1250000), wk =   0.0019531
        k(  733) = (   0.2525907  -0.1275776  -0.0625000), wk =   0.0019531
        k(  734) = (   0.2886751  -0.1020621   0.0000000), wk =   0.0009766
        k(  735) = (   0.5773502   0.1020620  -0.4999999), wk =   0.0019531
        k(  736) = (   0.5412658   0.0765465  -0.4374999), wk =   0.0019531
        k(  737) = (   0.5051814   0.0510310  -0.3749999), wk =   0.0019531
        k(  738) = (   0.4690970   0.0255155  -0.3124999), wk =   0.0019531
        k(  739) = (   0.4330126  -0.0000000  -0.2499999), wk =   0.0019531
        k(  740) = (   0.3969283  -0.0255155  -0.1875000), wk =   0.0019531
        k(  741) = (   0.3608439  -0.0510311  -0.1250000), wk =   0.0019531
        k(  742) = (   0.3247595  -0.0765466  -0.0625000), wk =   0.0019531
        k(  743) = (   0.2886751  -0.0255155   0.0000000), wk =   0.0009766
        k(  744) = (   0.5773502   0.1786085  -0.4999999), wk =   0.0019531
        k(  745) = (   0.5412658   0.1530930  -0.4374999), wk =   0.0019531
        k(  746) = (   0.5051814   0.1275775  -0.3749999), wk =   0.0019531
        k(  747) = (   0.4690970   0.1020620  -0.3124999), wk =   0.0019531
        k(  748) = (   0.4330126   0.0765465  -0.2499999), wk =   0.0019531
        k(  749) = (   0.3969283   0.0510310  -0.1875000), wk =   0.0019531
        k(  750) = (   0.3608439   0.0255155  -0.1250000), wk =   0.0019531
        k(  751) = (   0.3247595  -0.0000000  -0.0625000), wk =   0.0019531
        k(  752) = (   0.2886751   0.0510310   0.0000000), wk =   0.0009766
        k(  753) = (   0.5773502   0.2551551  -0.4999999), wk =   0.0019531
        k(  754) = (   0.5412658   0.2296396  -0.4374999), wk =   0.0019531
        k(  755) = (   0.5051814   0.2041241  -0.3749999), wk =   0.0019531
        k(  756) = (   0.4690970   0.1786086  -0.3124999), wk =   0.0019531
        k(  757) = (   0.4330126   0.1530931  -0.2499999), wk =   0.0019531
        k(  758) = (   0.3969283   0.1275776  -0.1875000), wk =   0.0019531
        k(  759) = (   0.3608439   0.1020620  -0.1250000), wk =   0.0019531
        k(  760) = (   0.3247595   0.0765465  -0.0625000), wk =   0.0019531
        k(  761) = (   0.2886751   0.1275776   0.0000000), wk =   0.0009766
        k(  762) = (   0.5773502   0.3317016  -0.4999999), wk =   0.0019531
        k(  763) = (   0.5412658   0.3061861  -0.4374999), wk =   0.0019531
        k(  764) = (   0.5051814   0.2806706  -0.3749999), wk =   0.0019531
        k(  765) = (   0.4690970   0.2551551  -0.3124999), wk =   0.0019531
        k(  766) = (   0.4330126   0.2296396  -0.2499999), wk =   0.0019531
        k(  767) = (   0.3969283   0.2041241  -0.1875000), wk =   0.0019531
        k(  768) = (   0.3608439   0.1786086  -0.1250000), wk =   0.0019531
        k(  769) = (   0.3247595   0.1530931  -0.0625000), wk =   0.0019531
        k(  770) = (   0.2886751   0.2041241   0.0000000), wk =   0.0009766
        k(  771) = (   0.5773502   0.4082482  -0.4999999), wk =   0.0009766
        k(  772) = (   0.5412658   0.3827327  -0.4374999), wk =   0.0019531
        k(  773) = (   0.5051814   0.3572172  -0.3749999), wk =   0.0019531
        k(  774) = (   0.4690970   0.3317017  -0.3124999), wk =   0.0019531
        k(  775) = (   0.4330126   0.3061862  -0.2499999), wk =   0.0019531
        k(  776) = (   0.3969283   0.2806707  -0.1875000), wk =   0.0019531
        k(  777) = (   0.3608439   0.2551552  -0.1250000), wk =   0.0019531
        k(  778) = (   0.3247595   0.2296396  -0.0625000), wk =   0.0019531
        k(  779) = (   0.2886751   0.2806707   0.0000000), wk =   0.0009766
        k(  780) = (   0.5412658   0.4592792  -0.4374999), wk =   0.0019531
        k(  781) = (   0.5051814   0.4337637  -0.3749999), wk =   0.0019531
        k(  782) = (   0.4690970   0.4082482  -0.3124999), wk =   0.0019531
        k(  783) = (   0.4330126   0.3827327  -0.2499999), wk =   0.0019531
        k(  784) = (   0.3969283   0.3572172  -0.1875000), wk =   0.0019531
        k(  785) = (   0.3608439   0.3317017  -0.1250000), wk =   0.0019531
        k(  786) = (   0.3247595   0.3061862  -0.0625000), wk =   0.0019531
        k(  787) = (   0.2886751   0.3572172   0.0000000), wk =   0.0009766
        k(  788) = (   0.5412658   0.5358258  -0.4374999), wk =   0.0019531
        k(  789) = (   0.5051814   0.5103103  -0.3749999), wk =   0.0019531
        k(  790) = (   0.4690970   0.4847948  -0.3124999), wk =   0.0019531
        k(  791) = (   0.4330126   0.4592793  -0.2499999), wk =   0.0019531
        k(  792) = (   0.3969283   0.4337638  -0.1875000), wk =   0.0019531
        k(  793) = (   0.3608439   0.4082483  -0.1250000), wk =   0.0019531
        k(  794) = (   0.3247595   0.3827327  -0.0625000), wk =   0.0019531
        k(  795) = (   0.2886751   0.4337638   0.0000000), wk =   0.0009766
        k(  796) = (   0.5412658   0.6123723  -0.4374999), wk =   0.0019531
        k(  797) = (   0.5051814   0.5868568  -0.3749999), wk =   0.0019531
        k(  798) = (   0.4690970   0.5613413  -0.3124999), wk =   0.0019531
        k(  799) = (   0.4330126   0.5358258  -0.2499999), wk =   0.0019531
        k(  800) = (   0.3969283   0.5103103  -0.1875000), wk =   0.0019531
        k(  801) = (   0.3608439   0.4847948  -0.1250000), wk =   0.0019531
        k(  802) = (   0.3247595   0.4592793  -0.0625000), wk =   0.0019531
        k(  803) = (   0.2886751  -0.7144345   0.0000000), wk =   0.0009766
        k(  804) = (   0.5412658  -0.5358259  -0.4374999), wk =   0.0019531
        k(  805) = (   0.5051814  -0.5613414  -0.3749999), wk =   0.0019531
        k(  806) = (   0.4690970  -0.5868569  -0.3124999), wk =   0.0019531
        k(  807) = (   0.4330126  -0.6123724  -0.2499999), wk =   0.0019531
        k(  808) = (   0.3969283  -0.6378879  -0.1875000), wk =   0.0019531
        k(  809) = (   0.3608439  -0.6634035  -0.1250000), wk =   0.0019531
        k(  810) = (   0.3247595  -0.6889190  -0.0625000), wk =   0.0019531
        k(  811) = (   0.2886751  -0.6378879   0.0000000), wk =   0.0009766
        k(  812) = (   0.5773502  -0.4337639  -0.4999999), wk =   0.0019531
        k(  813) = (   0.5412658  -0.4592794  -0.4374999), wk =   0.0019531
        k(  814) = (   0.5051814  -0.4847949  -0.3749999), wk =   0.0019531
        k(  815) = (   0.4690970  -0.5103104  -0.3124999), wk =   0.0019531
        k(  816) = (   0.4330126  -0.5358259  -0.2499999), wk =   0.0019531
        k(  817) = (   0.3969283  -0.5613414  -0.1875000), wk =   0.0019531
        k(  818) = (   0.3608439  -0.5868569  -0.1250000), wk =   0.0019531
        k(  819) = (   0.3247595  -0.6123724  -0.0625000), wk =   0.0019531
        k(  820) = (   0.2886751  -0.5613414   0.0000000), wk =   0.0009766
        k(  821) = (   0.5773502  -0.3572173  -0.4999999), wk =   0.0019531
        k(  822) = (   0.5412658  -0.3827328  -0.4374999), wk =   0.0019531
        k(  823) = (   0.5051814  -0.4082483  -0.3749999), wk =   0.0019531
        k(  824) = (   0.4690970  -0.4337638  -0.3124999), wk =   0.0019531
        k(  825) = (   0.4330126  -0.4592793  -0.2499999), wk =   0.0019531
        k(  826) = (   0.3969283  -0.4847948  -0.1875000), wk =   0.0019531
        k(  827) = (   0.3608439  -0.5103104  -0.1250000), wk =   0.0019531
        k(  828) = (   0.3247595  -0.5358259  -0.0625000), wk =   0.0019531
        k(  829) = (   0.2886751  -0.4847948   0.0000000), wk =   0.0009766
        k(  830) = (   0.5773502  -0.2806708  -0.4999999), wk =   0.0019531
        k(  831) = (   0.5412658  -0.3061863  -0.4374999), wk =   0.0019531
        k(  832) = (   0.5051814  -0.3317018  -0.3749999), wk =   0.0019531
        k(  833) = (   0.4690970  -0.3572173  -0.3124999), wk =   0.0019531
        k(  834) = (   0.4330126  -0.3827328  -0.2499999), wk =   0.0019531
        k(  835) = (   0.3969283  -0.4082483  -0.1875000), wk =   0.0019531
        k(  836) = (   0.3608439  -0.4337638  -0.1250000), wk =   0.0019531
        k(  837) = (   0.3247595  -0.4592793  -0.0625000), wk =   0.0019531
        k(  838) = (   0.2886751  -0.4082483   0.0000000), wk =   0.0009766
        k(  839) = (   0.5773502  -0.2041242  -0.4999999), wk =   0.0009766
        k(  840) = (   0.5412658  -0.2296397  -0.4374999), wk =   0.0019531
        k(  841) = (   0.5051814  -0.2551552  -0.3749999), wk =   0.0019531
        k(  842) = (   0.4690970  -0.2806707  -0.3124999), wk =   0.0019531
        k(  843) = (   0.4330126  -0.3061862  -0.2499999), wk =   0.0019531
        k(  844) = (   0.3969283  -0.3317017  -0.1875000), wk =   0.0019531
        k(  845) = (   0.3608439  -0.3572173  -0.1250000), wk =   0.0019531
        k(  846) = (   0.3247595  -0.3827328  -0.0625000), wk =   0.0019531
        k(  847) = (   0.2886751  -0.3317017   0.0000000), wk =   0.0009766
        k(  848) = (   0.5412658  -0.1530932  -0.4374999), wk =   0.0019531
        k(  849) = (   0.5051814  -0.1786087  -0.3749999), wk =   0.0019531
        k(  850) = (   0.4690970  -0.2041242  -0.3124999), wk =   0.0019531
        k(  851) = (   0.4330126  -0.2296397  -0.2499999), wk =   0.0019531
        k(  852) = (   0.3969283  -0.2551552  -0.1875000), wk =   0.0019531
        k(  853) = (   0.3608439  -0.2806707  -0.1250000), wk =   0.0019531
        k(  854) = (   0.3247595  -0.3061862  -0.0625000), wk =   0.0019531
        k(  855) = (   0.2886751  -0.2551552   0.0000000), wk =   0.0009766
        k(  856) = (   0.5412658  -0.0765466  -0.4374999), wk =   0.0019531
        k(  857) = (   0.5051814  -0.1020621  -0.3749999), wk =   0.0019531
        k(  858) = (   0.4690970  -0.1275776  -0.3124999), wk =   0.0019531
        k(  859) = (   0.4330126  -0.1530931  -0.2499999), wk =   0.0019531
        k(  860) = (   0.3969283  -0.1786086  -0.1875000), wk =   0.0019531
        k(  861) = (   0.3608439  -0.2041242  -0.1250000), wk =   0.0019531
        k(  862) = (   0.3247595  -0.2296397  -0.0625000), wk =   0.0019531
        k(  863) = (   0.2886751  -0.1786086   0.0000000), wk =   0.0009766
        k(  864) = (   0.5412658  -0.0000001  -0.4374999), wk =   0.0019531
        k(  865) = (   0.5051814  -0.0255156  -0.3749999), wk =   0.0019531
        k(  866) = (   0.4690970  -0.0510311  -0.3124999), wk =   0.0019531
        k(  867) = (   0.4330126  -0.0765466  -0.2499999), wk =   0.0019531
        k(  868) = (   0.3969283  -0.1020621  -0.1875000), wk =   0.0019531
        k(  869) = (   0.3608439  -0.1275776  -0.1250000), wk =   0.0019531
        k(  870) = (   0.3247595  -0.1530931  -0.0625000), wk =   0.0019531
        k(  871) = (   0.3608439  -0.1275776   0.0000000), wk =   0.0009766
        k(  872) = (   0.5773502   0.0255155  -0.3749999), wk =   0.0019531
        k(  873) = (   0.5412658  -0.0000000  -0.3124999), wk =   0.0019531
        k(  874) = (   0.5051814  -0.0255156  -0.2499999), wk =   0.0019531
        k(  875) = (   0.4690970  -0.0510311  -0.1875000), wk =   0.0019531
        k(  876) = (   0.4330127  -0.0765466  -0.1250000), wk =   0.0019531
        k(  877) = (   0.3969283  -0.1020621  -0.0625000), wk =   0.0019531
        k(  878) = (   0.3608439  -0.0510310   0.0000000), wk =   0.0009766
        k(  879) = (   0.5773502   0.1020620  -0.3749999), wk =   0.0019531
        k(  880) = (   0.5412658   0.0765465  -0.3124999), wk =   0.0019531
        k(  881) = (   0.5051814   0.0510310  -0.2499999), wk =   0.0019531
        k(  882) = (   0.4690970   0.0255155  -0.1875000), wk =   0.0019531
        k(  883) = (   0.4330127  -0.0000000  -0.1250000), wk =   0.0019531
        k(  884) = (   0.3969283  -0.0255155  -0.0625000), wk =   0.0019531
        k(  885) = (   0.3608439   0.0255155   0.0000000), wk =   0.0009766
        k(  886) = (   0.5773502   0.1786086  -0.3749999), wk =   0.0019531
        k(  887) = (   0.5412658   0.1530931  -0.3124999), wk =   0.0019531
        k(  888) = (   0.5051814   0.1275775  -0.2499999), wk =   0.0019531
        k(  889) = (   0.4690970   0.1020620  -0.1875000), wk =   0.0019531
        k(  890) = (   0.4330127   0.0765465  -0.1250000), wk =   0.0019531
        k(  891) = (   0.3969283   0.0510310  -0.0625000), wk =   0.0019531
        k(  892) = (   0.3608439   0.1020621   0.0000000), wk =   0.0009766
        k(  893) = (   0.5773502   0.2551551  -0.3749999), wk =   0.0019531
        k(  894) = (   0.5412658   0.2296396  -0.3124999), wk =   0.0019531
        k(  895) = (   0.5051814   0.2041241  -0.2499999), wk =   0.0019531
        k(  896) = (   0.4690970   0.1786086  -0.1875000), wk =   0.0019531
        k(  897) = (   0.4330127   0.1530931  -0.1250000), wk =   0.0019531
        k(  898) = (   0.3969283   0.1275776  -0.0625000), wk =   0.0019531
        k(  899) = (   0.3608439   0.1786086   0.0000000), wk =   0.0009766
        k(  900) = (   0.5773502   0.3317017  -0.3749999), wk =   0.0019531
        k(  901) = (   0.5412658   0.3061862  -0.3124999), wk =   0.0019531
        k(  902) = (   0.5051814   0.2806706  -0.2499999), wk =   0.0019531
        k(  903) = (   0.4690970   0.2551551  -0.1875000), wk =   0.0019531
        k(  904) = (   0.4330127   0.2296396  -0.1250000), wk =   0.0019531
        k(  905) = (   0.3969283   0.2041241  -0.0625000), wk =   0.0019531
        k(  906) = (   0.3608439   0.2551552   0.0000000), wk =   0.0009766
        k(  907) = (   0.5773502   0.4082482  -0.3749999), wk =   0.0009766
        k(  908) = (   0.5412658   0.3827327  -0.3124999), wk =   0.0019531
        k(  909) = (   0.5051814   0.3572172  -0.2499999), wk =   0.0019531
        k(  910) = (   0.4690970   0.3317017  -0.1875000), wk =   0.0019531
        k(  911) = (   0.4330127   0.3061862  -0.1250000), wk =   0.0019531
        k(  912) = (   0.3969283   0.2806707  -0.0625000), wk =   0.0019531
        k(  913) = (   0.3608439   0.3317017   0.0000000), wk =   0.0009766
        k(  914) = (   0.5412658   0.4592793  -0.3124999), wk =   0.0019531
        k(  915) = (   0.5051814   0.4337638  -0.2499999), wk =   0.0019531
        k(  916) = (   0.4690970   0.4082482  -0.1875000), wk =   0.0019531
        k(  917) = (   0.4330127   0.3827327  -0.1250000), wk =   0.0019531
        k(  918) = (   0.3969283   0.3572172  -0.0625000), wk =   0.0019531
        k(  919) = (   0.3608439   0.4082483   0.0000000), wk =   0.0009766
        k(  920) = (   0.5412658   0.5358258  -0.3124999), wk =   0.0019531
        k(  921) = (   0.5051814   0.5103103  -0.2499999), wk =   0.0019531
        k(  922) = (   0.4690970   0.4847948  -0.1875000), wk =   0.0019531
        k(  923) = (   0.4330127   0.4592793  -0.1250000), wk =   0.0019531
        k(  924) = (   0.3969283   0.4337638  -0.0625000), wk =   0.0019531
        k(  925) = (   0.3608439  -0.7399500   0.0000000), wk =   0.0009766
        k(  926) = (   0.5412658  -0.6123724  -0.3124999), wk =   0.0019531
        k(  927) = (   0.5051814  -0.6378880  -0.2499999), wk =   0.0019531
        k(  928) = (   0.4690970  -0.6634035  -0.1875000), wk =   0.0019531
        k(  929) = (   0.4330127  -0.6889190  -0.1250000), wk =   0.0019531
        k(  930) = (   0.3969283  -0.7144345  -0.0625000), wk =   0.0019531
        k(  931) = (   0.3608439  -0.6634034   0.0000000), wk =   0.0009766
        k(  932) = (   0.5412658  -0.5358259  -0.3124999), wk =   0.0019531
        k(  933) = (   0.5051814  -0.5613414  -0.2499999), wk =   0.0019531
        k(  934) = (   0.4690970  -0.5868569  -0.1875000), wk =   0.0019531
        k(  935) = (   0.4330127  -0.6123724  -0.1250000), wk =   0.0019531
        k(  936) = (   0.3969283  -0.6378879  -0.0625000), wk =   0.0019531
        k(  937) = (   0.3608439  -0.5868569   0.0000000), wk =   0.0009766
        k(  938) = (   0.5412658  -0.4592793  -0.3124999), wk =   0.0019531
        k(  939) = (   0.5051814  -0.4847949  -0.2499999), wk =   0.0019531
        k(  940) = (   0.4690970  -0.5103104  -0.1875000), wk =   0.0019531
        k(  941) = (   0.4330127  -0.5358259  -0.1250000), wk =   0.0019531
        k(  942) = (   0.3969283  -0.5613414  -0.0625000), wk =   0.0019531
        k(  943) = (   0.3608439  -0.5103103   0.0000000), wk =   0.0009766
        k(  944) = (   0.5773502  -0.3572173  -0.3749999), wk =   0.0019531
        k(  945) = (   0.5412658  -0.3827328  -0.3124999), wk =   0.0019531
        k(  946) = (   0.5051814  -0.4082483  -0.2499999), wk =   0.0019531
        k(  947) = (   0.4690970  -0.4337638  -0.1875000), wk =   0.0019531
        k(  948) = (   0.4330127  -0.4592793  -0.1250000), wk =   0.0019531
        k(  949) = (   0.3969283  -0.4847948  -0.0625000), wk =   0.0019531
        k(  950) = (   0.3608439  -0.4337638   0.0000000), wk =   0.0009766
        k(  951) = (   0.5773502  -0.2806707  -0.3749999), wk =   0.0019531
        k(  952) = (   0.5412658  -0.3061862  -0.3124999), wk =   0.0019531
        k(  953) = (   0.5051814  -0.3317018  -0.2499999), wk =   0.0019531
        k(  954) = (   0.4690970  -0.3572173  -0.1875000), wk =   0.0019531
        k(  955) = (   0.4330127  -0.3827328  -0.1250000), wk =   0.0019531
        k(  956) = (   0.3969283  -0.4082483  -0.0625000), wk =   0.0019531
        k(  957) = (   0.3608439  -0.3572172   0.0000000), wk =   0.0009766
        k(  958) = (   0.5773502  -0.2041242  -0.3749999), wk =   0.0009766
        k(  959) = (   0.5412658  -0.2296397  -0.3124999), wk =   0.0019531
        k(  960) = (   0.5051814  -0.2551552  -0.2499999), wk =   0.0019531
        k(  961) = (   0.4690970  -0.2806707  -0.1875000), wk =   0.0019531
        k(  962) = (   0.4330127  -0.3061862  -0.1250000), wk =   0.0019531
        k(  963) = (   0.3969283  -0.3317017  -0.0625000), wk =   0.0019531
        k(  964) = (   0.3608439  -0.2806707   0.0000000), wk =   0.0009766
        k(  965) = (   0.5412658  -0.1530931  -0.3124999), wk =   0.0019531
        k(  966) = (   0.5051814  -0.1786087  -0.2499999), wk =   0.0019531
        k(  967) = (   0.4690970  -0.2041242  -0.1875000), wk =   0.0019531
        k(  968) = (   0.4330127  -0.2296397  -0.1250000), wk =   0.0019531
        k(  969) = (   0.3969283  -0.2551552  -0.0625000), wk =   0.0019531
        k(  970) = (   0.3608439  -0.2041241   0.0000000), wk =   0.0009766
        k(  971) = (   0.5412658  -0.0765466  -0.3124999), wk =   0.0019531
        k(  972) = (   0.5051814  -0.1020621  -0.2499999), wk =   0.0019531
        k(  973) = (   0.4690970  -0.1275776  -0.1875000), wk =   0.0019531
        k(  974) = (   0.4330127  -0.1530931  -0.1250000), wk =   0.0019531
        k(  975) = (   0.3969283  -0.1786086  -0.0625000), wk =   0.0019531
        k(  976) = (   0.4330127  -0.1530931   0.0000000), wk =   0.0009766
        k(  977) = (   0.5773502  -0.0510311  -0.2499999), wk =   0.0019531
        k(  978) = (   0.5412658  -0.0765466  -0.1875000), wk =   0.0019531
        k(  979) = (   0.5051814  -0.1020621  -0.1250000), wk =   0.0019531
        k(  980) = (   0.4690971  -0.1275776  -0.0625000), wk =   0.0019531
[...]

     occupation numbers 
     1.0000   1.0690   0.0000   0.0000   0.0000   0.0000

          k = 0.5052-0.7144-0.1250 (   392 PWs)   bands (ev):

     5.3029   6.6403   9.4868  10.8999  17.7957  19.6677

     occupation numbers 
     1.0000   1.0000   0.0000   0.0000   0.0000   0.0000

          k = 0.4691-0.7399-0.0625 (   391 PWs)   bands (ev):

     4.5361   7.0677   9.8068  12.2293  16.2264  19.0398

     occupation numbers 
     1.0000   1.0000   0.0000   0.0000   0.0000   0.0000

          k = 0.4330-0.6889 0.0000 (   390 PWs)   bands (ev):

     4.8017   7.3068   8.1302  13.7880  15.3594  20.9446

     occupation numbers 
     1.0000   1.0007   0.0000   0.0000   0.0000   0.0000

          k = 0.5413-0.6124-0.1875 (   395 PWs)   bands (ev):

     4.5118   8.1809   8.9101   9.7456  20.6113  22.0521

     occupation numbers 
     1.0000   0.0000   0.0000   0.0000   0.0000   0.0000

          k = 0.5052-0.6379-0.1250 (   390 PWs)   bands (ev):

     5.0674   7.5745   8.2742  10.7997  18.7369  21.2926

     occupation numbers 
     1.0000   1.0690   0.0000   0.0000   0.0000   0.0000

          k = 0.4691-0.6634-0.0625 (   388 PWs)   bands (ev):

     5.4338   6.7621   8.1291  12.4603  16.7204  20.9961

     occupation numbers 
     1.0000   1.0000   0.0000   0.0000   0.0000   0.0000

          k = 0.4330-0.6124 0.0000 (   391 PWs)   bands (ev):

     5.8266   6.3679   7.2603  14.1799  15.8507  23.1207

     occupation numbers 
     1.0000   1.0000   1.0001   0.0000   0.0000   0.0000

          k = 0.5413-0.5358-0.1875 (   392 PWs)   bands (ev):

     4.1001   7.1888   9.6950  10.7361  21.6778  22.7464

     occupation numbers 
     1.0000   1.0000   0.0000   0.0000   0.0000   0.0000

          k = 0.5052-0.5613-0.1250 (   390 PWs)   bands (ev):

     4.6442   6.7798   9.1494  11.2653  19.4219  23.3998

     occupation numbers 
     1.0000   1.0000   0.0000   0.0000   0.0000   0.0000

          k = 0.4691-0.5869-0.0625 (   389 PWs)   bands (ev):

     5.3288   6.4974   7.9127  12.9185  17.2749  23.2003

     occupation numbers 
     1.0000   1.0000   0.0097   0.0000   0.0000   0.0000

          k = 0.4330-0.5358 0.0000 (   390 PWs)   bands (ev):

     4.9106   5.8766   8.4352  14.7520  16.5103  25.3575

     occupation numbers 
     1.0000   1.0000   0.0000   0.0000   0.0000   0.0000

          k = 0.5413-0.4593-0.1875 (   391 PWs)   bands (ev):

     3.8737   5.9922  10.4549  12.5060  20.6970  22.5943

     occupation numbers 
     1.0000   1.0000   0.0000   0.0000   0.0000   0.0000

          k = 0.5052-0.4848-0.1250 (   391 PWs)   bands (ev):

     4.3631   5.4582  10.8932  11.9901  20.1655  23.0385

     occupation numbers 
     1.0000   1.0000   0.0000   0.0000   0.0000   0.0000

          k = 0.4691-0.5103-0.0625 (   392 PWs)   bands (ev):

     4.9590   5.1814   9.5549  13.5735  17.9725  25.0887

     occupation numbers 
     1.0000   1.0000   0.0000   0.0000   0.0000   0.0000

          k = 0.4330-0.4593 0.0000 (   394 PWs)   bands (ev):

     3.6096   5.7267  10.2104  15.5038  17.3413  25.1152

     occupation numbers 
     1.0000   1.0000   0.0000   0.0000   0.0000   0.0000

          k = 0.5413-0.3827-0.1875 (   389 PWs)   bands (ev):

     3.8403   4.9243  11.4374  14.4154  18.8220  23.3619

     occupation numbers 
     1.0000   1.0000   0.0000   0.0000   0.0000   0.0000

          k = 0.5052-0.4082-0.1250 (   384 PWs)   bands (ev):

     4.1774   4.3939  12.6953  13.0339  20.8054  21.3060

     occupation numbers 
     1.0000   1.0000   0.0000   0.0000   0.0000   0.0000

          k = 0.4691-0.4338-0.0625 (   389 PWs)   bands (ev):

     3.8403   4.9243  11.4374  14.4154  18.8220  23.3619

     occupation numbers 
     1.0000   1.0000   0.0000   0.0000   0.0000   0.0000

          k = 0.4330-0.3827 0.0000 (   388 PWs)   bands (ev):

     2.4936   5.7208  12.2084  16.4343  18.3260  23.1833

     occupation numbers 
     1.0000   1.0000   0.0000   0.0000   0.0000   0.0000

          k = 0.5774-0.2807-0.2500 (   389 PWs)   bands (ev):

     3.8403   4.9243  11.4374  14.4154  18.8220  23.3619

     occupation numbers 
     1.0000   1.0000   0.0000   0.0000   0.0000   0.0000

          k = 0.5413-0.3062-0.1875 (   393 PWs)   bands (ev):

     3.9142   4.1247  12.6129  15.8645  17.6964  23.5582

     occupation numbers 
     1.0000   1.0000   0.0000   0.0000   0.0000   0.0000

          k = 0.5052-0.3317-0.1250 (   389 PWs)   bands (ev):

     3.3013   4.4022  13.9502  14.9138  19.2572  21.9591

     occupation numbers 
     1.0000   1.0000   0.0000   0.0000   0.0000   0.0000

          k = 0.4691-0.3572-0.0625 (   388 PWs)   bands (ev):

     2.7985   4.9644  13.4851  15.4363  19.7887  21.5118

     occupation numbers 
     1.0000   1.0000   0.0000   0.0000   0.0000   0.0000

          k = 0.4330-0.3062 0.0000 (   392 PWs)   bands (ev):

     1.5723   5.8996  14.3552  17.5404  19.4086  21.4182

     occupation numbers 
     1.0000   1.0000   0.0000   0.0000   0.0000   0.0000

          k = 0.5774-0.2041-0.2500 (   384 PWs)   bands (ev):

     4.1774   4.3939  12.6953  13.0339  20.8055  21.3060

     occupation numbers 
     1.0000   1.0000   0.0000   0.0000   0.0000   0.0000

          k = 0.5413-0.2296-0.1875 (   389 PWs)   bands (ev):

     3.3013   4.4022  13.9502  14.9138  19.2572  21.9590

     occupation numbers 
     1.0000   1.0000   0.0000   0.0000   0.0000   0.0000

          k = 0.5052-0.2552-0.1250 (   387 PWs)   bands (ev):

     2.5268   4.7021  15.2323  16.4652  18.2398  22.2345

     occupation numbers 
     1.0000   1.0000   0.0000   0.0000   0.0000   0.0000

          k = 0.4691-0.2807-0.0625 (   389 PWs)   bands (ev):

     1.9486   5.2031  15.6239  16.6226  19.7851  20.8322

     occupation numbers 
     1.0000   1.0000   0.0000   0.0000   0.0000   0.0000

          k = 0.4330-0.2296 0.0000 (   388 PWs)   bands (ev):

     0.8511   6.2714  16.5523  18.7981  19.8515  20.3724

     occupation numbers 
     1.0000   1.0000   0.0000   0.0000   0.0000   0.0000

          k = 0.5413-0.1531-0.1875 (   388 PWs)   bands (ev):

     2.7985   4.9644  13.4851  15.4363  19.7887  21.5118

     occupation numbers 
     1.0000   1.0000   0.0000   0.0000   0.0000   0.0000

          k = 0.5052-0.1786-0.1250 (   389 PWs)   bands (ev):

     1.9486   5.2031  15.6239  16.6226  19.7852  20.8322

     occupation numbers 
     1.0000   1.0000   0.0000   0.0000   0.0000   0.0000

          k = 0.4691-0.2041-0.0625 (   387 PWs)   bands (ev):

     1.2982   5.6395  17.3044  17.9293  18.7910  21.1511

     occupation numbers 
     1.0000   1.0000   0.0000   0.0000   0.0000   0.0000

          k = 0.5052-0.1786 0.0000 (   386 PWs)   bands (ev):

     1.6756   4.9381  18.5771  18.5771  19.5920  19.5921

     occupation numbers 
     1.0000   1.0000   0.0000   0.0000   0.0000   0.0000

          k = 0.5774-0.1276-0.1250 (   391 PWs)   bands (ev):

     3.0336   4.1328  14.6993  16.9151  18.7335  21.7395

     occupation numbers 
     1.0000   1.0000   0.0000   0.0000   0.0000   0.0000

          k = 0.5413-0.1531-0.0625 (   392 PWs)   bands (ev):

     2.2558   4.4343  16.8320  18.1375  19.6675  20.0978

     occupation numbers 
     1.0000   1.0000   0.0000   0.0000   0.0000   0.0000

          k = 0.5052-0.1021 0.0000 (   387 PWs)   bands (ev):

     1.2982   5.6395  17.3044  17.9293  18.7911  21.1517

     occupation numbers 
     1.0000   1.0000   0.0000   0.0000   0.0000   0.0000

          k = 0.5774-0.0510-0.1250 (   388 PWs)   bands (ev):

     2.7985   4.9644  13.4851  15.4363  19.7887  21.5118

     occupation numbers 
     1.0000   1.0000   0.0000   0.0000   0.0000   0.0000

          k = 0.5413-0.0765-0.0625 (   389 PWs)   bands (ev):

     1.9486   5.2031  15.6239  16.6226  19.7851  20.8323

     occupation numbers 
     1.0000   1.0000   0.0000   0.0000   0.0000   0.0000

          k = 0.5052-0.0255 0.0000 (   385 PWs)   bands (ev):

     1.1257   6.5336  15.9512  16.1928  17.9301  22.8969

     occupation numbers 
     1.0000   1.0000   0.0000   0.0000   0.0000   0.0000

          k = 0.5774 0.0255-0.1250 (   387 PWs)   bands (ev):

     2.7629   5.9864  12.4317  13.4930  20.5753  21.6949

     occupation numbers 
     1.0000   1.0000   0.0000   0.0000   0.0000   0.0000

          k = 0.5413-0.0000-0.0625 (   391 PWs)   bands (ev):

     1.8449   6.1642  14.4749  14.7080  18.8961  22.5726

     occupation numbers 
     1.0000   1.0000   0.0000   0.0000   0.0000   0.0000

          k = 0.5052 0.0510 0.0000 (   387 PWs)   bands (ev):

     1.1588   7.6136  14.0073  15.2601  16.9898  23.9857

     occupation numbers 
     1.0000   0.9939   0.0000   0.0000   0.0000   0.0000

          k = 0.5774 0.1021-0.1250 (   392 PWs)   bands (ev):

     2.9282   7.1806  11.4075  11.8153  19.7752  23.3222

     occupation numbers 
     1.0000   1.0000   0.0000   0.0000   0.0000   0.0000

          k = 0.5413 0.0765-0.0625 (   392 PWs)   bands (ev):

     1.9451   7.3084  12.6921  13.6820  18.0085  23.6958

     occupation numbers 
     1.0000   1.0008   0.0000   0.0000   0.0000   0.0000

          k = 0.5052 0.1276 0.0000 (   390 PWs)   bands (ev):

     1.3969   8.8670  12.1989  14.5078  16.1426  21.6114

     occupation numbers 
     1.0000   0.0000   0.0000   0.0000   0.0000   0.0000

          k = 0.5774 0.1786-0.1250 (   393 PWs)   bands (ev):

     3.2910   8.4922   9.8500  11.0815  18.9835  21.5035

     occupation numbers 
     1.0000   0.0000   0.0000   0.0000   0.0000   0.0000

          k = 0.5413 0.1531-0.0625 (   394 PWs)   bands (ev):

     2.2477   8.6163  10.9400  12.9684  17.2227  21.4386

     occupation numbers 
     1.0000   0.0000   0.0000   0.0000   0.0000   0.0000

          k = 0.5052 0.2041 0.0000 (   394 PWs)   bands (ev):

     1.8378  10.2246  10.6054  13.9362  15.3897  19.3298

     occupation numbers 
     1.0000   0.0000   0.0000   0.0000   0.0000   0.0000

          k = 0.5774 0.2552-0.1250 (   397 PWs)   bands (ev):

     3.8410   8.3371   9.6172  11.0341  17.9221  19.7803

     occupation numbers 
     1.0000   0.0000   0.0000   0.0000   0.0000   0.0000

          k = 0.5413 0.2296-0.0625 (   391 PWs)   bands (ev):

     2.7487   9.3209  10.0812  12.4830  16.4811  19.2726

     occupation numbers 
     1.0000   0.0000   0.0000   0.0000   0.0000   0.0000

          k = 0.5052 0.2807 0.0000 (   390 PWs)   bands (ev):

     2.4767   9.0775  11.8023  13.5453  14.5653  17.4902

     occupation numbers 
     1.0000   0.0000   0.0000   0.0000   0.0000   0.0000

          k = 0.5774 0.3317-0.1250 (   391 PWs)   bands (ev):

     4.5361   7.0677   9.8068  12.2294  16.2264  19.0398

     occupation numbers 
     1.0000   1.0000   0.0000   0.0000   0.0000   0.0000

          k = 0.5413 0.3062-0.0625 (   387 PWs)   bands (ev):

     3.4369   7.9491  11.3116  12.4738  15.4704  17.7456

     occupation numbers 
     1.0000   0.0030   0.0000   0.0000   0.0000   0.0000

          k = 0.5052 0.3572 0.0000 (   392 PWs)   bands (ev):

     3.3019   7.8179  13.1936  13.3350  13.3350  16.6837

     occupation numbers 
     1.0000   0.1056   0.0000   0.0000   0.0000   0.0000

          k = 0.5774 0.4082-0.1250 (   387 PWs)   bands (ev):

     5.0409   6.3700   9.7729  13.4564  14.8603  18.8610

     occupation numbers 
     1.0000   1.0000   0.0000   0.0000   0.0000   0.0000

          k = 0.5413 0.3827-0.0625 (   390 PWs)   bands (ev):

     4.2698   6.8021  11.5426  13.3054  14.3027  17.2460

     occupation numbers 
     1.0000   1.0000   0.0000   0.0000   0.0000   0.0000

          k = 0.5052-0.7910 0.0000 (   390 PWs)   bands (ev):

     4.2698   6.8021  11.5426  13.3054  14.3027  17.2460

     occupation numbers 
     1.0000   1.0000   0.0000   0.0000   0.0000   0.0000

          k = 0.5413-0.7655-0.0625 (   390 PWs)   bands (ev):

     4.9098   6.2352  11.1815  12.3489  15.3425  17.6248

     occupation numbers 
     1.0000   1.0000   0.0000   0.0000   0.0000   0.0000

          k = 0.5052-0.7144 0.0000 (   387 PWs)   bands (ev):

     5.0409   6.3700   9.7729  13.4564  14.8603  18.8610

     occupation numbers 
     1.0000   1.0000   0.0000   0.0000   0.0000   0.0000

          k = 0.5413-0.6889-0.0625 (   391 PWs)   bands (ev):

     4.5361   7.0677   9.8068  12.2293  16.2264  19.0399

     occupation numbers 
     1.0000   1.0000   0.0000   0.0000   0.0000   0.0000

          k = 0.5052-0.6379 0.0000 (   390 PWs)   bands (ev):

     4.8017   7.3068   8.1302  13.7880  15.3594  20.9446

     occupation numbers 
     1.0000   1.0007   0.0000   0.0000   0.0000   0.0000

          k = 0.5413-0.6124-0.0625 (   391 PWs)   bands (ev):

     3.9753   8.1519   8.5690  12.5871  16.8466  21.1080

     occupation numbers 
     1.0000   0.0000   0.0000   0.0000   0.0000   0.0000

          k = 0.5052-0.5613 0.0000 (   388 PWs)   bands (ev):

     4.3764   6.5475   8.9033  14.3000  15.9809  23.2239

     occupation numbers 
     1.0000   1.0000   0.0000   0.0000   0.0000   0.0000

          k = 0.5413-0.5358-0.0625 (   391 PWs)   bands (ev):

     3.5609   6.7761  10.1431  13.1712  17.5224  23.3922

     occupation numbers 
     1.0000   1.0000   0.0000   0.0000   0.0000   0.0000

          k = 0.5052-0.4848 0.0000 (   390 PWs)   bands (ev):

     4.0946   5.2041  10.6664  14.9923  16.7623  25.4684

     occupation numbers 
     1.0000   1.0000   0.0000   0.0000   0.0000   0.0000

          k = 0.5413-0.4593-0.0625 (   391 PWs)   bands (ev):

     3.3337   5.4979  11.9695  13.9502  18.3298  23.8327

     occupation numbers 
     1.0000   1.0000   0.0000   0.0000   0.0000   0.0000

          k = 0.5052-0.4082 0.0000 (   393 PWs)   bands (ev):

     3.9142   4.1247  12.6129  15.8645  17.6964  23.5582

     occupation numbers 
     1.0000   1.0000   0.0000   0.0000   0.0000   0.0000

          k = 0.5413-0.3827-0.0625 (   389 PWs)   bands (ev):

     3.3013   4.4022  13.9502  14.9138  19.2571  21.9591

     occupation numbers 
     1.0000   1.0000   0.0000   0.0000   0.0000   0.0000

          k = 0.5052-0.3317 0.0000 (   391 PWs)   bands (ev):

     3.0337   4.1328  14.6993  16.9151  18.7335  21.7394

     occupation numbers 
     1.0000   1.0000   0.0000   0.0000   0.0000   0.0000

          k = 0.5413-0.3062-0.0625 (   386 PWs)   bands (ev):

     3.3864   3.5806  15.9694  16.0941  20.0504  20.3917

     occupation numbers 
     1.0000   1.0000   0.0000   0.0000   0.0000   0.0000

          k = 0.5052-0.2552 0.0000 (   392 PWs)   bands (ev):

     2.2558   4.4343  16.8320  18.1375  19.6673  20.0977

     occupation numbers 
     1.0000   1.0000   0.0000   0.0000   0.0000   0.0000

          k = 0.5774-0.2041-0.1250 (   386 PWs)   bands (ev):

     3.3864   3.5806  15.9694  16.0941  20.0505  20.3917

     occupation numbers 
     1.0000   1.0000   0.0000   0.0000   0.0000   0.0000

          k = 0.5413-0.2296-0.0625 (   389 PWs)   bands (ev):

     2.7633   3.8651  17.2925  17.6345  19.1379  20.5362

     occupation numbers 
     1.0000   1.0000   0.0000   0.0000   0.0000   0.0000

          k =-0.5774 0.2041 0.0000 (   392 PWs)   bands (ev):

     3.1218   3.3059  18.8326  18.8326  19.1613  19.1614

     occupation numbers 
     1.0000   1.0000   0.0000   0.0000   0.0000   0.0000

          k =-0.5774 0.2807 0.0000 (   389 PWs)   bands (ev):

     2.7633   3.8651  17.2925  17.6345  19.1379  20.5363

     occupation numbers 
     1.0000   1.0000   0.0000   0.0000   0.0000   0.0000

          k =-0.5774 0.3572 0.0000 (   387 PWs)   bands (ev):

     2.5268   4.7021  15.2323  16.4652  18.2398  22.2344

     occupation numbers 
     1.0000   1.0000   0.0000   0.0000   0.0000   0.0000

          k =-0.5774 0.4338 0.0000 (   389 PWs)   bands (ev):

     2.4909   5.7338  13.2145  15.4728  17.2514  24.1005

     occupation numbers 
     1.0000   1.0000   0.0000   0.0000   0.0000   0.0000

          k =-0.5774 0.5103 0.0000 (   390 PWs)   bands (ev):

     2.6564   6.9502  11.3339  14.6602  16.3665  23.5246

     occupation numbers 
     1.0000   1.0000   0.0000   0.0000   0.0000   0.0000

          k =-0.5774 0.5869 0.0000 (   389 PWs)   bands (ev):

     3.0201   8.3285   9.6338  14.0280  15.6230  21.1698

     occupation numbers 
     1.0000   0.0000   0.0000   0.0000   0.0000   0.0000

          k =-0.5774 0.6634 0.0000 (   391 PWs)   bands (ev):

     3.5717   8.0764   9.9073  13.5764  14.9933  18.9792

     occupation numbers 
     1.0000   0.0000   0.0000   0.0000   0.0000   0.0000

          k =-0.5774 0.7399 0.0000 (   390 PWs)   bands (ev):

     4.2698   6.8021  11.5426  13.3054  14.3027  17.2460

     occupation numbers 
     1.0000   1.0000   0.0000   0.0000   0.0000   0.0000

          k =-0.5774-0.4082 0.0000 (   388 PWs)   bands (ev):

     4.7788   6.0989  13.0553  13.2151  13.2151  16.5579

     occupation numbers 
     1.0000   1.0000   0.0000   0.0000   0.0000   0.0000

     the Fermi energy is     7.7368 ev

!    total energy              =      -6.64413960 Ry
     Harris-Foulkes estimate   =      -6.64413993 Ry
     estimated scf accuracy    <       0.00000131 Ry

     The total energy is the sum of the following terms:

     one-electron contribution =       2.98294024 Ry
     hartree contribution      =       0.00842062 Ry
     xc contribution           =      -4.22919462 Ry
     ewald contribution        =      -5.40634338 Ry
     smearing contrib. (-TS)   =       0.00003753 Ry

     convergence has been achieved in   3 iterations
 
     init_run     :     18.07s CPU      2.30s WALL (       1 calls)
     electrons    :    333.11s CPU     30.74s WALL (       1 calls)

     Called by init_run:
     wfcinit      :     17.90s CPU      2.16s WALL (       1 calls)
     wfcinit:atom :      0.39s CPU      0.05s WALL (    1098 calls)
     wfcinit:wfcr :     16.56s CPU      2.00s WALL (    1098 calls)
     potinit      :      0.01s CPU      0.01s WALL (       1 calls)

     Called by electrons:
     c_bands      :    322.76s CPU     27.67s WALL (       4 calls)
     sum_band     :      9.39s CPU      3.02s WALL (       4 calls)
     v_of_rho     :      0.02s CPU      0.00s WALL (       4 calls)
     v_h          :      0.01s CPU      0.00s WALL (       4 calls)
     v_xc         :      0.01s CPU      0.00s WALL (       4 calls)
     newd         :      0.11s CPU      0.01s WALL (       4 calls)
     mix_rho      :      0.01s CPU      0.00s WALL (       4 calls)

     Called by c_bands:
     init_us_2    :      4.91s CPU      0.65s WALL (    9882 calls)
     cegterg      :    297.78s CPU     25.05s WALL (    4392 calls)

     Called by sum_band:
     sum_band:bec :      0.10s CPU      0.02s WALL (    4392 calls)
     addusdens    :      0.00s CPU      0.01s WALL (       4 calls)

     Called by *egterg:
     h_psi        :    273.04s CPU     23.80s WALL (   15004 calls)
     s_psi        :      2.30s CPU      0.21s WALL (   15004 calls)
     g_psi        :      1.18s CPU      0.10s WALL (    9514 calls)
     cdiaghg      :     14.35s CPU      1.16s WALL (   12808 calls)
     cegterg:over :      3.49s CPU      0.29s WALL (    9514 calls)
     cegterg:upda :      3.10s CPU      0.26s WALL (    9514 calls)
     cegterg:last :      2.25s CPU      0.18s WALL (    4976 calls)

     Called by h_psi:
     h_psi:pot    :    270.85s CPU     23.61s WALL (   15004 calls)
     h_psi:calbec :      3.37s CPU      0.27s WALL (   15004 calls)
     vloc_psi     :    262.01s CPU     22.91s WALL (   15004 calls)
     add_vuspsi   :      2.42s CPU      0.22s WALL (   15004 calls)

     General routines
     calbec       :      2.10s CPU      0.22s WALL (   19396 calls)
     fft          :      0.02s CPU      0.02s WALL (      26 calls)
     fftw         :    216.84s CPU     20.87s WALL (  176346 calls)
 
     Parallel routines
 
     PWSCF        :  5m51.38s CPU     0m33.10s WALL

 
   This run was terminated on:  12:26: 0  24Jan2019            

=------------------------------------------------------------------------------=
   JOB DONE.
=------------------------------------------------------------------------------=
