
     Program PWSCF v.6.2 (svn rev. 14038) starts on 24Jan2019 at 17:29:53 

     This program is part of the open-source Quantum ESPRESSO suite
     for quantum simulation of materials; please cite
         "P. Giannozzi et al., J. Phys.:Condens. Matter 21 395502 (2009);
         "P. Giannozzi et al., J. Phys.:Condens. Matter 29 465901 (2017);
          URL http://www.quantum-espresso.org", 
     in publications or presentations arising from this work. More details at
     http://www.quantum-espresso.org/quote

     Parallel version (MPI), running on     1 processors

     MPI processes distributed on     1 nodes
     Reading input from ./AlfccSEP0DOT0.in
Warning: card &IONS ignored
Warning: card / ignored
Warning: card &CELL ignored
Warning: card / ignored

     Current dimensions of program PWSCF are:
     Max number of different atomic species (ntypx) = 10
     Max number of k-points (npk) =  40000
     Max angular momentum in pseudopotentials (lmaxx) =  3
     Message from routine iosys:
     minimal I/O required, wf_collect reset to FALSE

     Subspace diagonalization in iterative solution of the eigenvalue problem:
     a serial algorithm will be used

     Found symmetry operation: I + ( -0.5000 -0.5000  0.0000)
     This is a supercell, fractional translations are disabled
 
     G-vector sticks info
     --------------------
     sticks:   dense  smooth     PW     G-vecs:    dense   smooth      PW
     Sum         465     465    145                 7497     7497    1365
 


     bravais-lattice index     =            0
     lattice parameter (alat)  =       7.6325  a.u.
     unit-cell volume          =     444.6267 (a.u.)^3
     number of atoms/cell      =            4
     number of atomic types    =            1
     number of electrons       =        12.00
     number of Kohn-Sham states=           10
     kinetic-energy cutoff     =      25.0000  Ry
     charge density cutoff     =     100.0000  Ry
     convergence threshold     =      1.0E-07
     mixing beta               =       0.7000
     number of iterations used =            8  plain     mixing
     Exchange-correlation      = SLA  PW   PBE  PBE ( 1  4  3  4 0 0)

     celldm(1)=   7.632472  celldm(2)=   0.000000  celldm(3)=   0.000000
     celldm(4)=   0.000000  celldm(5)=   0.000000  celldm(6)=   0.000000

     crystal axes: (cart. coord. in units of alat)
               a(1) = (   1.000000   0.000000   0.000000 )  
               a(2) = (   0.000000   1.000000   0.000000 )  
               a(3) = (   0.000000   0.000000   1.000000 )  

     reciprocal axes: (cart. coord. in units 2 pi/alat)
               b(1) = (  1.000000  0.000000  0.000000 )  
               b(2) = (  0.000000  1.000000  0.000000 )  
               b(3) = (  0.000000  0.000000  1.000000 )  


     PseudoPot. # 1 for Al read from file:
     ./al_pbe_v1.uspp.F.UPF
     MD5 check sum: 0a6289f5291fc8f409219462bc851e1f
     Pseudo is Ultrasoft + core correction, Zval =  3.0
     Generated by new atomic code, or converted to UPF format
     Using radial grid of  893 points,  3 beta functions with: 
                l(1) =   0
                l(2) =   1
                l(3) =   2
     Q(r) pseudized with  8 coefficients,  rinner =    0.900   0.900   0.900
                                                       0.900   0.900

     atomic species   valence    mass     pseudopotential
        Al             3.00    26.98150     Al( 1.00)

     48 Sym. Ops., with inversion, found


                                    s                        frac. trans.

      isym =  1     identity                                     

 cryst.   s( 1) = (     1          0          0      )
                  (     0          1          0      )
                  (     0          0          1      )

 cart.    s( 1) = (  1.0000000  0.0000000  0.0000000 )
                  (  0.0000000  1.0000000  0.0000000 )
                  (  0.0000000  0.0000000  1.0000000 )


      isym =  2     180 deg rotation - cart. axis [0,0,1]        

 cryst.   s( 2) = (    -1          0          0      )
                  (     0         -1          0      )
                  (     0          0          1      )

 cart.    s( 2) = ( -1.0000000  0.0000000  0.0000000 )
                  (  0.0000000 -1.0000000  0.0000000 )
                  (  0.0000000  0.0000000  1.0000000 )


      isym =  3     180 deg rotation - cart. axis [0,1,0]        

 cryst.   s( 3) = (    -1          0          0      )
                  (     0          1          0      )
                  (     0          0         -1      )

 cart.    s( 3) = ( -1.0000000  0.0000000  0.0000000 )
                  (  0.0000000  1.0000000  0.0000000 )
                  (  0.0000000  0.0000000 -1.0000000 )


      isym =  4     180 deg rotation - cart. axis [1,0,0]        

 cryst.   s( 4) = (     1          0          0      )
                  (     0         -1          0      )
                  (     0          0         -1      )

 cart.    s( 4) = (  1.0000000  0.0000000  0.0000000 )
                  (  0.0000000 -1.0000000  0.0000000 )
                  (  0.0000000  0.0000000 -1.0000000 )


      isym =  5     180 deg rotation - cart. axis [1,1,0]        

 cryst.   s( 5) = (     0          1          0      )
                  (     1          0          0      )
                  (     0          0         -1      )

 cart.    s( 5) = (  0.0000000  1.0000000  0.0000000 )
                  (  1.0000000  0.0000000  0.0000000 )
                  (  0.0000000  0.0000000 -1.0000000 )


      isym =  6     180 deg rotation - cart. axis [1,-1,0]       

 cryst.   s( 6) = (     0         -1          0      )
                  (    -1          0          0      )
                  (     0          0         -1      )

 cart.    s( 6) = (  0.0000000 -1.0000000  0.0000000 )
                  ( -1.0000000  0.0000000  0.0000000 )
                  (  0.0000000  0.0000000 -1.0000000 )


      isym =  7      90 deg rotation - cart. axis [0,0,-1]       

 cryst.   s( 7) = (     0         -1          0      )
                  (     1          0          0      )
                  (     0          0          1      )

 cart.    s( 7) = (  0.0000000  1.0000000  0.0000000 )
                  ( -1.0000000  0.0000000  0.0000000 )
                  (  0.0000000  0.0000000  1.0000000 )


      isym =  8      90 deg rotation - cart. axis [0,0,1]        

 cryst.   s( 8) = (     0          1          0      )
                  (    -1          0          0      )
                  (     0          0          1      )

 cart.    s( 8) = (  0.0000000 -1.0000000  0.0000000 )
                  (  1.0000000  0.0000000  0.0000000 )
                  (  0.0000000  0.0000000  1.0000000 )


      isym =  9     180 deg rotation - cart. axis [1,0,1]        

 cryst.   s( 9) = (     0          0          1      )
                  (     0         -1          0      )
                  (     1          0          0      )

 cart.    s( 9) = (  0.0000000  0.0000000  1.0000000 )
                  (  0.0000000 -1.0000000  0.0000000 )
                  (  1.0000000  0.0000000  0.0000000 )


      isym = 10     180 deg rotation - cart. axis [-1,0,1]       

 cryst.   s(10) = (     0          0         -1      )
                  (     0         -1          0      )
                  (    -1          0          0      )

 cart.    s(10) = (  0.0000000  0.0000000 -1.0000000 )
                  (  0.0000000 -1.0000000  0.0000000 )
                  ( -1.0000000  0.0000000  0.0000000 )


      isym = 11      90 deg rotation - cart. axis [0,1,0]        

 cryst.   s(11) = (     0          0         -1      )
                  (     0          1          0      )
                  (     1          0          0      )

 cart.    s(11) = (  0.0000000  0.0000000  1.0000000 )
                  (  0.0000000  1.0000000  0.0000000 )
                  ( -1.0000000  0.0000000  0.0000000 )


      isym = 12      90 deg rotation - cart. axis [0,-1,0]       

 cryst.   s(12) = (     0          0          1      )
                  (     0          1          0      )
                  (    -1          0          0      )

 cart.    s(12) = (  0.0000000  0.0000000 -1.0000000 )
                  (  0.0000000  1.0000000  0.0000000 )
                  (  1.0000000  0.0000000  0.0000000 )


      isym = 13     180 deg rotation - cart. axis [0,1,1]        

 cryst.   s(13) = (    -1          0          0      )
                  (     0          0          1      )
                  (     0          1          0      )

 cart.    s(13) = ( -1.0000000  0.0000000  0.0000000 )
                  (  0.0000000  0.0000000  1.0000000 )
                  (  0.0000000  1.0000000  0.0000000 )


      isym = 14     180 deg rotation - cart. axis [0,1,-1]       

 cryst.   s(14) = (    -1          0          0      )
                  (     0          0         -1      )
                  (     0         -1          0      )

 cart.    s(14) = ( -1.0000000  0.0000000  0.0000000 )
                  (  0.0000000  0.0000000 -1.0000000 )
                  (  0.0000000 -1.0000000  0.0000000 )


      isym = 15      90 deg rotation - cart. axis [-1,0,0]       

 cryst.   s(15) = (     1          0          0      )
                  (     0          0         -1      )
                  (     0          1          0      )

 cart.    s(15) = (  1.0000000  0.0000000  0.0000000 )
                  (  0.0000000  0.0000000  1.0000000 )
                  (  0.0000000 -1.0000000  0.0000000 )


      isym = 16      90 deg rotation - cart. axis [1,0,0]        

 cryst.   s(16) = (     1          0          0      )
                  (     0          0          1      )
                  (     0         -1          0      )

 cart.    s(16) = (  1.0000000  0.0000000  0.0000000 )
                  (  0.0000000  0.0000000 -1.0000000 )
                  (  0.0000000  1.0000000  0.0000000 )


      isym = 17     120 deg rotation - cart. axis [-1,-1,-1]     

 cryst.   s(17) = (     0          0          1      )
                  (     1          0          0      )
                  (     0          1          0      )

 cart.    s(17) = (  0.0000000  1.0000000  0.0000000 )
                  (  0.0000000  0.0000000  1.0000000 )
                  (  1.0000000  0.0000000  0.0000000 )


      isym = 18     120 deg rotation - cart. axis [-1,1,1]       

 cryst.   s(18) = (     0          0         -1      )
                  (    -1          0          0      )
                  (     0          1          0      )

 cart.    s(18) = (  0.0000000 -1.0000000  0.0000000 )
                  (  0.0000000  0.0000000  1.0000000 )
                  ( -1.0000000  0.0000000  0.0000000 )


      isym = 19     120 deg rotation - cart. axis [1,1,-1]       

 cryst.   s(19) = (     0          0         -1      )
                  (     1          0          0      )
                  (     0         -1          0      )

 cart.    s(19) = (  0.0000000  1.0000000  0.0000000 )
                  (  0.0000000  0.0000000 -1.0000000 )
                  ( -1.0000000  0.0000000  0.0000000 )


      isym = 20     120 deg rotation - cart. axis [1,-1,1]       

 cryst.   s(20) = (     0          0          1      )
                  (    -1          0          0      )
                  (     0         -1          0      )

 cart.    s(20) = (  0.0000000 -1.0000000  0.0000000 )
                  (  0.0000000  0.0000000 -1.0000000 )
                  (  1.0000000  0.0000000  0.0000000 )


      isym = 21     120 deg rotation - cart. axis [1,1,1]        

 cryst.   s(21) = (     0          1          0      )
                  (     0          0          1      )
                  (     1          0          0      )

 cart.    s(21) = (  0.0000000  0.0000000  1.0000000 )
                  (  1.0000000  0.0000000  0.0000000 )
                  (  0.0000000  1.0000000  0.0000000 )


      isym = 22     120 deg rotation - cart. axis [-1,1,-1]      

 cryst.   s(22) = (     0         -1          0      )
                  (     0          0         -1      )
                  (     1          0          0      )

 cart.    s(22) = (  0.0000000  0.0000000  1.0000000 )
                  ( -1.0000000  0.0000000  0.0000000 )
                  (  0.0000000 -1.0000000  0.0000000 )


      isym = 23     120 deg rotation - cart. axis [1,-1,-1]      

 cryst.   s(23) = (     0         -1          0      )
                  (     0          0          1      )
                  (    -1          0          0      )

 cart.    s(23) = (  0.0000000  0.0000000 -1.0000000 )
                  ( -1.0000000  0.0000000  0.0000000 )
                  (  0.0000000  1.0000000  0.0000000 )


      isym = 24     120 deg rotation - cart. axis [-1,-1,1]      

 cryst.   s(24) = (     0          1          0      )
                  (     0          0         -1      )
                  (    -1          0          0      )

 cart.    s(24) = (  0.0000000  0.0000000 -1.0000000 )
                  (  1.0000000  0.0000000  0.0000000 )
                  (  0.0000000 -1.0000000  0.0000000 )


      isym = 25     inversion                                    

 cryst.   s(25) = (    -1          0          0      )
                  (     0         -1          0      )
                  (     0          0         -1      )

 cart.    s(25) = ( -1.0000000  0.0000000  0.0000000 )
                  (  0.0000000 -1.0000000  0.0000000 )
                  (  0.0000000  0.0000000 -1.0000000 )


      isym = 26     inv. 180 deg rotation - cart. axis [0,0,1]   

 cryst.   s(26) = (     1          0          0      )
                  (     0          1          0      )
                  (     0          0         -1      )

 cart.    s(26) = (  1.0000000  0.0000000  0.0000000 )
                  (  0.0000000  1.0000000  0.0000000 )
                  (  0.0000000  0.0000000 -1.0000000 )


      isym = 27     inv. 180 deg rotation - cart. axis [0,1,0]   

 cryst.   s(27) = (     1          0          0      )
                  (     0         -1          0      )
                  (     0          0          1      )

 cart.    s(27) = (  1.0000000  0.0000000  0.0000000 )
                  (  0.0000000 -1.0000000  0.0000000 )
                  (  0.0000000  0.0000000  1.0000000 )


      isym = 28     inv. 180 deg rotation - cart. axis [1,0,0]   

 cryst.   s(28) = (    -1          0          0      )
                  (     0          1          0      )
                  (     0          0          1      )

 cart.    s(28) = ( -1.0000000  0.0000000  0.0000000 )
                  (  0.0000000  1.0000000  0.0000000 )
                  (  0.0000000  0.0000000  1.0000000 )


      isym = 29     inv. 180 deg rotation - cart. axis [1,1,0]   

 cryst.   s(29) = (     0         -1          0      )
                  (    -1          0          0      )
                  (     0          0          1      )

 cart.    s(29) = (  0.0000000 -1.0000000  0.0000000 )
                  ( -1.0000000  0.0000000  0.0000000 )
                  (  0.0000000  0.0000000  1.0000000 )


      isym = 30     inv. 180 deg rotation - cart. axis [1,-1,0]  

 cryst.   s(30) = (     0          1          0      )
                  (     1          0          0      )
                  (     0          0          1      )

 cart.    s(30) = (  0.0000000  1.0000000  0.0000000 )
                  (  1.0000000  0.0000000  0.0000000 )
                  (  0.0000000  0.0000000  1.0000000 )


      isym = 31     inv.  90 deg rotation - cart. axis [0,0,-1]  

 cryst.   s(31) = (     0          1          0      )
                  (    -1          0          0      )
                  (     0          0         -1      )

 cart.    s(31) = (  0.0000000 -1.0000000  0.0000000 )
                  (  1.0000000  0.0000000  0.0000000 )
                  (  0.0000000  0.0000000 -1.0000000 )


      isym = 32     inv.  90 deg rotation - cart. axis [0,0,1]   

 cryst.   s(32) = (     0         -1          0      )
                  (     1          0          0      )
                  (     0          0         -1      )

 cart.    s(32) = (  0.0000000  1.0000000  0.0000000 )
                  ( -1.0000000  0.0000000  0.0000000 )
                  (  0.0000000  0.0000000 -1.0000000 )


      isym = 33     inv. 180 deg rotation - cart. axis [1,0,1]   

 cryst.   s(33) = (     0          0         -1      )
                  (     0          1          0      )
                  (    -1          0          0      )

 cart.    s(33) = (  0.0000000  0.0000000 -1.0000000 )
                  (  0.0000000  1.0000000  0.0000000 )
                  ( -1.0000000  0.0000000  0.0000000 )


      isym = 34     inv. 180 deg rotation - cart. axis [-1,0,1]  

 cryst.   s(34) = (     0          0          1      )
                  (     0          1          0      )
                  (     1          0          0      )

 cart.    s(34) = (  0.0000000  0.0000000  1.0000000 )
                  (  0.0000000  1.0000000  0.0000000 )
                  (  1.0000000  0.0000000  0.0000000 )


      isym = 35     inv.  90 deg rotation - cart. axis [0,1,0]   

 cryst.   s(35) = (     0          0          1      )
                  (     0         -1          0      )
                  (    -1          0          0      )

 cart.    s(35) = (  0.0000000  0.0000000 -1.0000000 )
                  (  0.0000000 -1.0000000  0.0000000 )
                  (  1.0000000  0.0000000  0.0000000 )


      isym = 36     inv.  90 deg rotation - cart. axis [0,-1,0]  

 cryst.   s(36) = (     0          0         -1      )
                  (     0         -1          0      )
                  (     1          0          0      )

 cart.    s(36) = (  0.0000000  0.0000000  1.0000000 )
                  (  0.0000000 -1.0000000  0.0000000 )
                  ( -1.0000000  0.0000000  0.0000000 )


      isym = 37     inv. 180 deg rotation - cart. axis [0,1,1]   

 cryst.   s(37) = (     1          0          0      )
                  (     0          0         -1      )
                  (     0         -1          0      )

 cart.    s(37) = (  1.0000000  0.0000000  0.0000000 )
                  (  0.0000000  0.0000000 -1.0000000 )
                  (  0.0000000 -1.0000000  0.0000000 )


      isym = 38     inv. 180 deg rotation - cart. axis [0,1,-1]  

 cryst.   s(38) = (     1          0          0      )
                  (     0          0          1      )
                  (     0          1          0      )

 cart.    s(38) = (  1.0000000  0.0000000  0.0000000 )
                  (  0.0000000  0.0000000  1.0000000 )
                  (  0.0000000  1.0000000  0.0000000 )


      isym = 39     inv.  90 deg rotation - cart. axis [-1,0,0]  

 cryst.   s(39) = (    -1          0          0      )
                  (     0          0          1      )
                  (     0         -1          0      )

 cart.    s(39) = ( -1.0000000  0.0000000  0.0000000 )
                  (  0.0000000  0.0000000 -1.0000000 )
                  (  0.0000000  1.0000000  0.0000000 )


      isym = 40     inv.  90 deg rotation - cart. axis [1,0,0]   

 cryst.   s(40) = (    -1          0          0      )
                  (     0          0         -1      )
                  (     0          1          0      )

 cart.    s(40) = ( -1.0000000  0.0000000  0.0000000 )
                  (  0.0000000  0.0000000  1.0000000 )
                  (  0.0000000 -1.0000000  0.0000000 )


      isym = 41     inv. 120 deg rotation - cart. axis [-1,-1,-1]

 cryst.   s(41) = (     0          0         -1      )
                  (    -1          0          0      )
                  (     0         -1          0      )

 cart.    s(41) = (  0.0000000 -1.0000000  0.0000000 )
                  (  0.0000000  0.0000000 -1.0000000 )
                  ( -1.0000000  0.0000000  0.0000000 )


      isym = 42     inv. 120 deg rotation - cart. axis [-1,1,1]  

 cryst.   s(42) = (     0          0          1      )
                  (     1          0          0      )
                  (     0         -1          0      )

 cart.    s(42) = (  0.0000000  1.0000000  0.0000000 )
                  (  0.0000000  0.0000000 -1.0000000 )
                  (  1.0000000  0.0000000  0.0000000 )


      isym = 43     inv. 120 deg rotation - cart. axis [1,1,-1]  

 cryst.   s(43) = (     0          0          1      )
                  (    -1          0          0      )
                  (     0          1          0      )

 cart.    s(43) = (  0.0000000 -1.0000000  0.0000000 )
                  (  0.0000000  0.0000000  1.0000000 )
                  (  1.0000000  0.0000000  0.0000000 )


      isym = 44     inv. 120 deg rotation - cart. axis [1,-1,1]  

 cryst.   s(44) = (     0          0         -1      )
                  (     1          0          0      )
                  (     0          1          0      )

 cart.    s(44) = (  0.0000000  1.0000000  0.0000000 )
                  (  0.0000000  0.0000000  1.0000000 )
                  ( -1.0000000  0.0000000  0.0000000 )


      isym = 45     inv. 120 deg rotation - cart. axis [1,1,1]   

 cryst.   s(45) = (     0         -1          0      )
                  (     0          0         -1      )
                  (    -1          0          0      )

 cart.    s(45) = (  0.0000000  0.0000000 -1.0000000 )
                  ( -1.0000000  0.0000000  0.0000000 )
                  (  0.0000000 -1.0000000  0.0000000 )


      isym = 46     inv. 120 deg rotation - cart. axis [-1,1,-1] 

 cryst.   s(46) = (     0          1          0      )
                  (     0          0          1      )
                  (    -1          0          0      )

 cart.    s(46) = (  0.0000000  0.0000000 -1.0000000 )
                  (  1.0000000  0.0000000  0.0000000 )
                  (  0.0000000  1.0000000  0.0000000 )


      isym = 47     inv. 120 deg rotation - cart. axis [1,-1,-1] 

 cryst.   s(47) = (     0          1          0      )
                  (     0          0         -1      )
                  (     1          0          0      )

 cart.    s(47) = (  0.0000000  0.0000000  1.0000000 )
                  (  1.0000000  0.0000000  0.0000000 )
                  (  0.0000000 -1.0000000  0.0000000 )


      isym = 48     inv. 120 deg rotation - cart. axis [-1,-1,1] 

 cryst.   s(48) = (     0         -1          0      )
                  (     0          0          1      )
                  (     1          0          0      )

 cart.    s(48) = (  0.0000000  0.0000000  1.0000000 )
                  ( -1.0000000  0.0000000  0.0000000 )
                  (  0.0000000  1.0000000  0.0000000 )


   Cartesian axes

     site n.     atom                  positions (alat units)
         1           Al  tau(   1) = (   0.0000000   0.0000000   0.0000000  )
         2           Al  tau(   2) = (   0.5000000   0.5000000   0.0000000  )
         3           Al  tau(   3) = (   0.5000000   0.0000000   0.5000000  )
         4           Al  tau(   4) = (   0.0000000   0.5000000   0.5000000  )

   Crystallographic axes

     site n.     atom                  positions (cryst. coord.)
         1           Al  tau(   1) = (  0.0000000  0.0000000  0.0000000  )
         2           Al  tau(   2) = (  0.5000000  0.5000000  0.0000000  )
         3           Al  tau(   3) = (  0.5000000  0.0000000  0.5000000  )
         4           Al  tau(   4) = (  0.0000000  0.5000000  0.5000000  )

     number of k points=   220  Marzari-Vanderbilt smearing, width (Ry)=  0.0100
                       cart. coord. in units 2pi/alat
        k(    1) = (   0.0000000   0.0000000   0.0000000), wk =   0.0003429
        k(    2) = (   0.0000000   0.0000000   0.0555556), wk =   0.0020576
        k(    3) = (   0.0000000   0.0000000   0.1111111), wk =   0.0020576
        k(    4) = (   0.0000000   0.0000000   0.1666667), wk =   0.0020576
        k(    5) = (   0.0000000   0.0000000   0.2222222), wk =   0.0020576
        k(    6) = (   0.0000000   0.0000000   0.2777778), wk =   0.0020576
        k(    7) = (   0.0000000   0.0000000   0.3333333), wk =   0.0020576
        k(    8) = (   0.0000000   0.0000000   0.3888889), wk =   0.0020576
        k(    9) = (   0.0000000   0.0000000   0.4444444), wk =   0.0020576
        k(   10) = (   0.0000000   0.0000000  -0.5000000), wk =   0.0010288
        k(   11) = (   0.0000000   0.0555556   0.0555556), wk =   0.0041152
        k(   12) = (   0.0000000   0.0555556   0.1111111), wk =   0.0082305
        k(   13) = (   0.0000000   0.0555556   0.1666667), wk =   0.0082305
        k(   14) = (   0.0000000   0.0555556   0.2222222), wk =   0.0082305
        k(   15) = (   0.0000000   0.0555556   0.2777778), wk =   0.0082305
        k(   16) = (   0.0000000   0.0555556   0.3333333), wk =   0.0082305
        k(   17) = (   0.0000000   0.0555556   0.3888889), wk =   0.0082305
        k(   18) = (   0.0000000   0.0555556   0.4444444), wk =   0.0082305
        k(   19) = (   0.0000000   0.0555556  -0.5000000), wk =   0.0041152
        k(   20) = (   0.0000000   0.1111111   0.1111111), wk =   0.0041152
        k(   21) = (   0.0000000   0.1111111   0.1666667), wk =   0.0082305
        k(   22) = (   0.0000000   0.1111111   0.2222222), wk =   0.0082305
        k(   23) = (   0.0000000   0.1111111   0.2777778), wk =   0.0082305
        k(   24) = (   0.0000000   0.1111111   0.3333333), wk =   0.0082305
        k(   25) = (   0.0000000   0.1111111   0.3888889), wk =   0.0082305
        k(   26) = (   0.0000000   0.1111111   0.4444444), wk =   0.0082305
        k(   27) = (   0.0000000   0.1111111  -0.5000000), wk =   0.0041152
        k(   28) = (   0.0000000   0.1666667   0.1666667), wk =   0.0041152
        k(   29) = (   0.0000000   0.1666667   0.2222222), wk =   0.0082305
        k(   30) = (   0.0000000   0.1666667   0.2777778), wk =   0.0082305
        k(   31) = (   0.0000000   0.1666667   0.3333333), wk =   0.0082305
        k(   32) = (   0.0000000   0.1666667   0.3888889), wk =   0.0082305
        k(   33) = (   0.0000000   0.1666667   0.4444444), wk =   0.0082305
        k(   34) = (   0.0000000   0.1666667  -0.5000000), wk =   0.0041152
        k(   35) = (   0.0000000   0.2222222   0.2222222), wk =   0.0041152
        k(   36) = (   0.0000000   0.2222222   0.2777778), wk =   0.0082305
        k(   37) = (   0.0000000   0.2222222   0.3333333), wk =   0.0082305
        k(   38) = (   0.0000000   0.2222222   0.3888889), wk =   0.0082305
        k(   39) = (   0.0000000   0.2222222   0.4444444), wk =   0.0082305
        k(   40) = (   0.0000000   0.2222222  -0.5000000), wk =   0.0041152
        k(   41) = (   0.0000000   0.2777778   0.2777778), wk =   0.0041152
        k(   42) = (   0.0000000   0.2777778   0.3333333), wk =   0.0082305
        k(   43) = (   0.0000000   0.2777778   0.3888889), wk =   0.0082305
        k(   44) = (   0.0000000   0.2777778   0.4444444), wk =   0.0082305
        k(   45) = (   0.0000000   0.2777778  -0.5000000), wk =   0.0041152
        k(   46) = (   0.0000000   0.3333333   0.3333333), wk =   0.0041152
        k(   47) = (   0.0000000   0.3333333   0.3888889), wk =   0.0082305
        k(   48) = (   0.0000000   0.3333333   0.4444444), wk =   0.0082305
        k(   49) = (   0.0000000   0.3333333  -0.5000000), wk =   0.0041152
        k(   50) = (   0.0000000   0.3888889   0.3888889), wk =   0.0041152
        k(   51) = (   0.0000000   0.3888889   0.4444444), wk =   0.0082305
        k(   52) = (   0.0000000   0.3888889  -0.5000000), wk =   0.0041152
        k(   53) = (   0.0000000   0.4444444   0.4444444), wk =   0.0041152
        k(   54) = (   0.0000000   0.4444444  -0.5000000), wk =   0.0041152
        k(   55) = (   0.0000000  -0.5000000  -0.5000000), wk =   0.0010288
        k(   56) = (   0.0555556   0.0555556   0.0555556), wk =   0.0027435
        k(   57) = (   0.0555556   0.0555556   0.1111111), wk =   0.0082305
        k(   58) = (   0.0555556   0.0555556   0.1666667), wk =   0.0082305
        k(   59) = (   0.0555556   0.0555556   0.2222222), wk =   0.0082305
        k(   60) = (   0.0555556   0.0555556   0.2777778), wk =   0.0082305
        k(   61) = (   0.0555556   0.0555556   0.3333333), wk =   0.0082305
        k(   62) = (   0.0555556   0.0555556   0.3888889), wk =   0.0082305
        k(   63) = (   0.0555556   0.0555556   0.4444444), wk =   0.0082305
        k(   64) = (   0.0555556   0.0555556  -0.5000000), wk =   0.0041152
        k(   65) = (   0.0555556   0.1111111   0.1111111), wk =   0.0082305
        k(   66) = (   0.0555556   0.1111111   0.1666667), wk =   0.0164609
        k(   67) = (   0.0555556   0.1111111   0.2222222), wk =   0.0164609
        k(   68) = (   0.0555556   0.1111111   0.2777778), wk =   0.0164609
        k(   69) = (   0.0555556   0.1111111   0.3333333), wk =   0.0164609
        k(   70) = (   0.0555556   0.1111111   0.3888889), wk =   0.0164609
        k(   71) = (   0.0555556   0.1111111   0.4444444), wk =   0.0164609
        k(   72) = (   0.0555556   0.1111111  -0.5000000), wk =   0.0082305
        k(   73) = (   0.0555556   0.1666667   0.1666667), wk =   0.0082305
        k(   74) = (   0.0555556   0.1666667   0.2222222), wk =   0.0164609
        k(   75) = (   0.0555556   0.1666667   0.2777778), wk =   0.0164609
        k(   76) = (   0.0555556   0.1666667   0.3333333), wk =   0.0164609
        k(   77) = (   0.0555556   0.1666667   0.3888889), wk =   0.0164609
        k(   78) = (   0.0555556   0.1666667   0.4444444), wk =   0.0164609
        k(   79) = (   0.0555556   0.1666667  -0.5000000), wk =   0.0082305
        k(   80) = (   0.0555556   0.2222222   0.2222222), wk =   0.0082305
        k(   81) = (   0.0555556   0.2222222   0.2777778), wk =   0.0164609
        k(   82) = (   0.0555556   0.2222222   0.3333333), wk =   0.0164609
        k(   83) = (   0.0555556   0.2222222   0.3888889), wk =   0.0164609
        k(   84) = (   0.0555556   0.2222222   0.4444444), wk =   0.0164609
        k(   85) = (   0.0555556   0.2222222  -0.5000000), wk =   0.0082305
        k(   86) = (   0.0555556   0.2777778   0.2777778), wk =   0.0082305
        k(   87) = (   0.0555556   0.2777778   0.3333333), wk =   0.0164609
        k(   88) = (   0.0555556   0.2777778   0.3888889), wk =   0.0164609
        k(   89) = (   0.0555556   0.2777778   0.4444444), wk =   0.0164609
        k(   90) = (   0.0555556   0.2777778  -0.5000000), wk =   0.0082305
        k(   91) = (   0.0555556   0.3333333   0.3333333), wk =   0.0082305
        k(   92) = (   0.0555556   0.3333333   0.3888889), wk =   0.0164609
        k(   93) = (   0.0555556   0.3333333   0.4444444), wk =   0.0164609
        k(   94) = (   0.0555556   0.3333333  -0.5000000), wk =   0.0082305
        k(   95) = (   0.0555556   0.3888889   0.3888889), wk =   0.0082305
        k(   96) = (   0.0555556   0.3888889   0.4444444), wk =   0.0164609
        k(   97) = (   0.0555556   0.3888889  -0.5000000), wk =   0.0082305
        k(   98) = (   0.0555556   0.4444444   0.4444444), wk =   0.0082305
        k(   99) = (   0.0555556   0.4444444  -0.5000000), wk =   0.0082305
        k(  100) = (   0.0555556  -0.5000000  -0.5000000), wk =   0.0020576
        k(  101) = (   0.1111111   0.1111111   0.1111111), wk =   0.0027435
        k(  102) = (   0.1111111   0.1111111   0.1666667), wk =   0.0082305
        k(  103) = (   0.1111111   0.1111111   0.2222222), wk =   0.0082305
        k(  104) = (   0.1111111   0.1111111   0.2777778), wk =   0.0082305
        k(  105) = (   0.1111111   0.1111111   0.3333333), wk =   0.0082305
        k(  106) = (   0.1111111   0.1111111   0.3888889), wk =   0.0082305
        k(  107) = (   0.1111111   0.1111111   0.4444444), wk =   0.0082305
        k(  108) = (   0.1111111   0.1111111  -0.5000000), wk =   0.0041152
        k(  109) = (   0.1111111   0.1666667   0.1666667), wk =   0.0082305
        k(  110) = (   0.1111111   0.1666667   0.2222222), wk =   0.0164609
        k(  111) = (   0.1111111   0.1666667   0.2777778), wk =   0.0164609
        k(  112) = (   0.1111111   0.1666667   0.3333333), wk =   0.0164609
        k(  113) = (   0.1111111   0.1666667   0.3888889), wk =   0.0164609
        k(  114) = (   0.1111111   0.1666667   0.4444444), wk =   0.0164609
        k(  115) = (   0.1111111   0.1666667  -0.5000000), wk =   0.0082305
        k(  116) = (   0.1111111   0.2222222   0.2222222), wk =   0.0082305
        k(  117) = (   0.1111111   0.2222222   0.2777778), wk =   0.0164609
        k(  118) = (   0.1111111   0.2222222   0.3333333), wk =   0.0164609
        k(  119) = (   0.1111111   0.2222222   0.3888889), wk =   0.0164609
        k(  120) = (   0.1111111   0.2222222   0.4444444), wk =   0.0164609
        k(  121) = (   0.1111111   0.2222222  -0.5000000), wk =   0.0082305
        k(  122) = (   0.1111111   0.2777778   0.2777778), wk =   0.0082305
        k(  123) = (   0.1111111   0.2777778   0.3333333), wk =   0.0164609
        k(  124) = (   0.1111111   0.2777778   0.3888889), wk =   0.0164609
        k(  125) = (   0.1111111   0.2777778   0.4444444), wk =   0.0164609
        k(  126) = (   0.1111111   0.2777778  -0.5000000), wk =   0.0082305
        k(  127) = (   0.1111111   0.3333333   0.3333333), wk =   0.0082305
        k(  128) = (   0.1111111   0.3333333   0.3888889), wk =   0.0164609
        k(  129) = (   0.1111111   0.3333333   0.4444444), wk =   0.0164609
        k(  130) = (   0.1111111   0.3333333  -0.5000000), wk =   0.0082305
        k(  131) = (   0.1111111   0.3888889   0.3888889), wk =   0.0082305
        k(  132) = (   0.1111111   0.3888889   0.4444444), wk =   0.0164609
        k(  133) = (   0.1111111   0.3888889  -0.5000000), wk =   0.0082305
        k(  134) = (   0.1111111   0.4444444   0.4444444), wk =   0.0082305
        k(  135) = (   0.1111111   0.4444444  -0.5000000), wk =   0.0082305
        k(  136) = (   0.1111111  -0.5000000  -0.5000000), wk =   0.0020576
        k(  137) = (   0.1666667   0.1666667   0.1666667), wk =   0.0027435
        k(  138) = (   0.1666667   0.1666667   0.2222222), wk =   0.0082305
        k(  139) = (   0.1666667   0.1666667   0.2777778), wk =   0.0082305
        k(  140) = (   0.1666667   0.1666667   0.3333333), wk =   0.0082305
        k(  141) = (   0.1666667   0.1666667   0.3888889), wk =   0.0082305
        k(  142) = (   0.1666667   0.1666667   0.4444444), wk =   0.0082305
        k(  143) = (   0.1666667   0.1666667  -0.5000000), wk =   0.0041152
        k(  144) = (   0.1666667   0.2222222   0.2222222), wk =   0.0082305
        k(  145) = (   0.1666667   0.2222222   0.2777778), wk =   0.0164609
        k(  146) = (   0.1666667   0.2222222   0.3333333), wk =   0.0164609
        k(  147) = (   0.1666667   0.2222222   0.3888889), wk =   0.0164609
        k(  148) = (   0.1666667   0.2222222   0.4444444), wk =   0.0164609
        k(  149) = (   0.1666667   0.2222222  -0.5000000), wk =   0.0082305
        k(  150) = (   0.1666667   0.2777778   0.2777778), wk =   0.0082305
        k(  151) = (   0.1666667   0.2777778   0.3333333), wk =   0.0164609
        k(  152) = (   0.1666667   0.2777778   0.3888889), wk =   0.0164609
        k(  153) = (   0.1666667   0.2777778   0.4444444), wk =   0.0164609
        k(  154) = (   0.1666667   0.2777778  -0.5000000), wk =   0.0082305
        k(  155) = (   0.1666667   0.3333333   0.3333333), wk =   0.0082305
        k(  156) = (   0.1666667   0.3333333   0.3888889), wk =   0.0164609
        k(  157) = (   0.1666667   0.3333333   0.4444444), wk =   0.0164609
        k(  158) = (   0.1666667   0.3333333  -0.5000000), wk =   0.0082305
        k(  159) = (   0.1666667   0.3888889   0.3888889), wk =   0.0082305
        k(  160) = (   0.1666667   0.3888889   0.4444444), wk =   0.0164609
        k(  161) = (   0.1666667   0.3888889  -0.5000000), wk =   0.0082305
        k(  162) = (   0.1666667   0.4444444   0.4444444), wk =   0.0082305
        k(  163) = (   0.1666667   0.4444444  -0.5000000), wk =   0.0082305
        k(  164) = (   0.1666667  -0.5000000  -0.5000000), wk =   0.0020576
        k(  165) = (   0.2222222   0.2222222   0.2222222), wk =   0.0027435
        k(  166) = (   0.2222222   0.2222222   0.2777778), wk =   0.0082305
        k(  167) = (   0.2222222   0.2222222   0.3333333), wk =   0.0082305
        k(  168) = (   0.2222222   0.2222222   0.3888889), wk =   0.0082305
        k(  169) = (   0.2222222   0.2222222   0.4444444), wk =   0.0082305
        k(  170) = (   0.2222222   0.2222222  -0.5000000), wk =   0.0041152
        k(  171) = (   0.2222222   0.2777778   0.2777778), wk =   0.0082305
        k(  172) = (   0.2222222   0.2777778   0.3333333), wk =   0.0164609
        k(  173) = (   0.2222222   0.2777778   0.3888889), wk =   0.0164609
        k(  174) = (   0.2222222   0.2777778   0.4444444), wk =   0.0164609
        k(  175) = (   0.2222222   0.2777778  -0.5000000), wk =   0.0082305
        k(  176) = (   0.2222222   0.3333333   0.3333333), wk =   0.0082305
        k(  177) = (   0.2222222   0.3333333   0.3888889), wk =   0.0164609
        k(  178) = (   0.2222222   0.3333333   0.4444444), wk =   0.0164609
        k(  179) = (   0.2222222   0.3333333  -0.5000000), wk =   0.0082305
        k(  180) = (   0.2222222   0.3888889   0.3888889), wk =   0.0082305
        k(  181) = (   0.2222222   0.3888889   0.4444444), wk =   0.0164609
        k(  182) = (   0.2222222   0.3888889  -0.5000000), wk =   0.0082305
        k(  183) = (   0.2222222   0.4444444   0.4444444), wk =   0.0082305
        k(  184) = (   0.2222222   0.4444444  -0.5000000), wk =   0.0082305
        k(  185) = (   0.2222222  -0.5000000  -0.5000000), wk =   0.0020576
        k(  186) = (   0.2777778   0.2777778   0.2777778), wk =   0.0027435
        k(  187) = (   0.2777778   0.2777778   0.3333333), wk =   0.0082305
        k(  188) = (   0.2777778   0.2777778   0.3888889), wk =   0.0082305
        k(  189) = (   0.2777778   0.2777778   0.4444444), wk =   0.0082305
        k(  190) = (   0.2777778   0.2777778  -0.5000000), wk =   0.0041152
        k(  191) = (   0.2777778   0.3333333   0.3333333), wk =   0.0082305
        k(  192) = (   0.2777778   0.3333333   0.3888889), wk =   0.0164609
        k(  193) = (   0.2777778   0.3333333   0.4444444), wk =   0.0164609
        k(  194) = (   0.2777778   0.3333333  -0.5000000), wk =   0.0082305
        k(  195) = (   0.2777778   0.3888889   0.3888889), wk =   0.0082305
        k(  196) = (   0.2777778   0.3888889   0.4444444), wk =   0.0164609
        k(  197) = (   0.2777778   0.3888889  -0.5000000), wk =   0.0082305
        k(  198) = (   0.2777778   0.4444444   0.4444444), wk =   0.0082305
        k(  199) = (   0.2777778   0.4444444  -0.5000000), wk =   0.0082305
        k(  200) = (   0.2777778  -0.5000000  -0.5000000), wk =   0.0020576
        k(  201) = (   0.3333333   0.3333333   0.3333333), wk =   0.0027435
        k(  202) = (   0.3333333   0.3333333   0.3888889), wk =   0.0082305
        k(  203) = (   0.3333333   0.3333333   0.4444444), wk =   0.0082305
        k(  204) = (   0.3333333   0.3333333  -0.5000000), wk =   0.0041152
        k(  205) = (   0.3333333   0.3888889   0.3888889), wk =   0.0082305
        k(  206) = (   0.3333333   0.3888889   0.4444444), wk =   0.0164609
        k(  207) = (   0.3333333   0.3888889  -0.5000000), wk =   0.0082305
        k(  208) = (   0.3333333   0.4444444   0.4444444), wk =   0.0082305
        k(  209) = (   0.3333333   0.4444444  -0.5000000), wk =   0.0082305
        k(  210) = (   0.3333333  -0.5000000  -0.5000000), wk =   0.0020576
        k(  211) = (   0.3888889   0.3888889   0.3888889), wk =   0.0027435
        k(  212) = (   0.3888889   0.3888889   0.4444444), wk =   0.0082305
        k(  213) = (   0.3888889   0.3888889  -0.5000000), wk =   0.0041152
        k(  214) = (   0.3888889   0.4444444   0.4444444), wk =   0.0082305
        k(  215) = (   0.3888889   0.4444444  -0.5000000), wk =   0.0082305
        k(  216) = (   0.3888889  -0.5000000  -0.5000000), wk =   0.0020576
        k(  217) = (   0.4444444   0.4444444   0.4444444), wk =   0.0027435
        k(  218) = (   0.4444444   0.4444444  -0.5000000), wk =   0.0041152
        k(  219) = (   0.4444444  -0.5000000  -0.5000000), wk =   0.0020576
        k(  220) = (  -0.5000000  -0.5000000  -0.5000000), wk =   0.0003429

                       cryst. coord.
        k(    1) = (   0.0000000   0.0000000   0.0000000), wk =   0.0003429
        k(    2) = (   0.0000000   0.0000000   0.0555556), wk =   0.0020576
        k(    3) = (   0.0000000   0.0000000   0.1111111), wk =   0.0020576
        k(    4) = (   0.0000000   0.0000000   0.1666667), wk =   0.0020576
        k(    5) = (   0.0000000   0.0000000   0.2222222), wk =   0.0020576
        k(    6) = (   0.0000000   0.0000000   0.2777778), wk =   0.0020576
        k(    7) = (   0.0000000   0.0000000   0.3333333), wk =   0.0020576
        k(    8) = (   0.0000000   0.0000000   0.3888889), wk =   0.0020576
        k(    9) = (   0.0000000   0.0000000   0.4444444), wk =   0.0020576
        k(   10) = (   0.0000000   0.0000000  -0.5000000), wk =   0.0010288
        k(   11) = (   0.0000000   0.0555556   0.0555556), wk =   0.0041152
        k(   12) = (   0.0000000   0.0555556   0.1111111), wk =   0.0082305
        k(   13) = (   0.0000000   0.0555556   0.1666667), wk =   0.0082305
        k(   14) = (   0.0000000   0.0555556   0.2222222), wk =   0.0082305
        k(   15) = (   0.0000000   0.0555556   0.2777778), wk =   0.0082305
        k(   16) = (   0.0000000   0.0555556   0.3333333), wk =   0.0082305
        k(   17) = (   0.0000000   0.0555556   0.3888889), wk =   0.0082305
        k(   18) = (   0.0000000   0.0555556   0.4444444), wk =   0.0082305
        k(   19) = (   0.0000000   0.0555556  -0.5000000), wk =   0.0041152
        k(   20) = (   0.0000000   0.1111111   0.1111111), wk =   0.0041152
        k(   21) = (   0.0000000   0.1111111   0.1666667), wk =   0.0082305
        k(   22) = (   0.0000000   0.1111111   0.2222222), wk =   0.0082305
        k(   23) = (   0.0000000   0.1111111   0.2777778), wk =   0.0082305
        k(   24) = (   0.0000000   0.1111111   0.3333333), wk =   0.0082305
        k(   25) = (   0.0000000   0.1111111   0.3888889), wk =   0.0082305
        k(   26) = (   0.0000000   0.1111111   0.4444444), wk =   0.0082305
        k(   27) = (   0.0000000   0.1111111  -0.5000000), wk =   0.0041152
        k(   28) = (   0.0000000   0.1666667   0.1666667), wk =   0.0041152
        k(   29) = (   0.0000000   0.1666667   0.2222222), wk =   0.0082305
        k(   30) = (   0.0000000   0.1666667   0.2777778), wk =   0.0082305
        k(   31) = (   0.0000000   0.1666667   0.3333333), wk =   0.0082305
        k(   32) = (   0.0000000   0.1666667   0.3888889), wk =   0.0082305
        k(   33) = (   0.0000000   0.1666667   0.4444444), wk =   0.0082305
        k(   34) = (   0.0000000   0.1666667  -0.5000000), wk =   0.0041152
        k(   35) = (   0.0000000   0.2222222   0.2222222), wk =   0.0041152
        k(   36) = (   0.0000000   0.2222222   0.2777778), wk =   0.0082305
        k(   37) = (   0.0000000   0.2222222   0.3333333), wk =   0.0082305
        k(   38) = (   0.0000000   0.2222222   0.3888889), wk =   0.0082305
        k(   39) = (   0.0000000   0.2222222   0.4444444), wk =   0.0082305
        k(   40) = (   0.0000000   0.2222222  -0.5000000), wk =   0.0041152
        k(   41) = (   0.0000000   0.2777778   0.2777778), wk =   0.0041152
        k(   42) = (   0.0000000   0.2777778   0.3333333), wk =   0.0082305
        k(   43) = (   0.0000000   0.2777778   0.3888889), wk =   0.0082305
        k(   44) = (   0.0000000   0.2777778   0.4444444), wk =   0.0082305
        k(   45) = (   0.0000000   0.2777778  -0.5000000), wk =   0.0041152
        k(   46) = (   0.0000000   0.3333333   0.3333333), wk =   0.0041152
        k(   47) = (   0.0000000   0.3333333   0.3888889), wk =   0.0082305
        k(   48) = (   0.0000000   0.3333333   0.4444444), wk =   0.0082305
        k(   49) = (   0.0000000   0.3333333  -0.5000000), wk =   0.0041152
        k(   50) = (   0.0000000   0.3888889   0.3888889), wk =   0.0041152
        k(   51) = (   0.0000000   0.3888889   0.4444444), wk =   0.0082305
        k(   52) = (   0.0000000   0.3888889  -0.5000000), wk =   0.0041152
        k(   53) = (   0.0000000   0.4444444   0.4444444), wk =   0.0041152
        k(   54) = (   0.0000000   0.4444444  -0.5000000), wk =   0.0041152
        k(   55) = (   0.0000000  -0.5000000  -0.5000000), wk =   0.0010288
        k(   56) = (   0.0555556   0.0555556   0.0555556), wk =   0.0027435
        k(   57) = (   0.0555556   0.0555556   0.1111111), wk =   0.0082305
        k(   58) = (   0.0555556   0.0555556   0.1666667), wk =   0.0082305
        k(   59) = (   0.0555556   0.0555556   0.2222222), wk =   0.0082305
        k(   60) = (   0.0555556   0.0555556   0.2777778), wk =   0.0082305
        k(   61) = (   0.0555556   0.0555556   0.3333333), wk =   0.0082305
        k(   62) = (   0.0555556   0.0555556   0.3888889), wk =   0.0082305
        k(   63) = (   0.0555556   0.0555556   0.4444444), wk =   0.0082305
        k(   64) = (   0.0555556   0.0555556  -0.5000000), wk =   0.0041152
        k(   65) = (   0.0555556   0.1111111   0.1111111), wk =   0.0082305
        k(   66) = (   0.0555556   0.1111111   0.1666667), wk =   0.0164609
        k(   67) = (   0.0555556   0.1111111   0.2222222), wk =   0.0164609
        k(   68) = (   0.0555556   0.1111111   0.2777778), wk =   0.0164609
        k(   69) = (   0.0555556   0.1111111   0.3333333), wk =   0.0164609
        k(   70) = (   0.0555556   0.1111111   0.3888889), wk =   0.0164609
        k(   71) = (   0.0555556   0.1111111   0.4444444), wk =   0.0164609
        k(   72) = (   0.0555556   0.1111111  -0.5000000), wk =   0.0082305
        k(   73) = (   0.0555556   0.1666667   0.1666667), wk =   0.0082305
        k(   74) = (   0.0555556   0.1666667   0.2222222), wk =   0.0164609
        k(   75) = (   0.0555556   0.1666667   0.2777778), wk =   0.0164609
        k(   76) = (   0.0555556   0.1666667   0.3333333), wk =   0.0164609
        k(   77) = (   0.0555556   0.1666667   0.3888889), wk =   0.0164609
        k(   78) = (   0.0555556   0.1666667   0.4444444), wk =   0.0164609
        k(   79) = (   0.0555556   0.1666667  -0.5000000), wk =   0.0082305
        k(   80) = (   0.0555556   0.2222222   0.2222222), wk =   0.0082305
        k(   81) = (   0.0555556   0.2222222   0.2777778), wk =   0.0164609
        k(   82) = (   0.0555556   0.2222222   0.3333333), wk =   0.0164609
        k(   83) = (   0.0555556   0.2222222   0.3888889), wk =   0.0164609
        k(   84) = (   0.0555556   0.2222222   0.4444444), wk =   0.0164609
        k(   85) = (   0.0555556   0.2222222  -0.5000000), wk =   0.0082305
        k(   86) = (   0.0555556   0.2777778   0.2777778), wk =   0.0082305
        k(   87) = (   0.0555556   0.2777778   0.3333333), wk =   0.0164609
        k(   88) = (   0.0555556   0.2777778   0.3888889), wk =   0.0164609
        k(   89) = (   0.0555556   0.2777778   0.4444444), wk =   0.0164609
        k(   90) = (   0.0555556   0.2777778  -0.5000000), wk =   0.0082305
        k(   91) = (   0.0555556   0.3333333   0.3333333), wk =   0.0082305
        k(   92) = (   0.0555556   0.3333333   0.3888889), wk =   0.0164609
        k(   93) = (   0.0555556   0.3333333   0.4444444), wk =   0.0164609
        k(   94) = (   0.0555556   0.3333333  -0.5000000), wk =   0.0082305
        k(   95) = (   0.0555556   0.3888889   0.3888889), wk =   0.0082305
        k(   96) = (   0.0555556   0.3888889   0.4444444), wk =   0.0164609
        k(   97) = (   0.0555556   0.3888889  -0.5000000), wk =   0.0082305
        k(   98) = (   0.0555556   0.4444444   0.4444444), wk =   0.0082305
        k(   99) = (   0.0555556   0.4444444  -0.5000000), wk =   0.0082305
        k(  100) = (   0.0555556  -0.5000000  -0.5000000), wk =   0.0020576
        k(  101) = (   0.1111111   0.1111111   0.1111111), wk =   0.0027435
        k(  102) = (   0.1111111   0.1111111   0.1666667), wk =   0.0082305
        k(  103) = (   0.1111111   0.1111111   0.2222222), wk =   0.0082305
        k(  104) = (   0.1111111   0.1111111   0.2777778), wk =   0.0082305
        k(  105) = (   0.1111111   0.1111111   0.3333333), wk =   0.0082305
        k(  106) = (   0.1111111   0.1111111   0.3888889), wk =   0.0082305
        k(  107) = (   0.1111111   0.1111111   0.4444444), wk =   0.0082305
        k(  108) = (   0.1111111   0.1111111  -0.5000000), wk =   0.0041152
        k(  109) = (   0.1111111   0.1666667   0.1666667), wk =   0.0082305
        k(  110) = (   0.1111111   0.1666667   0.2222222), wk =   0.0164609
        k(  111) = (   0.1111111   0.1666667   0.2777778), wk =   0.0164609
        k(  112) = (   0.1111111   0.1666667   0.3333333), wk =   0.0164609
        k(  113) = (   0.1111111   0.1666667   0.3888889), wk =   0.0164609
        k(  114) = (   0.1111111   0.1666667   0.4444444), wk =   0.0164609
        k(  115) = (   0.1111111   0.1666667  -0.5000000), wk =   0.0082305
        k(  116) = (   0.1111111   0.2222222   0.2222222), wk =   0.0082305
        k(  117) = (   0.1111111   0.2222222   0.2777778), wk =   0.0164609
        k(  118) = (   0.1111111   0.2222222   0.3333333), wk =   0.0164609
        k(  119) = (   0.1111111   0.2222222   0.3888889), wk =   0.0164609
        k(  120) = (   0.1111111   0.2222222   0.4444444), wk =   0.0164609
        k(  121) = (   0.1111111   0.2222222  -0.5000000), wk =   0.0082305
        k(  122) = (   0.1111111   0.2777778   0.2777778), wk =   0.0082305
        k(  123) = (   0.1111111   0.2777778   0.3333333), wk =   0.0164609
        k(  124) = (   0.1111111   0.2777778   0.3888889), wk =   0.0164609
        k(  125) = (   0.1111111   0.2777778   0.4444444), wk =   0.0164609
        k(  126) = (   0.1111111   0.2777778  -0.5000000), wk =   0.0082305
        k(  127) = (   0.1111111   0.3333333   0.3333333), wk =   0.0082305
        k(  128) = (   0.1111111   0.3333333   0.3888889), wk =   0.0164609
        k(  129) = (   0.1111111   0.3333333   0.4444444), wk =   0.0164609
        k(  130) = (   0.1111111   0.3333333  -0.5000000), wk =   0.0082305
        k(  131) = (   0.1111111   0.3888889   0.3888889), wk =   0.0082305
        k(  132) = (   0.1111111   0.3888889   0.4444444), wk =   0.0164609
        k(  133) = (   0.1111111   0.3888889  -0.5000000), wk =   0.0082305
        k(  134) = (   0.1111111   0.4444444   0.4444444), wk =   0.0082305
        k(  135) = (   0.1111111   0.4444444  -0.5000000), wk =   0.0082305
        k(  136) = (   0.1111111  -0.5000000  -0.5000000), wk =   0.0020576
        k(  137) = (   0.1666667   0.1666667   0.1666667), wk =   0.0027435
        k(  138) = (   0.1666667   0.1666667   0.2222222), wk =   0.0082305
        k(  139) = (   0.1666667   0.1666667   0.2777778), wk =   0.0082305
        k(  140) = (   0.1666667   0.1666667   0.3333333), wk =   0.0082305
        k(  141) = (   0.1666667   0.1666667   0.3888889), wk =   0.0082305
        k(  142) = (   0.1666667   0.1666667   0.4444444), wk =   0.0082305
        k(  143) = (   0.1666667   0.1666667  -0.5000000), wk =   0.0041152
        k(  144) = (   0.1666667   0.2222222   0.2222222), wk =   0.0082305
        k(  145) = (   0.1666667   0.2222222   0.2777778), wk =   0.0164609
        k(  146) = (   0.1666667   0.2222222   0.3333333), wk =   0.0164609
        k(  147) = (   0.1666667   0.2222222   0.3888889), wk =   0.0164609
        k(  148) = (   0.1666667   0.2222222   0.4444444), wk =   0.0164609
        k(  149) = (   0.1666667   0.2222222  -0.5000000), wk =   0.0082305
        k(  150) = (   0.1666667   0.2777778   0.2777778), wk =   0.0082305
        k(  151) = (   0.1666667   0.2777778   0.3333333), wk =   0.0164609
        k(  152) = (   0.1666667   0.2777778   0.3888889), wk =   0.0164609
        k(  153) = (   0.1666667   0.2777778   0.4444444), wk =   0.0164609
        k(  154) = (   0.1666667   0.2777778  -0.5000000), wk =   0.0082305
        k(  155) = (   0.1666667   0.3333333   0.3333333), wk =   0.0082305
        k(  156) = (   0.1666667   0.3333333   0.3888889), wk =   0.0164609
        k(  157) = (   0.1666667   0.3333333   0.4444444), wk =   0.0164609
        k(  158) = (   0.1666667   0.3333333  -0.5000000), wk =   0.0082305
        k(  159) = (   0.1666667   0.3888889   0.3888889), wk =   0.0082305
        k(  160) = (   0.1666667   0.3888889   0.4444444), wk =   0.0164609
        k(  161) = (   0.1666667   0.3888889  -0.5000000), wk =   0.0082305
        k(  162) = (   0.1666667   0.4444444   0.4444444), wk =   0.0082305
        k(  163) = (   0.1666667   0.4444444  -0.5000000), wk =   0.0082305
        k(  164) = (   0.1666667  -0.5000000  -0.5000000), wk =   0.0020576
        k(  165) = (   0.2222222   0.2222222   0.2222222), wk =   0.0027435
        k(  166) = (   0.2222222   0.2222222   0.2777778), wk =   0.0082305
        k(  167) = (   0.2222222   0.2222222   0.3333333), wk =   0.0082305
        k(  168) = (   0.2222222   0.2222222   0.3888889), wk =   0.0082305
        k(  169) = (   0.2222222   0.2222222   0.4444444), wk =   0.0082305
        k(  170) = (   0.2222222   0.2222222  -0.5000000), wk =   0.0041152
        k(  171) = (   0.2222222   0.2777778   0.2777778), wk =   0.0082305
        k(  172) = (   0.2222222   0.2777778   0.3333333), wk =   0.0164609
        k(  173) = (   0.2222222   0.2777778   0.3888889), wk =   0.0164609
        k(  174) = (   0.2222222   0.2777778   0.4444444), wk =   0.0164609
        k(  175) = (   0.2222222   0.2777778  -0.5000000), wk =   0.0082305
        k(  176) = (   0.2222222   0.3333333   0.3333333), wk =   0.0082305
        k(  177) = (   0.2222222   0.3333333   0.3888889), wk =   0.0164609
        k(  178) = (   0.2222222   0.3333333   0.4444444), wk =   0.0164609
        k(  179) = (   0.2222222   0.3333333  -0.5000000), wk =   0.0082305
        k(  180) = (   0.2222222   0.3888889   0.3888889), wk =   0.0082305
        k(  181) = (   0.2222222   0.3888889   0.4444444), wk =   0.0164609
        k(  182) = (   0.2222222   0.3888889  -0.5000000), wk =   0.0082305
        k(  183) = (   0.2222222   0.4444444   0.4444444), wk =   0.0082305
        k(  184) = (   0.2222222   0.4444444  -0.5000000), wk =   0.0082305
        k(  185) = (   0.2222222  -0.5000000  -0.5000000), wk =   0.0020576
        k(  186) = (   0.2777778   0.2777778   0.2777778), wk =   0.0027435
        k(  187) = (   0.2777778   0.2777778   0.3333333), wk =   0.0082305
        k(  188) = (   0.2777778   0.2777778   0.3888889), wk =   0.0082305
        k(  189) = (   0.2777778   0.2777778   0.4444444), wk =   0.0082305
        k(  190) = (   0.2777778   0.2777778  -0.5000000), wk =   0.0041152
        k(  191) = (   0.2777778   0.3333333   0.3333333), wk =   0.0082305
        k(  192) = (   0.2777778   0.3333333   0.3888889), wk =   0.0164609
        k(  193) = (   0.2777778   0.3333333   0.4444444), wk =   0.0164609
        k(  194) = (   0.2777778   0.3333333  -0.5000000), wk =   0.0082305
        k(  195) = (   0.2777778   0.3888889   0.3888889), wk =   0.0082305
        k(  196) = (   0.2777778   0.3888889   0.4444444), wk =   0.0164609
        k(  197) = (   0.2777778   0.3888889  -0.5000000), wk =   0.0082305
        k(  198) = (   0.2777778   0.4444444   0.4444444), wk =   0.0082305
        k(  199) = (   0.2777778   0.4444444  -0.5000000), wk =   0.0082305
        k(  200) = (   0.2777778  -0.5000000  -0.5000000), wk =   0.0020576
        k(  201) = (   0.3333333   0.3333333   0.3333333), wk =   0.0027435
        k(  202) = (   0.3333333   0.3333333   0.3888889), wk =   0.0082305
        k(  203) = (   0.3333333   0.3333333   0.4444444), wk =   0.0082305
        k(  204) = (   0.3333333   0.3333333  -0.5000000), wk =   0.0041152
        k(  205) = (   0.3333333   0.3888889   0.3888889), wk =   0.0082305
        k(  206) = (   0.3333333   0.3888889   0.4444444), wk =   0.0164609
        k(  207) = (   0.3333333   0.3888889  -0.5000000), wk =   0.0082305
        k(  208) = (   0.3333333   0.4444444   0.4444444), wk =   0.0082305
        k(  209) = (   0.3333333   0.4444444  -0.5000000), wk =   0.0082305
        k(  210) = (   0.3333333  -0.5000000  -0.5000000), wk =   0.0020576
        k(  211) = (   0.3888889   0.3888889   0.3888889), wk =   0.0027435
        k(  212) = (   0.3888889   0.3888889   0.4444444), wk =   0.0082305
        k(  213) = (   0.3888889   0.3888889  -0.5000000), wk =   0.0041152
        k(  214) = (   0.3888889   0.4444444   0.4444444), wk =   0.0082305
        k(  215) = (   0.3888889   0.4444444  -0.5000000), wk =   0.0082305
        k(  216) = (   0.3888889  -0.5000000  -0.5000000), wk =   0.0020576
        k(  217) = (   0.4444444   0.4444444   0.4444444), wk =   0.0027435
        k(  218) = (   0.4444444   0.4444444  -0.5000000), wk =   0.0041152
        k(  219) = (   0.4444444  -0.5000000  -0.5000000), wk =   0.0020576
        k(  220) = (  -0.5000000  -0.5000000  -0.5000000), wk =   0.0003429

     Dense  grid:     7497 G-vectors     FFT dimensions: (  25,  25,  25)

     Dynamical RAM for                 wfc:       0.14 MB

     Dynamical RAM for     wfc (w. buffer):      31.66 MB

     Dynamical RAM for           str. fact:       0.11 MB

     Dynamical RAM for           local pot:       0.00 MB

     Dynamical RAM for          nlocal pot:       0.52 MB

     Dynamical RAM for                qrad:       0.28 MB

     Dynamical RAM for          rho,v,vnew:       0.70 MB

     Dynamical RAM for               rhoin:       0.23 MB

     Dynamical RAM for            rho*nmix:       1.83 MB

     Dynamical RAM for           G-vectors:       0.49 MB

     Dynamical RAM for          h,s,v(r/c):       0.07 MB

     Dynamical RAM for          <psi|beta>:       0.01 MB

     Dynamical RAM for                 psi:       0.57 MB

     Dynamical RAM for                hpsi:       0.57 MB

     Dynamical RAM for                spsi:       0.57 MB

     Dynamical RAM for      wfcinit/wfcrot:       0.46 MB

     Dynamical RAM for           addusdens:       7.32 MB

     Estimated static dynamical RAM per process >      36.65 MB

     Estimated max dynamical RAM per process >      43.97 MB

     Initial potential from superposition of free atoms

     starting charge   11.99014, renormalised to   12.00000
     Starting wfc are   16 randomized atomic wfcs

     total cpu time spent up to now is        2.2 secs

     Self-consistent Calculation

     iteration #  1     ecut=    25.00 Ry     beta= 0.70
     Davidson diagonalization with overlap
     ethr =  1.00E-02,  avg # of iterations =  3.1

     Threshold (ethr) on eigenvalues was too large:
     Diagonalizing with lowered threshold

     Davidson diagonalization with overlap
     ethr =  2.07E-04,  avg # of iterations =  2.1

     total cpu time spent up to now is       10.8 secs

     total energy              =     -26.83059564 Ry
     Harris-Foulkes estimate   =     -26.83841320 Ry
     estimated scf accuracy    <       0.02460253 Ry

     iteration #  2     ecut=    25.00 Ry     beta= 0.70
     Davidson diagonalization with overlap
     ethr =  2.05E-04,  avg # of iterations =  1.0

     total cpu time spent up to now is       14.0 secs

     total energy              =     -26.83067057 Ry
     Harris-Foulkes estimate   =     -26.83111718 Ry
     estimated scf accuracy    <       0.00152048 Ry

     iteration #  3     ecut=    25.00 Ry     beta= 0.70
     Davidson diagonalization with overlap
     ethr =  1.27E-05,  avg # of iterations =  2.2

     total cpu time spent up to now is       17.6 secs

     total energy              =     -26.83073746 Ry
     Harris-Foulkes estimate   =     -26.83073879 Ry
     estimated scf accuracy    <       0.00000613 Ry

     iteration #  4     ecut=    25.00 Ry     beta= 0.70
     Davidson diagonalization with overlap
     ethr =  5.11E-08,  avg # of iterations =  3.3

     total cpu time spent up to now is       22.2 secs

     total energy              =     -26.83074148 Ry
     Harris-Foulkes estimate   =     -26.83074159 Ry
     estimated scf accuracy    <       0.00000017 Ry

     iteration #  5     ecut=    25.00 Ry     beta= 0.70
     Davidson diagonalization with overlap
     ethr =  1.39E-09,  avg # of iterations =  2.1

     total cpu time spent up to now is       26.2 secs

     End of self-consistent calculation

          k = 0.0000 0.0000 0.0000 (   925 PWs)   bands (ev):

    -3.2563   4.9709   4.9709   4.9709   6.3363   6.3368   6.3368  13.2265
    13.2265  13.2267

     occupation numbers 
     1.0000   1.0000   1.0000   1.0000   1.0000   1.0000   1.0000   0.0000
     0.0000   0.0000

          k = 0.0000 0.0000 0.0556 (   929 PWs)   bands (ev):

    -3.2283   4.4970   4.9969   4.9969   6.3633   6.3637   6.8586  12.4485
    12.4485  13.2859

     occupation numbers 
     1.0000   1.0000   1.0000   1.0000   1.0000   1.0000   1.0000   0.0000
     0.0000   0.0000

          k = 0.0000 0.0000 0.1111 (   928 PWs)   bands (ev):

    -3.1442   3.7066   5.0748   5.0748   6.4438   6.4442   7.7931  11.6008
    11.6008  12.7817

     occupation numbers 
     1.0000   1.0000   1.0000   1.0000   1.0000   1.0000   1.0602   0.0000
     0.0000   0.0000

          k = 0.0000 0.0000 0.1667 (   936 PWs)   bands (ev):

    -3.0042   2.9038   5.2047   5.2047   6.5774   6.5777   8.8360  10.8010
    10.8010  12.1590

     occupation numbers 
     1.0000   1.0000   1.0000   1.0000   1.0000   1.0000   0.0000   0.0000
     0.0000   0.0000

          k = 0.0000 0.0000 0.2222 (   932 PWs)   bands (ev):

    -2.8084   2.1333   5.3865   5.3865   6.7631   6.7635   9.9423  10.0516
    10.0516  11.5069

     occupation numbers 
     1.0000   1.0000   1.0000   1.0000   1.0000   1.0000   0.0000   0.0000
     0.0000   0.0000

          k = 0.0000 0.0000 0.2778 (   936 PWs)   bands (ev):

    -2.5570   1.4064   5.6202   5.6202   6.9991   6.9995   9.3532   9.3532
    10.8670  10.8675

     occupation numbers 
     1.0000   1.0000   1.0000   1.0000   1.0000   1.0000   0.0000   0.0000
     0.0000   0.0000

          k = 0.0000 0.0000 0.3333 (   932 PWs)   bands (ev):

    -2.2503   0.7276   5.9058   5.9058   7.2817   7.2821   8.7060   8.7060
    10.2601  10.2605

     occupation numbers 
     1.0000   1.0000   1.0000   1.0000   1.0000   1.0000   0.0000   0.0000
     0.0000   0.0000

          k = 0.0000 0.0000 0.3889 (   932 PWs)   bands (ev):

    -1.8885   0.0991   6.2432   6.2432   7.6016   7.6020   8.1102   8.1102
     9.7042   9.7046

     occupation numbers 
     1.0000   1.0000   1.0000   1.0000   1.0089   1.0090   0.0144   0.0144
     0.0000   0.0000

          k = 0.0000 0.0000 0.4444 (   936 PWs)   bands (ev):

    -1.4722  -0.4777   6.6324   6.6324   7.5660   7.5660   7.9265   7.9269
     9.2362   9.2366

     occupation numbers 
     1.0000   1.0000   1.0000   1.0000   1.0034   1.0034   0.5134   0.5111
     0.0000   0.0000

          k = 0.0000 0.0000-0.5000 (   916 PWs)   bands (ev):

    -1.0017  -1.0017   7.0734   7.0734   7.0735   7.0735   8.1080   8.1084
     9.0068   9.0072

     occupation numbers 
     1.0000   1.0000   1.0000   1.0000   1.0000   1.0000   0.0153   0.0152
     0.0000   0.0000

          k = 0.0000 0.0556 0.0556 (   931 PWs)   bands (ev):

    -3.2003   4.5233   4.5234   5.0229   6.3903   6.8849   6.8852  11.9261
    12.4742  12.4745

     occupation numbers 
     1.0000   1.0000   1.0000   1.0000   1.0000   1.0000   1.0000   0.0000
     0.0000   0.0000

          k = 0.0000 0.0556 0.1111 (   938 PWs)   bands (ev):

    -3.1162   3.7333   4.6023   5.1008   6.4706   6.9643   7.8191  11.1423
    11.6267  12.8063

     occupation numbers 
     1.0000   1.0000   1.0000   1.0000   1.0000   1.0000   1.0094   0.0000
     0.0000   0.0000

          k = 0.0000 0.0556 0.1667 (   940 PWs)   bands (ev):

    -2.9763   2.9307   4.7340   5.2307   6.6037   7.0958   8.8615  10.3666
    10.8268  12.1842

     occupation numbers 
     1.0000   1.0000   1.0000   1.0000   1.0000   1.0000   0.0000   0.0000
     0.0000   0.0000

          k = 0.0000 0.0556 0.2222 (   934 PWs)   bands (ev):

    -2.7805   2.1604   4.9181   5.4125   6.7883   7.2786   9.6294   9.9670
    10.0775  11.5335

     occupation numbers 
     1.0000   1.0000   1.0000   1.0000   1.0000   1.0000   0.0000   0.0000
     0.0000   0.0000

          k = 0.0000 0.0556 0.2778 (   939 PWs)   bands (ev):

    -2.5291   1.4336   5.1545   5.6462   7.0215   7.5107   8.9401   9.3790
    10.8950  11.1239

     occupation numbers 
     1.0000   1.0000   1.0000   1.0000   1.0000   1.0005   0.0000   0.0000
     0.0000   0.0000

          k = 0.0000 0.0556 0.3333 (   931 PWs)   bands (ev):

    -2.2224   0.7549   5.4429   5.9317   7.2926   7.7876   8.3100   8.7319
    10.2911  10.7167

     occupation numbers 
     1.0000   1.0000   1.0000   1.0000   1.0000   1.0669   0.0000   0.0000
     0.0000   0.0000

          k = 0.0000 0.0556 0.3889 (   931 PWs)   bands (ev):

    -1.8607   0.1265   5.7828   6.2692   7.4810   7.8561   8.0956   8.1361
     9.7446  10.1516

     occupation numbers 
     1.0000   1.0000   1.0000   1.0000   1.0002   0.8805   0.0217   0.0066
     0.0000   0.0000

          k = 0.0000 0.0556 0.4444 (   929 PWs)   bands (ev):

    -1.4444  -0.4501   6.1734   6.6584   7.0912   7.5919   8.0598   8.3736
     9.3221   9.6511

     occupation numbers 
     1.0000   1.0000   1.0000   1.0000   1.0000   1.0069   0.0537   0.0000
     0.0000   0.0000

          k = 0.0000 0.0556-0.5000 (   928 PWs)   bands (ev):

    -0.9740  -0.9740   6.6126   6.6126   7.0993   7.0994   8.3642   8.3645
     9.2849   9.2851

     occupation numbers 
     1.0000   1.0000   1.0000   1.0000   1.0000   1.0000   0.0000   0.0000
     0.0000   0.0000

          k = 0.0000 0.1111 0.1111 (   941 PWs)   bands (ev):

    -3.0322   3.8132   3.8133   5.1787   6.5501   7.8968   7.8970  10.3878
    11.7040  11.7044

     occupation numbers 
     1.0000   1.0000   1.0000   1.0000   1.0000   0.6774   0.6760   0.0000
     0.0000   0.0000

          k = 0.0000 0.1111 0.1667 (   941 PWs)   bands (ev):

    -2.8923   3.0114   3.9464   5.3086   6.6814   8.0258   8.9375   9.6241
    10.9044  12.2603

     occupation numbers 
     1.0000   1.0000   1.0000   1.0000   1.0000   0.1129   0.0000   0.0000
     0.0000   0.0000

          k = 0.0000 0.1111 0.2222 (   938 PWs)   bands (ev):

    -2.6967   2.2415   4.1327   5.4904   6.8617   8.2043   8.8953  10.0407
    10.1550  11.6129

     occupation numbers 
     1.0000   1.0000   1.0000   1.0000   1.0000   0.0006   0.0000   0.0000
     0.0000   0.0000

          k = 0.0000 0.1111 0.2778 (   937 PWs)   bands (ev):

    -2.4454   1.5152   4.3717   5.7241   7.0793   8.2234   8.4291   9.4566
    10.9797  11.1934

     occupation numbers 
     1.0000   1.0000   1.0000   1.0000   1.0000   0.0003   0.0000   0.0000
     0.0000   0.0000

          k = 0.0000 0.1111 0.3333 (   927 PWs)   bands (ev):

    -2.1389   0.8369   4.6632   6.0096   7.2281   7.7174   8.6901   8.8095
    10.3890  11.5858

     occupation numbers 
     1.0000   1.0000   1.0000   1.0000   1.0000   1.0692   0.0000   0.0000
     0.0000   0.0000

          k = 0.0000 0.1111 0.3889 (   927 PWs)   bands (ev):

    -1.7774   0.2089   5.0068   6.3470   6.8562   7.8292   8.2138   8.9410
     9.8961  11.0196

     occupation numbers 
     1.0000   1.0000   1.0000   1.0000   1.0000   0.9807   0.0004   0.0000
     0.0000   0.0000

          k = 0.0000 0.1111 0.4444 (   930 PWs)   bands (ev):

    -1.3613  -0.3675   5.4014   6.3361   6.7362   7.6696   8.1821   8.9377
     9.7504  10.5024

     occupation numbers 
     1.0000   1.0000   1.0000   1.0000   1.0000   1.0373   0.0014   0.0000
     0.0000   0.0000

          k = 0.0000 0.1111-0.5000 (   922 PWs)   bands (ev):

    -0.8911  -0.8911   5.8458   5.8458   7.1770   7.1771   8.5833   8.5834
    10.0525  10.0527

     occupation numbers 
     1.0000   1.0000   1.0000   1.0000   1.0000   1.0000   0.0000   0.0000
     0.0000   0.0000

          k = 0.0000 0.1667 0.1667 (   941 PWs)   bands (ev):

    -2.7525   3.1456   3.1457   5.4384   6.8081   8.8669   9.0630   9.0632
    11.0333  11.0337

     occupation numbers 
     1.0000   1.0000   1.0000   1.0000   1.0000   0.0000   0.0000   0.0000
     0.0000   0.0000

          k = 0.0000 0.1667 0.2222 (   940 PWs)   bands (ev):

    -2.5570   2.3767   3.3334   5.6202   6.9720   8.1537   9.2353  10.1609
    10.2842  11.2143

     occupation numbers 
     1.0000   1.0000   1.0000   1.0000   1.0000   0.0037   0.0000   0.0000
     0.0000   0.0000

          k = 0.0000 0.1667 0.2778 (   934 PWs)   bands (ev):

    -2.3060   1.6512   3.5745   5.8539   7.0716   7.5983   9.4452   9.5860
    11.1276  11.4464

     occupation numbers 
     1.0000   1.0000   1.0000   1.0000   1.0000   1.0082   0.0000   0.0000
     0.0000   0.0000

          k = 0.0000 0.1667 0.3333 (   934 PWs)   bands (ev):

    -1.9997   0.9735   3.8684   6.1394   6.6710   7.6404   8.9389   9.6519
    10.5891  11.7300

     occupation numbers 
     1.0000   1.0000   1.0000   1.0000   1.0000   1.0217   0.0000   0.0000
     0.0000   0.0000

          k = 0.0000 0.1667 0.3889 (   931 PWs)   bands (ev):

    -1.6385   0.3460   4.2149   6.1032   6.4767   7.9482   8.3433   9.6167
    10.3794  12.0108

     occupation numbers 
     1.0000   1.0000   1.0000   1.0000   1.0000   0.3990   0.0000   0.0000
     0.0000   0.0000

          k = 0.0000 0.1667 0.4444 (   930 PWs)   bands (ev):

    -1.2228  -0.2298   4.6132   5.5605   6.8658   7.7992   8.3282   9.2139
    10.6291  11.4944

     occupation numbers 
     1.0000   1.0000   1.0000   1.0000   1.0000   1.0511   0.0000   0.0000
     0.0000   0.0000

          k = 0.0000 0.1667-0.5000 (   924 PWs)   bands (ev):

    -0.7530  -0.7530   5.0623   5.0623   7.3067   7.3068   8.7566   8.7567
    11.0279  11.0280

     occupation numbers 
     1.0000   1.0000   1.0000   1.0000   1.0000   1.0000   0.0000   0.0000
     0.0000   0.0000

          k = 0.0000 0.2222 0.2222 (   937 PWs)   bands (ev):

    -2.3617   2.5657   2.5658   5.8019   7.0192   7.5552  10.3195  10.3197
    10.4649  10.4653

     occupation numbers 
     1.0000   1.0000   1.0000   1.0000   1.0000   1.0024   0.0000   0.0000
     0.0000   0.0000

          k = 0.0000 0.2222 0.2778 (   931 PWs)   bands (ev):

    -2.1110   1.8412   2.8084   6.0355   6.5745   7.5414   9.7670  10.4783
    10.6975  11.3729

     occupation numbers 
     1.0000   1.0000   1.0000   1.0000   1.0000   1.0016   0.0000   0.0000
     0.0000   0.0000

          k = 0.0000 0.2222 0.3333 (   931 PWs)   bands (ev):

    -1.8051   1.1645   3.1043   5.9570   6.3210   7.7980   9.1200  10.3963
    10.9814  11.1216

     occupation numbers 
     1.0000   1.0000   1.0000   1.0000   1.0000   1.0531   0.0000   0.0000
     0.0000   0.0000

          k = 0.0000 0.2222 0.3889 (   935 PWs)   bands (ev):

    -1.4443   0.5378   3.4532   5.3621   6.6583   8.1310   8.5245   9.9434
    11.3166  11.3268

     occupation numbers 
     1.0000   1.0000   1.0000   1.0000   1.0000   0.0077   0.0000   0.0000
     0.0000   0.0000

          k = 0.0000 0.2222 0.4444 (   940 PWs)   bands (ev):

    -1.0290  -0.0373   3.8544   4.8105   7.0473   7.9805   8.5197   9.4373
    11.6756  11.7029

     occupation numbers 
     1.0000   1.0000   1.0000   1.0000   1.0000   0.2531   0.0000   0.0000
     0.0000   0.0000

          k = 0.0000 0.2222-0.5000 (   940 PWs)   bands (ev):

    -0.5598  -0.5598   4.3073   4.3073   7.4881   7.4881   8.9574   8.9574
    12.0903  12.0904

     occupation numbers 
     1.0000   1.0000   1.0000   1.0000   1.0002   1.0002   0.0000   0.0000
     0.0000   0.0000

          k = 0.0000 0.2778 0.2778 (   929 PWs)   bands (ev):

    -1.8606   2.0852   2.0853   5.9076   6.2691   7.7470   9.9993   9.9998
    11.2711  11.2713

     occupation numbers 
     1.0000   1.0000   1.0000   1.0000   1.0000   1.0824   0.0000   0.0000
     0.0000   0.0000

          k = 0.0000 0.2778 0.3333 (   938 PWs)   bands (ev):

    -1.5552   1.4097   2.3829   5.2614   6.5545   8.0293   9.3528  10.2837
    10.7663  11.6748

     occupation numbers 
     1.0000   1.0000   1.0000   1.0000   1.0000   0.1050   0.0000   0.0000
     0.0000   0.0000

          k = 0.0000 0.2778 0.3889 (   929 PWs)   bands (ev):

    -1.1949   0.7841   2.7338   4.6571   6.8917   8.3691   8.7575  10.2152
    10.6193  12.0340

     occupation numbers 
     1.0000   1.0000   1.0000   1.0000   1.0000   0.0000   0.0000   0.0000
     0.0000   0.0000

          k = 0.0000 0.2778 0.4444 (   936 PWs)   bands (ev):

    -0.7803   0.2099   3.1375   4.1003   7.2807   8.2136   8.7612   9.6890
    11.0062  11.9333

     occupation numbers 
     1.0000   1.0000   1.0000   1.0000   1.0000   0.0004   0.0000   0.0000
     0.0000   0.0000

          k = 0.0000 0.2778-0.5000 (   940 PWs)   bands (ev):

    -0.3118  -0.3118   3.5933   3.5933   7.7213   7.7214   9.2023   9.2024
    11.4442  11.4443

     occupation numbers 
     1.0000   1.0000   1.0000   1.0000   1.0715   1.0716   0.0000   0.0000
     0.0000   0.0000

          k = 0.0000 0.3333 0.3333 (   946 PWs)   bands (ev):

    -1.2503   1.7087   1.7089   4.6056   6.8398   8.3182   9.6370   9.6374
    11.0836  11.0837

     occupation numbers 
     1.0000   1.0000   1.0000   1.0000   1.0000   0.0000   0.0000   0.0000
     0.0000   0.0000

          k = 0.0000 0.3333 0.3889 (   938 PWs)   bands (ev):

    -0.8907   1.0845   2.0615   3.9960   7.1769   8.6603   9.0421   9.9731
    10.5155  11.4300

     occupation numbers 
     1.0000   1.0000   1.0000   1.0000   1.0000   0.0000   0.0000   0.0000
     0.0000   0.0000

          k = 0.0000 0.3333 0.4444 (   941 PWs)   bands (ev):

    -0.4768   0.5114   2.4672   3.4355   7.5658   8.4984   9.0535   9.9842
    10.3605  11.2890

     occupation numbers 
     1.0000   1.0000   1.0000   1.0000   1.0033   0.0000   0.0000   0.0000
     0.0000   0.0000

          k = 0.0000 0.3333-0.5000 (   940 PWs)   bands (ev):

    -0.0093  -0.0093   2.9255   2.9255   8.0062   8.0063   9.4956   9.4957
    10.7991  10.7992

     occupation numbers 
     1.0000   1.0000   1.0000   1.0000   0.1640   0.1637   0.0000   0.0000
     0.0000   0.0000

          k = 0.0000 0.3889 0.3889 (   942 PWs)   bands (ev):

    -0.5319   1.4386   1.4388   3.3827   7.5139   9.0031   9.3781   9.3785
    10.8584  10.8585

     occupation numbers 
     1.0000   1.0000   1.0000   1.0000   1.0006   0.0000   0.0000   0.0000
     0.0000   0.0000

          k = 0.0000 0.3889 0.4444 (   941 PWs)   bands (ev):

    -0.1190   0.8670   1.8463   2.8191   7.9026   8.8349   9.3963   9.7660
    10.3264  10.6956

     occupation numbers 
     1.0000   1.0000   1.0000   1.0000   0.6453   0.0000   0.0000   0.0000
     0.0000   0.0000

          k = 0.0000 0.3889-0.5000 (   940 PWs)   bands (ev):

     0.3475   0.3475   2.3067   2.3067   8.3429   8.3430   9.8380   9.8381
    10.2052  10.2053

     occupation numbers 
     1.0000   1.0000   1.0000   1.0000   0.0000   0.0000   0.0000   0.0000
     0.0000   0.0000

          k = 0.0000 0.4444 0.4444 (   934 PWs)   bands (ev):

     0.2929   1.2761   1.2763   2.2530   8.2911   9.2227   9.2231   9.7886
    10.1534  10.7163

     occupation numbers 
     1.0000   1.0000   1.0000   1.0000   0.0000   0.0000   0.0000   0.0000
     0.0000   0.0000

          k = 0.0000 0.4444-0.5000 (   934 PWs)   bands (ev):

     0.7581   0.7581   1.7384   1.7385   8.7312   8.7313   9.6624   9.6625
    10.2292  10.2292

     occupation numbers 
     1.0000   1.0000   1.0000   1.0000   0.0000   0.0000   0.0000   0.0000
     0.0000   0.0000

          k = 0.0000-0.5000-0.5000 (   952 PWs)   bands (ev):

     1.2219   1.2219   1.2221   1.2221   9.1708   9.1710   9.1713   9.1713
    10.6681  10.6682

     occupation numbers 
     1.0000   1.0000   1.0000   1.0000   0.0000   0.0000   0.0000   0.0000
     0.0000   0.0000

          k = 0.0556 0.0556 0.0556 (   934 PWs)   bands (ev):

    -3.1723   4.5496   4.5497   4.5497   6.9112   6.9116   6.9116  11.9517
    11.9520  11.9520

     occupation numbers 
     1.0000   1.0000   1.0000   1.0000   1.0000   1.0000   1.0000   0.0000
     0.0000   0.0000

          k = 0.0556 0.0556 0.1111 (   942 PWs)   bands (ev):

    -3.0882   3.7599   4.6286   4.6287   6.9903   6.9906   7.8450  11.1682
    11.1684  12.0294

     occupation numbers 
     1.0000   1.0000   1.0000   1.0000   1.0000   1.0000   0.9259   0.0000
     0.0000   0.0000

          k = 0.0556 0.0556 0.1667 (   941 PWs)   bands (ev):

    -2.9483   2.9576   4.7602   4.7603   7.1213   7.1216   8.8867  10.3928
    10.3929  12.1585

     occupation numbers 
     1.0000   1.0000   1.0000   1.0000   1.0000   1.0000   0.0000   0.0000
     0.0000   0.0000

          k = 0.0556 0.0556 0.2222 (   937 PWs)   bands (ev):

    -2.7525   2.1874   4.9443   4.9443   7.3027   7.3030   9.6562   9.6563
     9.9913  11.9942

     occupation numbers 
     1.0000   1.0000   1.0000   1.0000   1.0000   1.0000   0.0000   0.0000
     0.0000   0.0000

          k = 0.0556 0.0556 0.2778 (   934 PWs)   bands (ev):

    -2.5012   1.4608   5.1805   5.1806   7.5304   7.5307   8.9692   8.9693
    11.1460  11.3535

     occupation numbers 
     1.0000   1.0000   1.0000   1.0000   1.0011   1.0011   0.0000   0.0000
     0.0000   0.0000

          k = 0.0556 0.0556 0.3333 (   933 PWs)   bands (ev):

    -2.1946   0.7823   5.4687   5.4688   7.7798   7.7801   8.3567   8.3567
    10.7450  10.7453

     occupation numbers 
     1.0000   1.0000   1.0000   1.0000   1.0743   1.0741   0.0000   0.0000
     0.0000   0.0000

          k = 0.0556 0.0556 0.3889 (   939 PWs)   bands (ev):

    -1.8329   0.1540   5.8081   5.8082   7.6502   7.6504   8.2144   8.2146
    10.1843  10.1846

     occupation numbers 
     1.0000   1.0000   1.0000   1.0000   1.0264   1.0265   0.0004   0.0004
     0.0000   0.0000

          k = 0.0556 0.0556 0.4444 (   928 PWs)   bands (ev):

    -1.4167  -0.4226   6.1964   6.1964   7.1412   7.1413   8.5204   8.5207
     9.7015   9.7018

     occupation numbers 
     1.0000   1.0000   1.0000   1.0000   1.0000   1.0000   0.0000   0.0000
     0.0000   0.0000

          k = 0.0556 0.0556-0.5000 (   928 PWs)   bands (ev):

    -0.9464  -0.9464   6.5637   6.5637   6.7271   6.7272   8.7211   8.7214
     9.4482   9.4485

     occupation numbers 
     1.0000   1.0000   1.0000   1.0000   1.0000   1.0000   0.0000   0.0000
     0.0000   0.0000

          k = 0.0556 0.1111 0.1111 (   941 PWs)   bands (ev):

    -3.0042   3.8398   3.8399   4.7076   7.0686   7.9222   7.9225  10.4142
    11.2461  11.2464

     occupation numbers 
     1.0000   1.0000   1.0000   1.0000   1.0000   0.5368   0.5354   0.0000
     0.0000   0.0000

          k = 0.0556 0.1111 0.1667 (   942 PWs)   bands (ev):

    -2.8644   3.0382   3.9730   4.8391   7.1973   8.0502   8.9619   9.6514
    10.4720  11.3765

     occupation numbers 
     1.0000   1.0000   1.0000   1.0000   1.0000   0.0670   0.0000   0.0000
     0.0000   0.0000

          k = 0.0556 0.1111 0.2222 (   939 PWs)   bands (ev):

    -2.6687   2.2686   4.1592   5.0229   7.3724   8.2254   8.9258   9.7383
    10.0625  11.5603

     occupation numbers 
     1.0000   1.0000   1.0000   1.0000   1.0000   0.0003   0.0000   0.0000
     0.0000   0.0000

          k = 0.0556 0.1111 0.2778 (   933 PWs)   bands (ev):

    -2.4175   1.5424   4.3982   5.2588   7.5676   8.2737   8.4313   9.0680
    11.2023  11.4345

     occupation numbers 
     1.0000   1.0000   1.0000   1.0000   1.0035   0.0000   0.0000   0.0000
     0.0000   0.0000

          k = 0.0556 0.1111 0.3333 (   931 PWs)   bands (ev):

    -2.1110   0.8642   4.6895   5.5461   7.4544   8.0273   8.3237   8.8029
    10.8326  11.6124

     occupation numbers 
     1.0000   1.0000   1.0000   1.0000   1.0001   0.1095   0.0000   0.0000
     0.0000   0.0000

[...]
    12.2144  12.2145

     occupation numbers 
     1.0000   1.0000   1.0000   1.0000   1.0000   1.0000   0.0000   0.0000
     0.0000   0.0000

          k = 0.1667 0.4444 0.4444 (   954 PWs)   bands (ev):

     0.5396   1.5212   1.5213   2.4960   6.3264   7.2725   7.2727   8.2150
    12.1678  13.0692

     occupation numbers 
     1.0000   1.0000   1.0000   1.0000   1.0000   1.0000   1.0000   0.0004
     0.0000   0.0000

          k = 0.1667 0.4444-0.5000 (   950 PWs)   bands (ev):

     1.0041   1.0041   1.9826   1.9826   6.7738   6.7738   7.7183   7.7184
    12.5962  12.5962

     occupation numbers 
     1.0000   1.0000   1.0000   1.0000   1.0000   1.0000   1.0698   1.0698
     0.0000   0.0000

          k = 0.1667-0.5000-0.5000 (   944 PWs)   bands (ev):

     1.4670   1.4671   1.4672   1.4672   7.2204   7.2205   7.2207   7.2207
    13.0238  13.0239

     occupation numbers 
     1.0000   1.0000   1.0000   1.0000   1.0000   1.0000   1.0000   1.0000
     0.0000   0.0000

          k = 0.2222 0.2222 0.2222 (   934 PWs)   bands (ev):

    -1.9162   2.9964   2.9966   2.9966   7.7635   7.7638   7.7638  10.7968
    10.7971  10.7971

     occupation numbers 
     1.0000   1.0000   1.0000   1.0000   1.0824   1.0824   1.0824   0.0000
     0.0000   0.0000

          k = 0.2222 0.2222 0.2778 (   940 PWs)   bands (ev):

    -1.6661   2.2747   3.2380   3.2382   7.0671   7.0673   8.0023  11.0260
    11.0262  11.7270

     occupation numbers 
     1.0000   1.0000   1.0000   1.0000   1.0000   1.0000   0.1759   0.0000
     0.0000   0.0000

          k = 0.2222 0.2222 0.3333 (   944 PWs)   bands (ev):

    -1.3610   1.6001   3.5322   3.5324   6.4161   6.4162   8.2917  11.0901
    11.3035  11.3037

     occupation numbers 
     1.0000   1.0000   1.0000   1.0000   1.0000   1.0000   0.0000   0.0000
     0.0000   0.0000

          k = 0.2222 0.2222 0.3889 (   937 PWs)   bands (ev):

    -1.0012   0.9754   3.8778   3.8779   5.8143   5.8145   8.6323  10.5000
    11.6256  11.6258

     occupation numbers 
     1.0000   1.0000   1.0000   1.0000   1.0000   1.0000   0.0000   0.0000
     0.0000   0.0000

          k = 0.2222 0.2222 0.4444 (   937 PWs)   bands (ev):

    -0.5871   0.4019   4.2693   4.2695   5.2686   5.2687   9.0238   9.9583
    11.9780  11.9782

     occupation numbers 
     1.0000   1.0000   1.0000   1.0000   1.0000   1.0000   0.0000   0.0000
     0.0000   0.0000

          k = 0.2222 0.2222-0.5000 (   944 PWs)   bands (ev):

    -0.1192  -0.1192   4.6024   4.6026   4.8840   4.8842   9.4659   9.4660
    12.2260  12.7019

     occupation numbers 
     1.0000   1.0000   1.0000   1.0000   1.0000   1.0000   0.0000   0.0000
     0.0000   0.0000

          k = 0.2222 0.2778 0.2778 (   947 PWs)   bands (ev):

    -1.4164   2.5177   2.5179   3.4787   6.3673   7.3051   7.3053  11.0429
    11.2583  12.1688

     occupation numbers 
     1.0000   1.0000   1.0000   1.0000   1.0000   1.0000   1.0000   0.0000
     0.0000   0.0000

          k = 0.2222 0.2778 0.3333 (   944 PWs)   bands (ev):

    -1.1118   1.8445   2.8142   3.7709   5.7142   6.6535   7.5949  10.4034
    11.5388  12.4400

     occupation numbers 
     1.0000   1.0000   1.0000   1.0000   1.0000   1.0000   1.0075   0.0000
     0.0000   0.0000

          k = 0.2222 0.2778 0.3889 (   945 PWs)   bands (ev):

    -0.7525   1.2209   3.1632   4.1098   5.1156   6.0505   7.9363   9.8109
    11.8666  12.7433

     occupation numbers 
     1.0000   1.0000   1.0000   1.0000   1.0000   1.0000   0.4608   0.0000
     0.0000   0.0000

          k = 0.2222 0.2778 0.4444 (   948 PWs)   bands (ev):

    -0.3390   0.6484   3.5635   4.3942   4.6737   5.4986   8.3291   9.2670
    12.2380  12.9458

     occupation numbers 
     1.0000   1.0000   1.0000   1.0000   1.0000   1.0000   0.0000   0.0000
     0.0000   0.0000

          k = 0.2222 0.2778-0.5000 (   946 PWs)   bands (ev):

     0.1282   0.1282   4.0095   4.0096   5.0038   5.0039   8.7728   8.7729
    12.6400  12.6401

     occupation numbers 
     1.0000   1.0000   1.0000   1.0000   1.0000   1.0000   0.0000   0.0000
     0.0000   0.0000

          k = 0.2222 0.3333 0.3333 (   947 PWs)   bands (ev):

    -0.8077   2.1426   2.1427   4.0565   5.0643   6.9435   6.9437   9.7614
    11.8213  13.6104

     occupation numbers 
     1.0000   1.0000   1.0000   1.0000   1.0000   1.0000   1.0000   0.0000
     0.0000   0.0000

          k = 0.2222 0.3333 0.3889 (   951 PWs)   bands (ev):

    -0.4491   1.5204   2.4939   4.2898   4.5678   6.3405   7.2858   9.1668
    12.1512  13.7632

     occupation numbers 
     1.0000   1.0000   1.0000   1.0000   1.0000   1.0000   1.0000   0.0000
     0.0000   0.0000

          k = 0.2222 0.3333 0.4444 (   952 PWs)   bands (ev):

    -0.0364   0.9491   2.8977   3.8526   4.8444   5.7877   7.6798   8.6210
    12.5271  13.3943

     occupation numbers 
     1.0000   1.0000   1.0000   1.0000   1.0000   1.0000   1.0438   0.0000
     0.0000   0.0000

          k = 0.2222 0.3333-0.5000 (   950 PWs)   bands (ev):

     0.4299   0.4299   3.3524   3.3524   5.2871   5.2871   8.1250   8.1251
    12.9453  12.9454

     occupation numbers 
     1.0000   1.0000   1.0000   1.0000   1.0000   1.0000   0.0093   0.0093
     0.0000   0.0000

          k = 0.2222 0.3889 0.3889 (   948 PWs)   bands (ev):

    -0.0913   1.8734   1.8735   3.8001   4.7912   6.6833   6.6835   8.5701
    12.4822  14.2313

     occupation numbers 
     1.0000   1.0000   1.0000   1.0000   1.0000   1.0000   1.0000   0.0000
     0.0000   0.0000

          k = 0.2222 0.3889 0.4444 (   950 PWs)   bands (ev):

     0.3205   1.3036   2.2795   3.2465   5.1811   6.1308   7.0785   8.0225
    12.8593  13.7420

     occupation numbers 
     1.0000   1.0000   1.0000   1.0000   1.0000   1.0000   1.0000   0.1204
     0.0000   0.0000

          k = 0.2222 0.3889-0.5000 (   948 PWs)   bands (ev):

     0.7857   0.7857   2.7377   2.7377   5.6295   5.6295   7.5250   7.5251
    13.2807  13.2808

     occupation numbers 
     1.0000   1.0000   1.0000   1.0000   1.0000   1.0000   1.0009   1.0009
     0.0000   0.0000

          k = 0.2222 0.4444 0.4444 (   950 PWs)   bands (ev):

     0.7311   1.7114   1.7116   2.6843   5.5767   6.5266   6.5268   7.4733
    13.2368  14.1213

     occupation numbers 
     1.0000   1.0000   1.0000   1.0000   1.0000   1.0000   1.0000   1.0001
     0.0000   0.0000

          k = 0.2222 0.4444-0.5000 (   948 PWs)   bands (ev):

     1.1951   1.1951   2.1720   2.1721   6.0257   6.0257   6.9744   6.9745
    13.6585  13.6585

     occupation numbers 
     1.0000   1.0000   1.0000   1.0000   1.0000   1.0000   1.0000   1.0000
     0.0000   0.0000

          k = 0.2222-0.5000-0.5000 (   952 PWs)   bands (ev):

     1.6574   1.6574   1.6575   1.6575   6.4742   6.4743   6.4745   6.4745
    14.0795  14.0796

     occupation numbers 
     1.0000   1.0000   1.0000   1.0000   1.0000   1.0000   1.0000   1.0000
     0.0000   0.0000

          k = 0.2778 0.2778 0.2778 (   943 PWs)   bands (ev):

    -1.1671   2.7602   2.7604   2.7604   6.6046   6.6049   6.6049  10.3561
    12.3998  12.4001

     occupation numbers 
     1.0000   1.0000   1.0000   1.0000   1.0000   1.0000   1.0000   0.0000
     0.0000   0.0000

          k = 0.2778 0.2778 0.3333 (   946 PWs)   bands (ev):

    -0.8629   2.0885   3.0557   3.0558   5.9504   5.9506   6.8950   9.7139
    12.6766  12.6769

     occupation numbers 
     1.0000   1.0000   1.0000   1.0000   1.0000   1.0000   1.0000   0.0000
     0.0000   0.0000

          k = 0.2778 0.2778 0.3889 (   946 PWs)   bands (ev):

    -0.5042   1.4660   3.4027   3.4029   5.3459   5.3461   7.2374   9.1191
    12.9970  12.9972

     occupation numbers 
     1.0000   1.0000   1.0000   1.0000   1.0000   1.0000   1.0000   0.0000
     0.0000   0.0000

          k = 0.2778 0.2778 0.4444 (   951 PWs)   bands (ev):

    -0.0913   0.8945   3.7963   3.7965   4.7975   4.7976   7.6316   8.5731
    13.3497  13.3500

     occupation numbers 
     1.0000   1.0000   1.0000   1.0000   1.0000   1.0000   1.0180   0.0000
     0.0000   0.0000

          k = 0.2778 0.2778-0.5000 (   948 PWs)   bands (ev):

     0.3751   0.3751   4.1333   4.1335   4.4087   4.4089   8.0770   8.0770
    13.6103  14.0072

     occupation numbers 
     1.0000   1.0000   1.0000   1.0000   1.0000   1.0000   0.0353   0.0353
     0.0000   0.0000

          k = 0.2778 0.3333 0.3333 (   949 PWs)   bands (ev):

    -0.5593   2.3858   2.3860   3.3492   5.2948   6.2408   6.2410   9.0695
    12.9568  13.8565

     occupation numbers 
     1.0000   1.0000   1.0000   1.0000   1.0000   1.0000   1.0000   0.0000
     0.0000   0.0000

          k = 0.2778 0.3333 0.3889 (   943 PWs)   bands (ev):

    -0.2012   1.7649   2.7362   3.6897   4.6936   5.6356   6.5841   8.4724
    13.2815  14.1606

     occupation numbers 
     1.0000   1.0000   1.0000   1.0000   1.0000   1.0000   1.0000   0.0000
     0.0000   0.0000

          k = 0.2778 0.3333 0.4444 (   949 PWs)   bands (ev):

     0.2108   1.1947   3.1379   3.9766   4.2486   5.0816   6.9795   7.9244
    13.6486  14.3721

     occupation numbers 
     1.0000   1.0000   1.0000   1.0000   1.0000   1.0000   1.0000   0.5248
     0.0000   0.0000

          k = 0.2778 0.3333-0.5000 (   950 PWs)   bands (ev):

     0.6763   0.6763   3.5860   3.5861   4.5845   4.5846   7.4265   7.4265
    14.0480  14.0480

     occupation numbers 
     1.0000   1.0000   1.0000   1.0000   1.0000   1.0000   1.0000   1.0000
     0.0000   0.0000

          k = 0.2778 0.3889 0.3889 (   950 PWs)   bands (ev):

     0.1560   2.1172   2.1173   3.9243   4.1951   5.9791   5.9793   7.8733
    13.6085  15.2178

     occupation numbers 
     1.0000   1.0000   1.0000   1.0000   1.0000   1.0000   1.0000   0.8001
     0.0000   0.0000

          k = 0.2778 0.3889 0.4444 (   951 PWs)   bands (ev):

     0.5671   1.5485   2.5222   3.4805   4.4778   5.4247   6.3756   7.3235
    13.9787  14.8282

     occupation numbers 
     1.0000   1.0000   1.0000   1.0000   1.0000   1.0000   1.0000   1.0000
     0.0000   0.0000

          k = 0.2778 0.3889-0.5000 (   948 PWs)   bands (ev):

     1.0315   1.0315   2.9783   2.9783   4.9224   4.9224   6.8240   6.8240
    14.3889  14.3889

     occupation numbers 
     1.0000   1.0000   1.0000   1.0000   1.0000   1.0000   1.0000   1.0000
     0.0000   0.0000

          k = 0.2778 0.4444 0.4444 (   946 PWs)   bands (ev):

     0.9771   1.9555   1.9557   2.9251   4.8693   5.8216   5.8218   6.7720
    14.3502  15.2079

     occupation numbers 
     1.0000   1.0000   1.0000   1.0000   1.0000   1.0000   1.0000   1.0000
     0.0000   0.0000

          k = 0.2778 0.4444-0.5000 (   948 PWs)   bands (ev):

     1.4402   1.4402   2.4149   2.4150   5.3189   5.3190   6.2711   6.2711
    14.7620  14.7620

     occupation numbers 
     1.0000   1.0000   1.0000   1.0000   1.0000   1.0000   1.0000   1.0000
     0.0000   0.0000

          k = 0.2778-0.5000-0.5000 (   952 PWs)   bands (ev):

     1.9015   1.9016   1.9017   1.9017   5.7689   5.7690   5.7691   5.7691
    15.1737  15.1738

     occupation numbers 
     1.0000   1.0000   1.0000   1.0000   1.0000   1.0000   1.0000   1.0000
     0.0000   0.0000

          k = 0.3333 0.3333 0.3333 (   943 PWs)   bands (ev):

    -0.2562   2.6821   2.6823   2.6823   5.5843   5.5846   5.5846   8.4225
    14.1338  14.1340

     occupation numbers 
     1.0000   1.0000   1.0000   1.0000   1.0000   1.0000   1.0000   0.0000
     0.0000   0.0000

          k = 0.3333 0.3333 0.3889 (   945 PWs)   bands (ev):

     0.1012   2.0631   3.0304   3.0306   4.9779   4.9781   5.9283   7.8232
    14.4510  14.4513

     occupation numbers 
     1.0000   1.0000   1.0000   1.0000   1.0000   1.0000   1.0000   0.9982
     0.0000   0.0000

          k = 0.3333 0.3333 0.4444 (   950 PWs)   bands (ev):

     0.5124   1.4942   3.4258   3.4259   4.4272   4.4274   6.3249   7.2732
    14.8014  14.8016

     occupation numbers 
     1.0000   1.0000   1.0000   1.0000   1.0000   1.0000   1.0000   1.0000
     0.0000   0.0000

          k = 0.3333 0.3333-0.5000 (   954 PWs)   bands (ev):

     0.9770   0.9770   3.7672   3.7674   4.0339   4.0341   6.7734   6.7735
    15.0768  15.3727

     occupation numbers 
     1.0000   1.0000   1.0000   1.0000   1.0000   1.0000   1.0000   1.0000
     0.0000   0.0000

          k = 0.3333 0.3889 0.3889 (   947 PWs)   bands (ev):

     0.4577   2.4142   2.4143   3.3724   4.3747   5.3214   5.3215   7.2219
    14.7732  15.6496

     occupation numbers 
     1.0000   1.0000   1.0000   1.0000   1.0000   1.0000   1.0000   1.0000
     0.0000   0.0000

          k = 0.3333 0.3889 0.4444 (   948 PWs)   bands (ev):

     0.8680   1.8472   2.8171   3.6626   3.9262   4.7659   5.7188   6.6700
    15.1331  15.8646

     occupation numbers 
     1.0000   1.0000   1.0000   1.0000   1.0000   1.0000   1.0000   1.0000
     0.0000   0.0000

          k = 0.3333 0.3889-0.5000 (   946 PWs)   bands (ev):

     1.3314   1.3314   3.2669   3.2670   4.2670   4.2670   6.1686   6.1686
    15.5227  15.5227

     occupation numbers 
     1.0000   1.0000   1.0000   1.0000   1.0000   1.0000   1.0000   1.0000
     0.0000   0.0000

          k = 0.3333 0.4444 0.4444 (   947 PWs)   bands (ev):

     1.2771   2.2529   2.2531   3.2139   4.2135   5.1629   5.1631   6.1164
    15.4959  16.3036

     occupation numbers 
     1.0000   1.0000   1.0000   1.0000   1.0000   1.0000   1.0000   1.0000
     0.0000   0.0000

          k = 0.3333 0.4444-0.5000 (   944 PWs)   bands (ev):

     1.7391   1.7391   2.7102   2.7102   4.6595   4.6596   5.6137   5.6137
    15.8916  15.8916

     occupation numbers 
     1.0000   1.0000   1.0000   1.0000   1.0000   1.0000   1.0000   1.0000
     0.0000   0.0000

          k = 0.3333-0.5000-0.5000 (   940 PWs)   bands (ev):

     2.1991   2.1991   2.1993   2.1993   5.1100   5.1101   5.1102   5.1102
    16.2891  16.2892

     occupation numbers 
     1.0000   1.0000   1.0000   1.0000   1.0000   1.0000   1.0000   1.0000
     0.0000   0.0000

          k = 0.3889 0.3889 0.3889 (   946 PWs)   bands (ev):

     0.8134   2.7632   2.7634   2.7634   4.7133   4.7136   4.7136   6.6184
    15.9667  15.9670

     occupation numbers 
     1.0000   1.0000   1.0000   1.0000   1.0000   1.0000   1.0000   1.0000
     0.0000   0.0000

          k = 0.3889 0.3889 0.4444 (   948 PWs)   bands (ev):

     1.2227   2.1990   3.1599   3.1601   4.1611   4.1613   5.1109   6.0646
    16.3084  16.3086

     occupation numbers 
     1.0000   1.0000   1.0000   1.0000   1.0000   1.0000   1.0000   1.0000
     0.0000   0.0000

          k = 0.3889 0.3889-0.5000 (   942 PWs)   bands (ev):

     1.6848   1.6849   3.5052   3.5054   3.7638   3.7640   5.5617   5.5618
    16.7668  16.7675

     occupation numbers 
     1.0000   1.0000   1.0000   1.0000   1.0000   1.0000   1.0000   1.0000
     0.0000   0.0000

          k = 0.3889 0.4444 0.4444 (   945 PWs)   bands (ev):

     1.6307   2.6026   2.6027   3.4529   3.7097   4.5542   4.5543   5.5093
    16.6593  17.3408

     occupation numbers 
     1.0000   1.0000   1.0000   1.0000   1.0000   1.0000   1.0000   1.0000
     0.0000   0.0000

          k = 0.3889 0.4444-0.5000 (   942 PWs)   bands (ev):

     2.0912   2.0912   3.0536   3.0536   4.0541   4.0542   5.0052   5.0053
    17.0238  17.0238

     occupation numbers 
     1.0000   1.0000   1.0000   1.0000   1.0000   1.0000   1.0000   1.0000
     0.0000   0.0000

          k = 0.3889-0.5000-0.5000 (   948 PWs)   bands (ev):

     2.5489   2.5489   2.5491   2.5491   4.5010   4.5010   4.5012   4.5012
    17.3980  17.3982

     occupation numbers 
     1.0000   1.0000   1.0000   1.0000   1.0000   1.0000   1.0000   1.0000
     0.0000   0.0000

          k = 0.4444 0.4444 0.4444 (   940 PWs)   bands (ev):

     2.0371   2.9999   3.0002   3.0002   4.0007   4.0010   4.0010   4.9526
    17.8129  17.8129

     occupation numbers 
     1.0000   1.0000   1.0000   1.0000   1.0000   1.0000   1.0000   1.0000
     0.0000   0.0000

          k = 0.4444 0.4444-0.5000 (   942 PWs)   bands (ev):

     2.4952   2.4952   3.3479   3.3480   3.6010   3.6011   4.4481   4.4482
    18.1270  18.1272

     occupation numbers 
     1.0000   1.0000   1.0000   1.0000   1.0000   1.0000   1.0000   1.0000
     0.0000   0.0000

          k = 0.4444-0.5000-0.5000 (   948 PWs)   bands (ev):

     2.9466   2.9467   2.9468   2.9468   3.9473   3.9474   3.9475   3.9475
    18.4431  18.4433

     occupation numbers 
     1.0000   1.0000   1.0000   1.0000   1.0000   1.0000   1.0000   1.0000
     0.0000   0.0000

          k =-0.5000-0.5000-0.5000 (   968 PWs)   bands (ev):

     3.2952   3.2955   3.2955   3.2955   3.5464   3.5467   3.5467   3.5467
    19.2286  19.2288

     occupation numbers 
     1.0000   1.0000   1.0000   1.0000   1.0000   1.0000   1.0000   1.0000
     0.0000   0.0000

     the Fermi energy is     7.9479 ev

!    total energy              =     -26.83074150 Ry
     Harris-Foulkes estimate   =     -26.83074151 Ry
     estimated scf accuracy    <       0.00000003 Ry

     The total energy is the sum of the following terms:

     one-electron contribution =      11.93859849 Ry
     hartree contribution      =       0.03339082 Ry
     xc contribution           =     -17.17728755 Ry
     ewald contribution        =     -21.62537170 Ry
     smearing contrib. (-TS)   =      -0.00007155 Ry

     convergence has been achieved in   5 iterations
 
     init_run     :     47.66s CPU      2.15s WALL (       1 calls)
     electrons    :    562.85s CPU     24.00s WALL (       1 calls)

     Called by init_run:
     wfcinit      :     47.29s CPU      2.03s WALL (       1 calls)
     wfcinit:atom :      1.11s CPU      0.05s WALL (     220 calls)
     wfcinit:wfcr :     41.71s CPU      1.79s WALL (     220 calls)
     potinit      :      0.05s CPU      0.01s WALL (       1 calls)

     Called by electrons:
     c_bands      :    483.23s CPU     20.60s WALL (       6 calls)
     sum_band     :     77.84s CPU      3.33s WALL (       6 calls)
     v_of_rho     :      0.73s CPU      0.03s WALL (       6 calls)
     v_h          :      0.03s CPU      0.00s WALL (       6 calls)
     v_xc         :      0.70s CPU      0.03s WALL (       6 calls)
     newd         :      0.70s CPU      0.04s WALL (       6 calls)
     mix_rho      :      0.14s CPU      0.01s WALL (       6 calls)

     Called by c_bands:
     init_us_2    :     18.62s CPU      0.80s WALL (    2860 calls)
     cegterg      :    434.38s CPU     18.50s WALL (    1320 calls)

     Called by sum_band:
     sum_band:bec :      0.49s CPU      0.02s WALL (    1320 calls)
     addusdens    :      0.68s CPU      0.03s WALL (       6 calls)

     Called by *egterg:
     h_psi        :    410.81s CPU     17.52s WALL (    4604 calls)
     s_psi        :      3.62s CPU      0.15s WALL (    4604 calls)
     g_psi        :      2.07s CPU      0.09s WALL (    3064 calls)
     cdiaghg      :     21.89s CPU      0.95s WALL (    4164 calls)
     cegterg:over :      5.87s CPU      0.25s WALL (    3064 calls)
     cegterg:upda :      6.28s CPU      0.28s WALL (    3064 calls)
     cegterg:last :      2.83s CPU      0.13s WALL (    1321 calls)

     Called by h_psi:
     h_psi:pot    :    406.47s CPU     17.32s WALL (    4604 calls)
     h_psi:calbec :     15.04s CPU      0.64s WALL (    4604 calls)
     vloc_psi     :    381.50s CPU     16.27s WALL (    4604 calls)
     add_vuspsi   :      6.02s CPU      0.27s WALL (    4604 calls)

     General routines
     calbec       :     16.02s CPU      0.72s WALL (    5924 calls)
     fft          :      0.31s CPU      0.03s WALL (      80 calls)
     fftw         :    354.49s CPU     15.17s WALL (   86664 calls)
 
     Parallel routines
 
     PWSCF        : 10m10.69s CPU     0m26.21s WALL

 
   This run was terminated on:  17:30:19  24Jan2019            

=------------------------------------------------------------------------------=
   JOB DONE.
=------------------------------------------------------------------------------=
