
     Program PWSCF v.6.2 (svn rev. 14038) starts on 24Jan2019 at 12:23:42 

     This program is part of the open-source Quantum ESPRESSO suite
     for quantum simulation of materials; please cite
         "P. Giannozzi et al., J. Phys.:Condens. Matter 21 395502 (2009);
         "P. Giannozzi et al., J. Phys.:Condens. Matter 29 465901 (2017);
          URL http://www.quantum-espresso.org", 
     in publications or presentations arising from this work. More details at
     http://www.quantum-espresso.org/quote

     Parallel version (MPI), running on     1 processors

     MPI processes distributed on     1 nodes
     Reading input from ./Al24.in
Warning: card &IONS ignored
Warning: card / ignored
Warning: card &CELL ignored
Warning: card / ignored

     Current dimensions of program PWSCF are:
     Max number of different atomic species (ntypx) = 10
     Max number of k-points (npk) =  40000
     Max angular momentum in pseudopotentials (lmaxx) =  3
     Message from routine iosys:
     minimal I/O required, wf_collect reset to FALSE

     Subspace diagonalization in iterative solution of the eigenvalue problem:
     a serial algorithm will be used

 
     G-vector sticks info
     --------------------
     sticks:   dense  smooth     PW     G-vecs:    dense   smooth      PW
     Sum         283     283     97                 3119     3119     645
 


     bravais-lattice index     =            0
     lattice parameter (alat)  =       5.3970  a.u.
     unit-cell volume          =     111.1567 (a.u.)^3
     number of atoms/cell      =            1
     number of atomic types    =            1
     number of electrons       =         3.00
     number of Kohn-Sham states=            6
     kinetic-energy cutoff     =      35.0000  Ry
     charge density cutoff     =     140.0000  Ry
     convergence threshold     =      1.0E-05
     mixing beta               =       0.7000
     number of iterations used =            8  plain     mixing
     Exchange-correlation      = SLA  PZ   NOGX NOGC ( 1  1  0  0 0 0)

     celldm(1)=   5.396971  celldm(2)=   0.000000  celldm(3)=   0.000000
     celldm(4)=   0.000000  celldm(5)=   0.000000  celldm(6)=   0.000000

     crystal axes: (cart. coord. in units of alat)
               a(1) = (   0.866025   0.000000   0.500000 )  
               a(2) = (   0.288675   0.816497   0.500000 )  
               a(3) = (   0.000000   0.000000   1.000000 )  

     reciprocal axes: (cart. coord. in units 2 pi/alat)
               b(1) = (  1.154701 -0.408248  0.000000 )  
               b(2) = (  0.000000  1.224745  0.000000 )  
               b(3) = ( -0.577350 -0.408248  1.000000 )  


     PseudoPot. # 1 for Al read from file:
     ./al_lda_v1.uspp.F.UPF
     MD5 check sum: 51a9e5980debfdd3404790b200e14add
     Pseudo is Ultrasoft + core correction, Zval =  3.0
     Generated by new atomic code, or converted to UPF format
     Using radial grid of  893 points,  3 beta functions with: 
                l(1) =   0
                l(2) =   1
                l(3) =   2
     Q(r) pseudized with  8 coefficients,  rinner =    0.900   0.900   0.900
                                                       0.900   0.900

     atomic species   valence    mass     pseudopotential
        Al             3.00    26.98150     Al( 1.00)

      4 Sym. Ops., with inversion, found


                                    s                        frac. trans.

      isym =  1     identity                                     

 cryst.   s( 1) = (     1          0          0      )
                  (     0          1          0      )
                  (     0          0          1      )

 cart.    s( 1) = (  1.0000000  0.0000000  0.0000000 )
                  (  0.0000000  1.0000000  0.0000000 )
                  (  0.0000000 -0.0000000  1.0000000 )


      isym =  2     180 deg rotation - cart. axis [0,0,1]        

 cryst.   s( 2) = (    -1          0          1      )
                  (     0         -1          1      )
                  (     0          0          1      )

 cart.    s( 2) = ( -1.0000000  0.0000000  0.0000000 )
                  (  0.0000000 -1.0000000  0.0000000 )
                  (  0.0000004  0.0000003  1.0000000 )


      isym =  3     inversion                                    

 cryst.   s( 3) = (    -1          0          0      )
                  (     0         -1          0      )
                  (     0          0         -1      )

 cart.    s( 3) = ( -1.0000000  0.0000000  0.0000000 )
                  (  0.0000000 -1.0000000  0.0000000 )
                  ( -0.0000000  0.0000000 -1.0000000 )


      isym =  4     inv. 180 deg rotation - cart. axis [0,0,1]   

 cryst.   s( 4) = (     1          0         -1      )
                  (     0          1         -1      )
                  (     0          0         -1      )

 cart.    s( 4) = (  1.0000000  0.0000000  0.0000000 )
                  (  0.0000000  1.0000000  0.0000000 )
                  ( -0.0000004 -0.0000003 -1.0000000 )


   Cartesian axes

     site n.     atom                  positions (alat units)
         1           Al  tau(   1) = (   0.0000000   0.0000000   0.0000000  )

   Crystallographic axes

     site n.     atom                  positions (cryst. coord.)
         1           Al  tau(   1) = (  0.0000000  0.0000000  0.0000000  )

     number of k points=  3614  Marzari-Vanderbilt smearing, width (Ry)=  0.0100
                       cart. coord. in units 2pi/alat
        k(    1) = (   0.0000000   0.0000000   0.0000000), wk =   0.0001447
        k(    2) = (  -0.0240563  -0.0170103   0.0416667), wk =   0.0005787
        k(    3) = (  -0.0481125  -0.0340207   0.0833333), wk =   0.0005787
        k(    4) = (  -0.0721688  -0.0510310   0.1250000), wk =   0.0005787
        k(    5) = (  -0.0962250  -0.0680414   0.1666666), wk =   0.0005787
        k(    6) = (  -0.1202813  -0.0850517   0.2083333), wk =   0.0005787
        k(    7) = (  -0.1443375  -0.1020620   0.2499999), wk =   0.0005787
        k(    8) = (  -0.1683938  -0.1190724   0.2916666), wk =   0.0005787
        k(    9) = (  -0.1924500  -0.1360827   0.3333332), wk =   0.0005787
        k(   10) = (  -0.2165063  -0.1530930   0.3749999), wk =   0.0005787
        k(   11) = (  -0.2405625  -0.1701034   0.4166666), wk =   0.0005787
        k(   12) = (  -0.2646188  -0.1871137   0.4583332), wk =   0.0005787
        k(   13) = (   0.2886750   0.2041241  -0.4999999), wk =   0.0002894
        k(   14) = (   0.0000000   0.0510310   0.0000000), wk =   0.0002894
        k(   15) = (  -0.0240563   0.0340207   0.0416667), wk =   0.0005787
        k(   16) = (  -0.0481125   0.0170104   0.0833333), wk =   0.0005787
        k(   17) = (  -0.0721688   0.0000000   0.1250000), wk =   0.0005787
        k(   18) = (  -0.0962250  -0.0170103   0.1666666), wk =   0.0005787
        k(   19) = (  -0.1202813  -0.0340207   0.2083333), wk =   0.0005787
        k(   20) = (  -0.1443375  -0.0510310   0.2499999), wk =   0.0005787
        k(   21) = (  -0.1683938  -0.0680413   0.2916666), wk =   0.0005787
        k(   22) = (  -0.1924500  -0.0850517   0.3333332), wk =   0.0005787
        k(   23) = (  -0.2165063  -0.1020620   0.3749999), wk =   0.0005787
        k(   24) = (  -0.2405625  -0.1190724   0.4166666), wk =   0.0005787
        k(   25) = (  -0.2646188  -0.1360827   0.4583332), wk =   0.0005787
        k(   26) = (   0.2886750   0.2551551  -0.4999999), wk =   0.0005787
        k(   27) = (   0.2646188   0.2381448  -0.4583332), wk =   0.0005787
        k(   28) = (   0.2405625   0.2211344  -0.4166666), wk =   0.0005787
        k(   29) = (   0.2165063   0.2041241  -0.3749999), wk =   0.0005787
        k(   30) = (   0.1924500   0.1871137  -0.3333332), wk =   0.0005787
        k(   31) = (   0.1683938   0.1701034  -0.2916666), wk =   0.0005787
        k(   32) = (   0.1443375   0.1530931  -0.2499999), wk =   0.0005787
        k(   33) = (   0.1202813   0.1360827  -0.2083333), wk =   0.0005787
        k(   34) = (   0.0962250   0.1190724  -0.1666666), wk =   0.0005787
        k(   35) = (   0.0721688   0.1020620  -0.1250000), wk =   0.0005787
        k(   36) = (   0.0481125   0.0850517  -0.0833333), wk =   0.0005787
        k(   37) = (   0.0240563   0.0680414  -0.0416667), wk =   0.0005787
        k(   38) = (   0.0000000   0.1020621   0.0000000), wk =   0.0002894
        k(   39) = (  -0.0240563   0.0850517   0.0416667), wk =   0.0005787
        k(   40) = (  -0.0481125   0.0680414   0.0833333), wk =   0.0005787
        k(   41) = (  -0.0721688   0.0510311   0.1250000), wk =   0.0005787
        k(   42) = (  -0.0962250   0.0340207   0.1666666), wk =   0.0005787
        k(   43) = (  -0.1202813   0.0170104   0.2083333), wk =   0.0005787
        k(   44) = (  -0.1443375   0.0000000   0.2499999), wk =   0.0005787
        k(   45) = (  -0.1683938  -0.0170103   0.2916666), wk =   0.0005787
        k(   46) = (  -0.1924500  -0.0340206   0.3333332), wk =   0.0005787
        k(   47) = (  -0.2165063  -0.0510310   0.3749999), wk =   0.0005787
        k(   48) = (  -0.2405625  -0.0680413   0.4166666), wk =   0.0005787
        k(   49) = (  -0.2646188  -0.0850517   0.4583332), wk =   0.0005787
        k(   50) = (   0.2886750   0.3061861  -0.4999999), wk =   0.0005787
        k(   51) = (   0.2646188   0.2891758  -0.4583332), wk =   0.0005787
        k(   52) = (   0.2405625   0.2721655  -0.4166666), wk =   0.0005787
        k(   53) = (   0.2165063   0.2551551  -0.3749999), wk =   0.0005787
        k(   54) = (   0.1924500   0.2381448  -0.3333332), wk =   0.0005787
        k(   55) = (   0.1683938   0.2211344  -0.2916666), wk =   0.0005787
        k(   56) = (   0.1443375   0.2041241  -0.2499999), wk =   0.0005787
        k(   57) = (   0.1202813   0.1871138  -0.2083333), wk =   0.0005787
        k(   58) = (   0.0962250   0.1701034  -0.1666666), wk =   0.0005787
        k(   59) = (   0.0721688   0.1530931  -0.1250000), wk =   0.0005787
        k(   60) = (   0.0481125   0.1360827  -0.0833333), wk =   0.0005787
        k(   61) = (   0.0240563   0.1190724  -0.0416667), wk =   0.0005787
        k(   62) = (   0.0000000   0.1530931   0.0000000), wk =   0.0002894
        k(   63) = (  -0.0240563   0.1360828   0.0416667), wk =   0.0005787
        k(   64) = (  -0.0481125   0.1190724   0.0833333), wk =   0.0005787
        k(   65) = (  -0.0721688   0.1020621   0.1250000), wk =   0.0005787
        k(   66) = (  -0.0962250   0.0850517   0.1666666), wk =   0.0005787
        k(   67) = (  -0.1202813   0.0680414   0.2083333), wk =   0.0005787
        k(   68) = (  -0.1443375   0.0510311   0.2499999), wk =   0.0005787
        k(   69) = (  -0.1683938   0.0340207   0.2916666), wk =   0.0005787
        k(   70) = (  -0.1924500   0.0170104   0.3333332), wk =   0.0005787
        k(   71) = (  -0.2165063   0.0000001   0.3749999), wk =   0.0005787
        k(   72) = (  -0.2405625  -0.0170103   0.4166666), wk =   0.0005787
        k(   73) = (  -0.2646188  -0.0340206   0.4583332), wk =   0.0005787
        k(   74) = (   0.2886750   0.3572172  -0.4999999), wk =   0.0005787
        k(   75) = (   0.2646188   0.3402068  -0.4583332), wk =   0.0005787
        k(   76) = (   0.2405625   0.3231965  -0.4166666), wk =   0.0005787
        k(   77) = (   0.2165063   0.3061861  -0.3749999), wk =   0.0005787
        k(   78) = (   0.1924500   0.2891758  -0.3333332), wk =   0.0005787
        k(   79) = (   0.1683938   0.2721655  -0.2916666), wk =   0.0005787
        k(   80) = (   0.1443375   0.2551551  -0.2499999), wk =   0.0005787
        k(   81) = (   0.1202813   0.2381448  -0.2083333), wk =   0.0005787
        k(   82) = (   0.0962250   0.2211345  -0.1666666), wk =   0.0005787
        k(   83) = (   0.0721688   0.2041241  -0.1250000), wk =   0.0005787
        k(   84) = (   0.0481125   0.1871138  -0.0833333), wk =   0.0005787
        k(   85) = (   0.0240563   0.1701034  -0.0416667), wk =   0.0005787
        k(   86) = (   0.0000000   0.2041241   0.0000000), wk =   0.0002894
        k(   87) = (  -0.0240563   0.1871138   0.0416667), wk =   0.0005787
        k(   88) = (  -0.0481125   0.1701035   0.0833333), wk =   0.0005787
        k(   89) = (  -0.0721688   0.1530931   0.1250000), wk =   0.0005787
        k(   90) = (  -0.0962250   0.1360828   0.1666666), wk =   0.0005787
        k(   91) = (  -0.1202813   0.1190724   0.2083333), wk =   0.0005787
        k(   92) = (  -0.1443375   0.1020621   0.2499999), wk =   0.0005787
        k(   93) = (  -0.1683938   0.0850518   0.2916666), wk =   0.0005787
        k(   94) = (  -0.1924500   0.0680414   0.3333332), wk =   0.0005787
        k(   95) = (  -0.2165063   0.0510311   0.3749999), wk =   0.0005787
        k(   96) = (  -0.2405625   0.0340207   0.4166666), wk =   0.0005787
        k(   97) = (  -0.2646188   0.0170104   0.4583332), wk =   0.0005787
        k(   98) = (   0.2886750   0.4082482  -0.4999999), wk =   0.0005787
        k(   99) = (   0.2646188   0.3912379  -0.4583332), wk =   0.0005787
        k(  100) = (   0.2405625   0.3742275  -0.4166666), wk =   0.0005787
        k(  101) = (   0.2165063   0.3572172  -0.3749999), wk =   0.0005787
        k(  102) = (   0.1924500   0.3402068  -0.3333332), wk =   0.0005787
        k(  103) = (   0.1683938   0.3231965  -0.2916666), wk =   0.0005787
        k(  104) = (   0.1443375   0.3061862  -0.2499999), wk =   0.0005787
        k(  105) = (   0.1202813   0.2891758  -0.2083333), wk =   0.0005787
        k(  106) = (   0.0962250   0.2721655  -0.1666666), wk =   0.0005787
        k(  107) = (   0.0721688   0.2551552  -0.1250000), wk =   0.0005787
        k(  108) = (   0.0481125   0.2381448  -0.0833333), wk =   0.0005787
        k(  109) = (   0.0240563   0.2211345  -0.0416667), wk =   0.0005787
        k(  110) = (   0.0000000   0.2551552   0.0000000), wk =   0.0002894
        k(  111) = (  -0.0240563   0.2381448   0.0416667), wk =   0.0005787
        k(  112) = (  -0.0481125   0.2211345   0.0833333), wk =   0.0005787
        k(  113) = (  -0.0721688   0.2041242   0.1250000), wk =   0.0005787
        k(  114) = (  -0.0962250   0.1871138   0.1666666), wk =   0.0005787
        k(  115) = (  -0.1202813   0.1701035   0.2083333), wk =   0.0005787
        k(  116) = (  -0.1443375   0.1530931   0.2499999), wk =   0.0005787
        k(  117) = (  -0.1683938   0.1360828   0.2916666), wk =   0.0005787
        k(  118) = (  -0.1924500   0.1190725   0.3333332), wk =   0.0005787
        k(  119) = (  -0.2165063   0.1020621   0.3749999), wk =   0.0005787
        k(  120) = (  -0.2405625   0.0850518   0.4166666), wk =   0.0005787
        k(  121) = (  -0.2646188   0.0680414   0.4583332), wk =   0.0005787
        k(  122) = (   0.2886750   0.4592792  -0.4999999), wk =   0.0005787
        k(  123) = (   0.2646188   0.4422689  -0.4583332), wk =   0.0005787
        k(  124) = (   0.2405625   0.4252586  -0.4166666), wk =   0.0005787
        k(  125) = (   0.2165063   0.4082482  -0.3749999), wk =   0.0005787
        k(  126) = (   0.1924500   0.3912379  -0.3333332), wk =   0.0005787
        k(  127) = (   0.1683938   0.3742275  -0.2916666), wk =   0.0005787
        k(  128) = (   0.1443375   0.3572172  -0.2499999), wk =   0.0005787
        k(  129) = (   0.1202813   0.3402069  -0.2083333), wk =   0.0005787
        k(  130) = (   0.0962250   0.3231965  -0.1666666), wk =   0.0005787
        k(  131) = (   0.0721688   0.3061862  -0.1250000), wk =   0.0005787
        k(  132) = (   0.0481125   0.2891758  -0.0833333), wk =   0.0005787
        k(  133) = (   0.0240563   0.2721655  -0.0416667), wk =   0.0005787
        k(  134) = (   0.0000000   0.3061862   0.0000000), wk =   0.0002894
        k(  135) = (  -0.0240563   0.2891759   0.0416667), wk =   0.0005787
        k(  136) = (  -0.0481125   0.2721655   0.0833333), wk =   0.0005787
        k(  137) = (  -0.0721688   0.2551552   0.1250000), wk =   0.0005787
        k(  138) = (  -0.0962250   0.2381448   0.1666666), wk =   0.0005787
        k(  139) = (  -0.1202813   0.2211345   0.2083333), wk =   0.0005787
        k(  140) = (  -0.1443375   0.2041242   0.2499999), wk =   0.0005787
        k(  141) = (  -0.1683938   0.1871138   0.2916666), wk =   0.0005787
        k(  142) = (  -0.1924500   0.1701035   0.3333332), wk =   0.0005787
        k(  143) = (  -0.2165063   0.1530932   0.3749999), wk =   0.0005787
        k(  144) = (  -0.2405625   0.1360828   0.4166666), wk =   0.0005787
        k(  145) = (  -0.2646188   0.1190725   0.4583332), wk =   0.0005787
        k(  146) = (   0.2886750   0.5103103  -0.4999999), wk =   0.0005787
        k(  147) = (   0.2646188   0.4932999  -0.4583332), wk =   0.0005787
        k(  148) = (   0.2405625   0.4762896  -0.4166666), wk =   0.0005787
        k(  149) = (   0.2165063   0.4592792  -0.3749999), wk =   0.0005787
        k(  150) = (   0.1924500   0.4422689  -0.3333332), wk =   0.0005787
        k(  151) = (   0.1683938   0.4252586  -0.2916666), wk =   0.0005787
        k(  152) = (   0.1443375   0.4082482  -0.2499999), wk =   0.0005787
        k(  153) = (   0.1202813   0.3912379  -0.2083333), wk =   0.0005787
        k(  154) = (   0.0962250   0.3742276  -0.1666666), wk =   0.0005787
        k(  155) = (   0.0721688   0.3572172  -0.1250000), wk =   0.0005787
        k(  156) = (   0.0481125   0.3402069  -0.0833333), wk =   0.0005787
        k(  157) = (   0.0240563   0.3231965  -0.0416667), wk =   0.0005787
        k(  158) = (   0.0000000   0.3572172   0.0000000), wk =   0.0002894
        k(  159) = (  -0.0240563   0.3402069   0.0416667), wk =   0.0005787
        k(  160) = (  -0.0481125   0.3231966   0.0833333), wk =   0.0005787
        k(  161) = (  -0.0721688   0.3061862   0.1250000), wk =   0.0005787
        k(  162) = (  -0.0962250   0.2891759   0.1666666), wk =   0.0005787
        k(  163) = (  -0.1202813   0.2721655   0.2083333), wk =   0.0005787
        k(  164) = (  -0.1443375   0.2551552   0.2499999), wk =   0.0005787
        k(  165) = (  -0.1683938   0.2381449   0.2916666), wk =   0.0005787
        k(  166) = (  -0.1924500   0.2211345   0.3333332), wk =   0.0005787
        k(  167) = (  -0.2165063   0.2041242   0.3749999), wk =   0.0005787
        k(  168) = (  -0.2405625   0.1871138   0.4166666), wk =   0.0005787
        k(  169) = (  -0.2646188   0.1701035   0.4583332), wk =   0.0005787
        k(  170) = (   0.2886750   0.5613413  -0.4999999), wk =   0.0005787
        k(  171) = (   0.2646188   0.5443310  -0.4583332), wk =   0.0005787
        k(  172) = (   0.2405625   0.5273206  -0.4166666), wk =   0.0005787
        k(  173) = (   0.2165063   0.5103103  -0.3749999), wk =   0.0005787
        k(  174) = (   0.1924500   0.4932999  -0.3333332), wk =   0.0005787
        k(  175) = (   0.1683938   0.4762896  -0.2916666), wk =   0.0005787
        k(  176) = (   0.1443375   0.4592793  -0.2499999), wk =   0.0005787
        k(  177) = (   0.1202813   0.4422689  -0.2083333), wk =   0.0005787
        k(  178) = (   0.0962250   0.4252586  -0.1666666), wk =   0.0005787
        k(  179) = (   0.0721688   0.4082483  -0.1250000), wk =   0.0005787
        k(  180) = (   0.0481125   0.3912379  -0.0833333), wk =   0.0005787
        k(  181) = (   0.0240563   0.3742276  -0.0416667), wk =   0.0005787
        k(  182) = (   0.0000000   0.4082483   0.0000000), wk =   0.0002894
        k(  183) = (  -0.0240563   0.3912379   0.0416667), wk =   0.0005787
        k(  184) = (  -0.0481125   0.3742276   0.0833333), wk =   0.0005787
        k(  185) = (  -0.0721688   0.3572173   0.1250000), wk =   0.0005787
        k(  186) = (  -0.0962250   0.3402069   0.1666666), wk =   0.0005787
        k(  187) = (  -0.1202813   0.3231966   0.2083333), wk =   0.0005787
        k(  188) = (  -0.1443375   0.3061862   0.2499999), wk =   0.0005787
        k(  189) = (  -0.1683938   0.2891759   0.2916666), wk =   0.0005787
        k(  190) = (  -0.1924500   0.2721656   0.3333332), wk =   0.0005787
        k(  191) = (  -0.2165063   0.2551552   0.3749999), wk =   0.0005787
        k(  192) = (  -0.2405625   0.2381449   0.4166666), wk =   0.0005787
        k(  193) = (  -0.2646188   0.2211345   0.4583332), wk =   0.0005787
        k(  194) = (   0.2886750   0.6123723  -0.4999999), wk =   0.0005787
        k(  195) = (   0.2646188   0.5953620  -0.4583332), wk =   0.0005787
        k(  196) = (   0.2405625   0.5783517  -0.4166666), wk =   0.0005787
        k(  197) = (   0.2165063   0.5613413  -0.3749999), wk =   0.0005787
        k(  198) = (   0.1924500   0.5443310  -0.3333332), wk =   0.0005787
        k(  199) = (   0.1683938   0.5273206  -0.2916666), wk =   0.0005787
        k(  200) = (   0.1443375   0.5103103  -0.2499999), wk =   0.0005787
        k(  201) = (   0.1202813   0.4933000  -0.2083333), wk =   0.0005787
        k(  202) = (   0.0962250   0.4762896  -0.1666666), wk =   0.0005787
        k(  203) = (   0.0721688   0.4592793  -0.1250000), wk =   0.0005787
        k(  204) = (   0.0481125   0.4422689  -0.0833333), wk =   0.0005787
        k(  205) = (   0.0240563   0.4252586  -0.0416667), wk =   0.0005787
        k(  206) = (   0.0000000   0.4592793   0.0000000), wk =   0.0002894
        k(  207) = (  -0.0240563   0.4422690   0.0416667), wk =   0.0005787
        k(  208) = (  -0.0481125   0.4252586   0.0833333), wk =   0.0005787
        k(  209) = (  -0.0721688   0.4082483   0.1250000), wk =   0.0005787
        k(  210) = (  -0.0962250   0.3912379   0.1666666), wk =   0.0005787
        k(  211) = (  -0.1202813   0.3742276   0.2083333), wk =   0.0005787
        k(  212) = (  -0.1443375   0.3572173   0.2499999), wk =   0.0005787
        k(  213) = (  -0.1683938   0.3402069   0.2916666), wk =   0.0005787
        k(  214) = (  -0.1924500   0.3231966   0.3333332), wk =   0.0005787
        k(  215) = (  -0.2165063   0.3061863   0.3749999), wk =   0.0005787
        k(  216) = (  -0.2405625   0.2891759   0.4166666), wk =   0.0005787
        k(  217) = (  -0.2646188   0.2721656   0.4583332), wk =   0.0005787
        k(  218) = (   0.2886750   0.6634034  -0.4999999), wk =   0.0005787
        k(  219) = (   0.2646188   0.6463930  -0.4583332), wk =   0.0005787
        k(  220) = (   0.2405625   0.6293827  -0.4166666), wk =   0.0005787
        k(  221) = (   0.2165063   0.6123723  -0.3749999), wk =   0.0005787
        k(  222) = (   0.1924500   0.5953620  -0.3333332), wk =   0.0005787
        k(  223) = (   0.1683938   0.5783517  -0.2916666), wk =   0.0005787
        k(  224) = (   0.1443375   0.5613413  -0.2499999), wk =   0.0005787
        k(  225) = (   0.1202813   0.5443310  -0.2083333), wk =   0.0005787
        k(  226) = (   0.0962250   0.5273207  -0.1666666), wk =   0.0005787
        k(  227) = (   0.0721688   0.5103103  -0.1250000), wk =   0.0005787
        k(  228) = (   0.0481125   0.4933000  -0.0833333), wk =   0.0005787
        k(  229) = (   0.0240563   0.4762896  -0.0416667), wk =   0.0005787
        k(  230) = (   0.0000000   0.5103103   0.0000000), wk =   0.0002894
        k(  231) = (  -0.0240563   0.4933000   0.0416667), wk =   0.0005787
        k(  232) = (  -0.0481125   0.4762897   0.0833333), wk =   0.0005787
        k(  233) = (  -0.0721688   0.4592793   0.1250000), wk =   0.0005787
        k(  234) = (  -0.0962250   0.4422690   0.1666666), wk =   0.0005787
        k(  235) = (  -0.1202813   0.4252586   0.2083333), wk =   0.0005787
        k(  236) = (  -0.1443375   0.4082483   0.2499999), wk =   0.0005787
        k(  237) = (  -0.1683938   0.3912380   0.2916666), wk =   0.0005787
        k(  238) = (  -0.1924500   0.3742276   0.3333332), wk =   0.0005787
        k(  239) = (  -0.2165063   0.3572173   0.3749999), wk =   0.0005787
        k(  240) = (  -0.2405625   0.3402070   0.4166666), wk =   0.0005787
        k(  241) = (  -0.2646188   0.3231966   0.4583332), wk =   0.0005787
        k(  242) = (   0.2886750   0.7144344  -0.4999999), wk =   0.0005787
        k(  243) = (   0.2646188   0.6974241  -0.4583332), wk =   0.0005787
        k(  244) = (   0.2405625   0.6804137  -0.4166666), wk =   0.0005787
        k(  245) = (   0.2165063   0.6634034  -0.3749999), wk =   0.0005787
        k(  246) = (   0.1924500   0.6463930  -0.3333332), wk =   0.0005787
        k(  247) = (   0.1683938   0.6293827  -0.2916666), wk =   0.0005787
        k(  248) = (   0.1443375   0.6123724  -0.2499999), wk =   0.0005787
        k(  249) = (   0.1202813   0.5953620  -0.2083333), wk =   0.0005787
        k(  250) = (   0.0962250   0.5783517  -0.1666666), wk =   0.0005787
        k(  251) = (   0.0721688   0.5613414  -0.1250000), wk =   0.0005787
        k(  252) = (   0.0481125   0.5443310  -0.0833333), wk =   0.0005787
        k(  253) = (   0.0240563   0.5273207  -0.0416667), wk =   0.0005787
        k(  254) = (   0.0000000   0.5613414   0.0000000), wk =   0.0002894
        k(  255) = (  -0.0240563   0.5443310   0.0416667), wk =   0.0005787
        k(  256) = (  -0.0481125   0.5273207   0.0833333), wk =   0.0005787
        k(  257) = (  -0.0721688   0.5103104   0.1250000), wk =   0.0005787
        k(  258) = (  -0.0962250   0.4933000   0.1666666), wk =   0.0005787
        k(  259) = (  -0.1202813   0.4762897   0.2083333), wk =   0.0005787
        k(  260) = (  -0.1443375   0.4592793   0.2499999), wk =   0.0005787
        k(  261) = (  -0.1683938   0.4422690   0.2916666), wk =   0.0005787
        k(  262) = (  -0.1924500   0.4252587   0.3333332), wk =   0.0005787
        k(  263) = (  -0.2165063   0.4082483   0.3749999), wk =   0.0005787
        k(  264) = (  -0.2405625   0.3912380   0.4166666), wk =   0.0005787
        k(  265) = (  -0.2646188   0.3742276   0.4583332), wk =   0.0005787
        k(  266) = (   0.2886750   0.7654654  -0.4999999), wk =   0.0005787
        k(  267) = (   0.2646188   0.7484551  -0.4583332), wk =   0.0005787
        k(  268) = (   0.2405625   0.7314448  -0.4166666), wk =   0.0005787
        k(  269) = (   0.2165063   0.7144344  -0.3749999), wk =   0.0005787
        k(  270) = (   0.1924500   0.6974241  -0.3333332), wk =   0.0005787
        k(  271) = (   0.1683938   0.6804137  -0.2916666), wk =   0.0005787
        k(  272) = (   0.1443375   0.6634034  -0.2499999), wk =   0.0005787
        k(  273) = (   0.1202813   0.6463931  -0.2083333), wk =   0.0005787
        k(  274) = (   0.0962250   0.6293827  -0.1666666), wk =   0.0005787
        k(  275) = (   0.0721688   0.6123724  -0.1250000), wk =   0.0005787
        k(  276) = (   0.0481125   0.5953620  -0.0833333), wk =   0.0005787
        k(  277) = (   0.0240563   0.5783517  -0.0416667), wk =   0.0005787
        k(  278) = (   0.0000000  -0.6123724   0.0000000), wk =   0.0001447
        k(  279) = (  -0.0240563  -0.6293827   0.0416667), wk =   0.0005787
        k(  280) = (  -0.0481125  -0.6463931   0.0833333), wk =   0.0005787
        k(  281) = (  -0.0721688  -0.6634034   0.1250000), wk =   0.0005787
        k(  282) = (  -0.0962250  -0.6804138   0.1666666), wk =   0.0005787
        k(  283) = (  -0.1202813  -0.6974241   0.2083333), wk =   0.0005787
        k(  284) = (  -0.1443375  -0.7144344   0.2499999), wk =   0.0005787
        k(  285) = (  -0.1683938  -0.7314448   0.2916666), wk =   0.0005787
        k(  286) = (  -0.1924500  -0.7484551   0.3333332), wk =   0.0005787
        k(  287) = (  -0.2165063  -0.7654655   0.3749999), wk =   0.0005787
        k(  288) = (  -0.2405625  -0.7824758   0.4166666), wk =   0.0005787
        k(  289) = (  -0.2646188  -0.7994861   0.4583332), wk =   0.0005787
        k(  290) = (   0.2886750  -0.4082483  -0.4999999), wk =   0.0002894
        k(  291) = (   0.0481125  -0.0170103   0.0000000), wk =   0.0002894
        k(  292) = (   0.0000000  -0.0510310   0.0833333), wk =   0.0005787
        k(  293) = (  -0.0240562  -0.0680414   0.1250000), wk =   0.0005787
        k(  294) = (  -0.0481125  -0.0850517   0.1666666), wk =   0.0005787
        k(  295) = (  -0.0721687  -0.1020620   0.2083333), wk =   0.0005787
        k(  296) = (  -0.0962250  -0.1190724   0.2499999), wk =   0.0005787
        k(  297) = (  -0.1202812  -0.1360827   0.2916666), wk =   0.0005787
        k(  298) = (  -0.1443375  -0.1530931   0.3333332), wk =   0.0005787
        k(  299) = (  -0.1683937  -0.1701034   0.3749999), wk =   0.0005787
        k(  300) = (  -0.1924500  -0.1871137   0.4166666), wk =   0.0005787
        k(  301) = (  -0.2165063  -0.2041241   0.4583332), wk =   0.0005787
        k(  302) = (   0.3367875   0.1871137  -0.4999999), wk =   0.0005787
        k(  303) = (   0.3127313   0.1701034  -0.4583332), wk =   0.0005787
        k(  304) = (   0.2886750   0.1530930  -0.4166666), wk =   0.0005787
        k(  305) = (   0.2646188   0.1360827  -0.3749999), wk =   0.0005787
        k(  306) = (   0.2405625   0.1190724  -0.3333332), wk =   0.0005787
        k(  307) = (   0.2165063   0.1020620  -0.2916666), wk =   0.0005787
        k(  308) = (   0.1924500   0.0850517  -0.2499999), wk =   0.0005787
        k(  309) = (   0.1683938   0.0680413  -0.2083333), wk =   0.0005787
        k(  310) = (   0.1443375   0.0510310  -0.1666666), wk =   0.0005787
        k(  311) = (   0.1202813   0.0340207  -0.1250000), wk =   0.0005787
        k(  312) = (   0.0962250   0.0170103  -0.0833333), wk =   0.0005787
        k(  313) = (   0.0721688  -0.0000000  -0.0416667), wk =   0.0005787
        k(  314) = (   0.0481125   0.0340207   0.0000000), wk =   0.0002894
        k(  315) = (   0.0000000   0.0000000   0.0833333), wk =   0.0002894
        k(  316) = (  -0.0240562  -0.0170103   0.1250000), wk =   0.0005787
        k(  317) = (  -0.0481125  -0.0340207   0.1666666), wk =   0.0005787
        k(  318) = (  -0.0721687  -0.0510310   0.2083333), wk =   0.0005787
        k(  319) = (  -0.0962250  -0.0680413   0.2499999), wk =   0.0005787
        k(  320) = (  -0.1202812  -0.0850517   0.2916666), wk =   0.0005787
        k(  321) = (  -0.1443375  -0.1020620   0.3333332), wk =   0.0005787
        k(  322) = (  -0.1683937  -0.1190724   0.3749999), wk =   0.0005787
        k(  323) = (  -0.1924500  -0.1360827   0.4166666), wk =   0.0005787
        k(  324) = (  -0.2165063  -0.1530930   0.4583332), wk =   0.0005787
        k(  325) = (   0.3367875   0.2381448  -0.4999999), wk =   0.0005787
        k(  326) = (   0.3127313   0.2211344  -0.4583332), wk =   0.0005787
        k(  327) = (   0.2886750   0.2041241  -0.4166666), wk =   0.0005787
        k(  328) = (   0.2646188   0.1871137  -0.3749999), wk =   0.0005787
        k(  329) = (   0.2405625   0.1701034  -0.3333332), wk =   0.0005787
        k(  330) = (   0.2165063   0.1530931  -0.2916666), wk =   0.0005787
        k(  331) = (   0.1924500   0.1360827  -0.2499999), wk =   0.0005787
        k(  332) = (   0.1683938   0.1190724  -0.2083333), wk =   0.0005787
        k(  333) = (   0.1443375   0.1020620  -0.1666666), wk =   0.0005787
        k(  334) = (   0.1202813   0.0850517  -0.1250000), wk =   0.0005787
        k(  335) = (   0.0962250   0.0680414  -0.0833333), wk =   0.0005787
        k(  336) = (   0.0721688   0.0510310  -0.0416667), wk =   0.0005787
        k(  337) = (   0.0481125   0.0850517   0.0000000), wk =   0.0002894
        k(  338) = (  -0.0240562   0.0340207   0.1250000), wk =   0.0005787
        k(  339) = (  -0.0481125   0.0170104   0.1666666), wk =   0.0005787
        k(  340) = (  -0.0721687   0.0000000   0.2083333), wk =   0.0005787
        k(  341) = (  -0.0962250  -0.0170103   0.2499999), wk =   0.0005787
        k(  342) = (  -0.1202812  -0.0340206   0.2916666), wk =   0.0005787
        k(  343) = (  -0.1443375  -0.0510310   0.3333332), wk =   0.0005787
        k(  344) = (  -0.1683937  -0.0680413   0.3749999), wk =   0.0005787
        k(  345) = (  -0.1924500  -0.0850517   0.4166666), wk =   0.0005787
        k(  346) = (  -0.2165063  -0.1020620   0.4583332), wk =   0.0005787
        k(  347) = (   0.3367875   0.2891758  -0.4999999), wk =   0.0005787
        k(  348) = (   0.3127313   0.2721654  -0.4583332), wk =   0.0005787
        k(  349) = (   0.2886750   0.2551551  -0.4166666), wk =   0.0005787
        k(  350) = (   0.2646188   0.2381448  -0.3749999), wk =   0.0005787
        k(  351) = (   0.2405625   0.2211344  -0.3333332), wk =   0.0005787
        k(  352) = (   0.2165063   0.2041241  -0.2916666), wk =   0.0005787
        k(  353) = (   0.1924500   0.1871138  -0.2499999), wk =   0.0005787
        k(  354) = (   0.1683938   0.1701034  -0.2083333), wk =   0.0005787
        k(  355) = (   0.1443375   0.1530931  -0.1666666), wk =   0.0005787
        k(  356) = (   0.1202813   0.1360827  -0.1250000), wk =   0.0005787
        k(  357) = (   0.0962250   0.1190724  -0.0833333), wk =   0.0005787
        k(  358) = (   0.0721688   0.1020621  -0.0416667), wk =   0.0005787
        k(  359) = (   0.0481125   0.1360828   0.0000000), wk =   0.0002894
        k(  360) = (   0.0000000   0.1020621   0.0833333), wk =   0.0005787
        k(  361) = (  -0.0240562   0.0850517   0.1250000), wk =   0.0005787
        k(  362) = (  -0.0481125   0.0680414   0.1666666), wk =   0.0005787
        k(  363) = (  -0.0721687   0.0510311   0.2083333), wk =   0.0005787
        k(  364) = (  -0.0962250   0.0340207   0.2499999), wk =   0.0005787
        k(  365) = (  -0.1202812   0.0170104   0.2916666), wk =   0.0005787
        k(  366) = (  -0.1443375   0.0000000   0.3333332), wk =   0.0005787
        k(  367) = (  -0.1683937  -0.0170103   0.3749999), wk =   0.0005787
        k(  368) = (  -0.1924500  -0.0340206   0.4166666), wk =   0.0005787
        k(  369) = (  -0.2165063  -0.0510310   0.4583332), wk =   0.0005787
        k(  370) = (   0.3367875   0.3402068  -0.4999999), wk =   0.0005787
        k(  371) = (   0.3127313   0.3231965  -0.4583332), wk =   0.0005787
        k(  372) = (   0.2886750   0.3061861  -0.4166666), wk =   0.0005787
        k(  373) = (   0.2646188   0.2891758  -0.3749999), wk =   0.0005787
        k(  374) = (   0.2405625   0.2721655  -0.3333332), wk =   0.0005787
        k(  375) = (   0.2165063   0.2551551  -0.2916666), wk =   0.0005787
        k(  376) = (   0.1924500   0.2381448  -0.2499999), wk =   0.0005787
        k(  377) = (   0.1683938   0.2211344  -0.2083333), wk =   0.0005787
        k(  378) = (   0.1443375   0.2041241  -0.1666666), wk =   0.0005787
        k(  379) = (   0.1202813   0.1871138  -0.1250000), wk =   0.0005787
        k(  380) = (   0.0962250   0.1701034  -0.0833333), wk =   0.0005787
        k(  381) = (   0.0721688   0.1530931  -0.0416667), wk =   0.0005787
        k(  382) = (   0.0481125   0.1871138   0.0000000), wk =   0.0002894
        k(  383) = (   0.0000000   0.1530931   0.0833333), wk =   0.0005787
        k(  384) = (  -0.0240562   0.1360828   0.1250000), wk =   0.0005787
        k(  385) = (  -0.0481125   0.1190724   0.1666666), wk =   0.0005787
        k(  386) = (  -0.0721687   0.1020621   0.2083333), wk =   0.0005787
        k(  387) = (  -0.0962250   0.0850518   0.2499999), wk =   0.0005787
        k(  388) = (  -0.1202812   0.0680414   0.2916666), wk =   0.0005787
        k(  389) = (  -0.1443375   0.0510311   0.3333332), wk =   0.0005787
        k(  390) = (  -0.1683937   0.0340207   0.3749999), wk =   0.0005787
        k(  391) = (  -0.1924500   0.0170104   0.4166666), wk =   0.0005787
        k(  392) = (  -0.2165063   0.0000001   0.4583332), wk =   0.0005787
        k(  393) = (   0.3367875   0.3912379  -0.4999999), wk =   0.0005787
        k(  394) = (   0.3127313   0.3742275  -0.4583332), wk =   0.0005787
        k(  395) = (   0.2886750   0.3572172  -0.4166666), wk =   0.0005787
        k(  396) = (   0.2646188   0.3402068  -0.3749999), wk =   0.0005787
        k(  397) = (   0.2405625   0.3231965  -0.3333332), wk =   0.0005787
        k(  398) = (   0.2165063   0.3061862  -0.2916666), wk =   0.0005787
        k(  399) = (   0.1924500   0.2891758  -0.2499999), wk =   0.0005787
        k(  400) = (   0.1683938   0.2721655  -0.2083333), wk =   0.0005787
        k(  401) = (   0.1443375   0.2551551  -0.1666666), wk =   0.0005787
        k(  402) = (   0.1202813   0.2381448  -0.1250000), wk =   0.0005787
        k(  403) = (   0.0962250   0.2211345  -0.0833333), wk =   0.0005787
        k(  404) = (   0.0721688   0.2041241  -0.0416667), wk =   0.0005787
        k(  405) = (   0.0481125   0.2381448   0.0000000), wk =   0.0002894
        k(  406) = (   0.0000000   0.2041241   0.0833333), wk =   0.0005787
        k(  407) = (  -0.0240562   0.1871138   0.1250000), wk =   0.0005787
        k(  408) = (  -0.0481125   0.1701035   0.1666666), wk =   0.0005787
        k(  409) = (  -0.0721687   0.1530931   0.2083333), wk =   0.0005787
        k(  410) = (  -0.0962250   0.1360828   0.2499999), wk =   0.0005787
        k(  411) = (  -0.1202812   0.1190725   0.2916666), wk =   0.0005787
        k(  412) = (  -0.1443375   0.1020621   0.3333332), wk =   0.0005787
        k(  413) = (  -0.1683937   0.0850518   0.3749999), wk =   0.0005787
        k(  414) = (  -0.1924500   0.0680414   0.4166666), wk =   0.0005787
        k(  415) = (  -0.2165063   0.0510311   0.4583332), wk =   0.0005787
        k(  416) = (   0.3367875   0.4422689  -0.4999999), wk =   0.0005787
        k(  417) = (   0.3127313   0.4252585  -0.4583332), wk =   0.0005787
        k(  418) = (   0.2886750   0.4082482  -0.4166666), wk =   0.0005787
        k(  419) = (   0.2646188   0.3912379  -0.3749999), wk =   0.0005787
        k(  420) = (   0.2405625   0.3742275  -0.3333332), wk =   0.0005787
        k(  421) = (   0.2165063   0.3572172  -0.2916666), wk =   0.0005787
        k(  422) = (   0.1924500   0.3402069  -0.2499999), wk =   0.0005787
        k(  423) = (   0.1683938   0.3231965  -0.2083333), wk =   0.0005787
        k(  424) = (   0.1443375   0.3061862  -0.1666666), wk =   0.0005787
        k(  425) = (   0.1202813   0.2891758  -0.1250000), wk =   0.0005787
        k(  426) = (   0.0962250   0.2721655  -0.0833333), wk =   0.0005787
        k(  427) = (   0.0721688   0.2551552  -0.0416667), wk =   0.0005787
        k(  428) = (   0.0481125   0.2891759   0.0000000), wk =   0.0002894
        k(  429) = (   0.0000000   0.2551552   0.0833333), wk =   0.0005787
        k(  430) = (  -0.0240562   0.2381448   0.1250000), wk =   0.0005787
        k(  431) = (  -0.0481125   0.2211345   0.1666666), wk =   0.0005787
        k(  432) = (  -0.0721687   0.2041242   0.2083333), wk =   0.0005787
        k(  433) = (  -0.0962250   0.1871138   0.2499999), wk =   0.0005787
        k(  434) = (  -0.1202812   0.1701035   0.2916666), wk =   0.0005787
        k(  435) = (  -0.1443375   0.1530931   0.3333332), wk =   0.0005787
        k(  436) = (  -0.1683937   0.1360828   0.3749999), wk =   0.0005787
        k(  437) = (  -0.1924500   0.1190725   0.4166666), wk =   0.0005787
        k(  438) = (  -0.2165063   0.1020621   0.4583332), wk =   0.0005787
        k(  439) = (   0.3367875   0.4932999  -0.4999999), wk =   0.0005787
        k(  440) = (   0.3127313   0.4762896  -0.4583332), wk =   0.0005787
        k(  441) = (   0.2886750   0.4592792  -0.4166666), wk =   0.0005787
        k(  442) = (   0.2646188   0.4422689  -0.3749999), wk =   0.0005787
        k(  443) = (   0.2405625   0.4252586  -0.3333332), wk =   0.0005787
        k(  444) = (   0.2165063   0.4082482  -0.2916666), wk =   0.0005787
        k(  445) = (   0.1924500   0.3912379  -0.2499999), wk =   0.0005787
        k(  446) = (   0.1683938   0.3742276  -0.2083333), wk =   0.0005787
        k(  447) = (   0.1443375   0.3572172  -0.1666666), wk =   0.0005787
        k(  448) = (   0.1202813   0.3402069  -0.1250000), wk =   0.0005787
        k(  449) = (   0.0962250   0.3231965  -0.0833333), wk =   0.0005787
        k(  450) = (   0.0721688   0.3061862  -0.0416667), wk =   0.0005787
        k(  451) = (   0.0481125   0.3402069   0.0000000), wk =   0.0002894
        k(  452) = (   0.0000000   0.3061862   0.0833333), wk =   0.0005787
        k(  453) = (  -0.0240562   0.2891759   0.1250000), wk =   0.0005787
        k(  454) = (  -0.0481125   0.2721655   0.1666666), wk =   0.0005787
        k(  455) = (  -0.0721687   0.2551552   0.2083333), wk =   0.0005787
        k(  456) = (  -0.0962250   0.2381449   0.2499999), wk =   0.0005787
        k(  457) = (  -0.1202812   0.2211345   0.2916666), wk =   0.0005787
        k(  458) = (  -0.1443375   0.2041242   0.3333332), wk =   0.0005787
        k(  459) = (  -0.1683937   0.1871138   0.3749999), wk =   0.0005787
        k(  460) = (  -0.1924500   0.1701035   0.4166666), wk =   0.0005787
        k(  461) = (  -0.2165063   0.1530932   0.4583332), wk =   0.0005787
        k(  462) = (   0.3367875   0.5443310  -0.4999999), wk =   0.0005787
        k(  463) = (   0.3127313   0.5273206  -0.4583332), wk =   0.0005787
        k(  464) = (   0.2886750   0.5103103  -0.4166666), wk =   0.0005787
        k(  465) = (   0.2646188   0.4932999  -0.3749999), wk =   0.0005787
        k(  466) = (   0.2405625   0.4762896  -0.3333332), wk =   0.0005787
        k(  467) = (   0.2165063   0.4592793  -0.2916666), wk =   0.0005787
        k(  468) = (   0.1924500   0.4422689  -0.2499999), wk =   0.0005787
        k(  469) = (   0.1683938   0.4252586  -0.2083333), wk =   0.0005787
        k(  470) = (   0.1443375   0.4082482  -0.1666666), wk =   0.0005787
        k(  471) = (   0.1202813   0.3912379  -0.1250000), wk =   0.0005787
        k(  472) = (   0.0962250   0.3742276  -0.0833333), wk =   0.0005787
        k(  473) = (   0.0721688   0.3572172  -0.0416667), wk =   0.0005787
        k(  474) = (   0.0481125   0.3912379   0.0000000), wk =   0.0002894
        k(  475) = (   0.0000000   0.3572172   0.0833333), wk =   0.0005787
        k(  476) = (  -0.0240562   0.3402069   0.1250000), wk =   0.0005787
        k(  477) = (  -0.0481125   0.3231966   0.1666666), wk =   0.0005787
        k(  478) = (  -0.0721687   0.3061862   0.2083333), wk =   0.0005787
        k(  479) = (  -0.0962250   0.2891759   0.2499999), wk =   0.0005787
        k(  480) = (  -0.1202812   0.2721656   0.2916666), wk =   0.0005787
        k(  481) = (  -0.1443375   0.2551552   0.3333332), wk =   0.0005787
        k(  482) = (  -0.1683937   0.2381449   0.3749999), wk =   0.0005787
        k(  483) = (  -0.1924500   0.2211345   0.4166666), wk =   0.0005787
        k(  484) = (  -0.2165063   0.2041242   0.4583332), wk =   0.0005787
        k(  485) = (   0.3367875   0.5953620  -0.4999999), wk =   0.0005787
        k(  486) = (   0.3127313   0.5783516  -0.4583332), wk =   0.0005787
        k(  487) = (   0.2886750   0.5613413  -0.4166666), wk =   0.0005787
        k(  488) = (   0.2646188   0.5443310  -0.3749999), wk =   0.0005787
        k(  489) = (   0.2405625   0.5273206  -0.3333332), wk =   0.0005787
        k(  490) = (   0.2165063   0.5103103  -0.2916666), wk =   0.0005787
        k(  491) = (   0.1924500   0.4933000  -0.2499999), wk =   0.0005787
        k(  492) = (   0.1683938   0.4762896  -0.2083333), wk =   0.0005787
        k(  493) = (   0.1443375   0.4592793  -0.1666666), wk =   0.0005787
        k(  494) = (   0.1202813   0.4422689  -0.1250000), wk =   0.0005787
        k(  495) = (   0.0962250   0.4252586  -0.0833333), wk =   0.0005787
        k(  496) = (   0.0721688   0.4082483  -0.0416667), wk =   0.0005787
        k(  497) = (   0.0481125   0.4422690   0.0000000), wk =   0.0002894
        k(  498) = (   0.0000000   0.4082483   0.0833333), wk =   0.0005787
        k(  499) = (  -0.0240562   0.3912379   0.1250000), wk =   0.0005787
        k(  500) = (  -0.0481125   0.3742276   0.1666666), wk =   0.0005787
        k(  501) = (  -0.0721687   0.3572173   0.2083333), wk =   0.0005787
        k(  502) = (  -0.0962250   0.3402069   0.2499999), wk =   0.0005787
        k(  503) = (  -0.1202812   0.3231966   0.2916666), wk =   0.0005787
        k(  504) = (  -0.1443375   0.3061862   0.3333332), wk =   0.0005787
        k(  505) = (  -0.1683937   0.2891759   0.3749999), wk =   0.0005787
        k(  506) = (  -0.1924500   0.2721656   0.4166666), wk =   0.0005787
        k(  507) = (  -0.2165063   0.2551552   0.4583332), wk =   0.0005787
        k(  508) = (   0.3367875   0.6463930  -0.4999999), wk =   0.0005787
        k(  509) = (   0.3127313   0.6293827  -0.4583332), wk =   0.0005787
        k(  510) = (   0.2886750   0.6123723  -0.4166666), wk =   0.0005787
        k(  511) = (   0.2646188   0.5953620  -0.3749999), wk =   0.0005787
        k(  512) = (   0.2405625   0.5783517  -0.3333332), wk =   0.0005787
        k(  513) = (   0.2165063   0.5613413  -0.2916666), wk =   0.0005787
        k(  514) = (   0.1924500   0.5443310  -0.2499999), wk =   0.0005787
        k(  515) = (   0.1683938   0.5273207  -0.2083333), wk =   0.0005787
        k(  516) = (   0.1443375   0.5103103  -0.1666666), wk =   0.0005787
        k(  517) = (   0.1202813   0.4933000  -0.1250000), wk =   0.0005787
        k(  518) = (   0.0962250   0.4762896  -0.0833333), wk =   0.0005787
        k(  519) = (   0.0721688   0.4592793  -0.0416667), wk =   0.0005787
        k(  520) = (   0.0481125   0.4933000   0.0000000), wk =   0.0002894
        k(  521) = (   0.0000000   0.4592793   0.0833333), wk =   0.0005787
        k(  522) = (  -0.0240562   0.4422690   0.1250000), wk =   0.0005787
        k(  523) = (  -0.0481125   0.4252586   0.1666666), wk =   0.0005787
        k(  524) = (  -0.0721687   0.4082483   0.2083333), wk =   0.0005787
        k(  525) = (  -0.0962250   0.3912380   0.2499999), wk =   0.0005787
        k(  526) = (  -0.1202812   0.3742276   0.2916666), wk =   0.0005787
        k(  527) = (  -0.1443375   0.3572173   0.3333332), wk =   0.0005787
        k(  528) = (  -0.1683937   0.3402069   0.3749999), wk =   0.0005787
        k(  529) = (  -0.1924500   0.3231966   0.4166666), wk =   0.0005787
        k(  530) = (  -0.2165063   0.3061863   0.4583332), wk =   0.0005787
        k(  531) = (   0.3367875   0.6974241  -0.4999999), wk =   0.0005787
        k(  532) = (   0.3127313   0.6804137  -0.4583332), wk =   0.0005787
        k(  533) = (   0.2886750   0.6634034  -0.4166666), wk =   0.0005787
        k(  534) = (   0.2646188   0.6463930  -0.3749999), wk =   0.0005787
        k(  535) = (   0.2405625   0.6293827  -0.3333332), wk =   0.0005787
        k(  536) = (   0.2165063   0.6123724  -0.2916666), wk =   0.0005787
        k(  537) = (   0.1924500   0.5953620  -0.2499999), wk =   0.0005787
        k(  538) = (   0.1683938   0.5783517  -0.2083333), wk =   0.0005787
        k(  539) = (   0.1443375   0.5613413  -0.1666666), wk =   0.0005787
        k(  540) = (   0.1202813   0.5443310  -0.1250000), wk =   0.0005787
        k(  541) = (   0.0962250   0.5273207  -0.0833333), wk =   0.0005787
        k(  542) = (   0.0721688   0.5103103  -0.0416667), wk =   0.0005787
        k(  543) = (   0.0481125   0.5443310   0.0000000), wk =   0.0002894
        k(  544) = (   0.0000000   0.5103103   0.0833333), wk =   0.0005787
        k(  545) = (  -0.0240562   0.4933000   0.1250000), wk =   0.0005787
        k(  546) = (  -0.0481125   0.4762897   0.1666666), wk =   0.0005787
        k(  547) = (  -0.0721687   0.4592793   0.2083333), wk =   0.0005787
        k(  548) = (  -0.0962250   0.4422690   0.2499999), wk =   0.0005787
        k(  549) = (  -0.1202812   0.4252587   0.2916666), wk =   0.0005787
        k(  550) = (  -0.1443375   0.4082483   0.3333332), wk =   0.0005787
        k(  551) = (  -0.1683937   0.3912380   0.3749999), wk =   0.0005787
        k(  552) = (  -0.1924500   0.3742276   0.4166666), wk =   0.0005787
        k(  553) = (  -0.2165063   0.3572173   0.4583332), wk =   0.0005787
        k(  554) = (   0.3367875   0.7484551  -0.4999999), wk =   0.0005787
        k(  555) = (   0.3127313   0.7314447  -0.4583332), wk =   0.0005787
        k(  556) = (   0.2886750   0.7144344  -0.4166666), wk =   0.0005787
        k(  557) = (   0.2646188   0.6974241  -0.3749999), wk =   0.0005787
        k(  558) = (   0.2405625   0.6804137  -0.3333332), wk =   0.0005787
        k(  559) = (   0.2165063   0.6634034  -0.2916666), wk =   0.0005787
        k(  560) = (   0.1924500   0.6463931  -0.2499999), wk =   0.0005787
        k(  561) = (   0.1683938   0.6293827  -0.2083333), wk =   0.0005787
        k(  562) = (   0.1443375   0.6123724  -0.1666666), wk =   0.0005787
        k(  563) = (   0.1202813   0.5953620  -0.1250000), wk =   0.0005787
        k(  564) = (   0.0962250   0.5783517  -0.0833333), wk =   0.0005787
        k(  565) = (   0.0721688   0.5613414  -0.0416667), wk =   0.0005787
        k(  566) = (   0.0481125  -0.6293827   0.0000000), wk =   0.0002894
        k(  567) = (   0.0000000  -0.6634034   0.0833333), wk =   0.0005787
        k(  568) = (  -0.0240562  -0.6804138   0.1250000), wk =   0.0005787
        k(  569) = (  -0.0481125  -0.6974241   0.1666666), wk =   0.0005787
        k(  570) = (  -0.0721687  -0.7144344   0.2083333), wk =   0.0005787
        k(  571) = (  -0.0962250  -0.7314448   0.2499999), wk =   0.0005787
        k(  572) = (  -0.1202812  -0.7484551   0.2916666), wk =   0.0005787
        k(  573) = (  -0.1443375  -0.7654655   0.3333332), wk =   0.0005787
        k(  574) = (  -0.1683937  -0.7824758   0.3749999), wk =   0.0005787
        k(  575) = (  -0.1924500  -0.7994861   0.4166666), wk =   0.0005787
        k(  576) = (  -0.2165063  -0.8164965   0.4583332), wk =   0.0005787
        k(  577) = (   0.3367875  -0.4252587  -0.4999999), wk =   0.0005787
        k(  578) = (   0.3127313  -0.4422690  -0.4583332), wk =   0.0005787
        k(  579) = (   0.2886750  -0.4592794  -0.4166666), wk =   0.0005787
        k(  580) = (   0.2646188  -0.4762897  -0.3749999), wk =   0.0005787
        k(  581) = (   0.2405625  -0.4933000  -0.3333332), wk =   0.0005787
        k(  582) = (   0.2165063  -0.5103104  -0.2916666), wk =   0.0005787
        k(  583) = (   0.1924500  -0.5273207  -0.2499999), wk =   0.0005787
        k(  584) = (   0.1683938  -0.5443311  -0.2083333), wk =   0.0005787
        k(  585) = (   0.1443375  -0.5613414  -0.1666666), wk =   0.0005787
        k(  586) = (   0.1202813  -0.5783517  -0.1250000), wk =   0.0005787
        k(  587) = (   0.0962250  -0.5953621  -0.0833333), wk =   0.0005787
        k(  588) = (   0.0721688  -0.6123724  -0.0416667), wk =   0.0005787
        k(  589) = (   0.0481125  -0.5783517   0.0000000), wk =   0.0002894
        k(  590) = (   0.0000000  -0.6123724   0.0833333), wk =   0.0002894
        k(  591) = (  -0.0240562  -0.6293827   0.1250000), wk =   0.0005787
        k(  592) = (  -0.0481125  -0.6463931   0.1666666), wk =   0.0005787
        k(  593) = (  -0.0721687  -0.6634034   0.2083333), wk =   0.0005787
        k(  594) = (  -0.0962250  -0.6804137   0.2499999), wk =   0.0005787
        k(  595) = (  -0.1202812  -0.6974241   0.2916666), wk =   0.0005787
        k(  596) = (  -0.1443375  -0.7144344   0.3333332), wk =   0.0005787
        k(  597) = (  -0.1683937  -0.7314448   0.3749999), wk =   0.0005787
        k(  598) = (  -0.1924500  -0.7484551   0.4166666), wk =   0.0005787
        k(  599) = (  -0.2165063  -0.7654654   0.4583332), wk =   0.0005787
        k(  600) = (   0.3367875  -0.3742277  -0.4999999), wk =   0.0005787
        k(  601) = (   0.3127313  -0.3912380  -0.4583332), wk =   0.0005787
        k(  602) = (   0.2886750  -0.4082483  -0.4166666), wk =   0.0005787
        k(  603) = (   0.2646188  -0.4252587  -0.3749999), wk =   0.0005787
        k(  604) = (   0.2405625  -0.4422690  -0.3333332), wk =   0.0005787
        k(  605) = (   0.2165063  -0.4592793  -0.2916666), wk =   0.0005787
        k(  606) = (   0.1924500  -0.4762897  -0.2499999), wk =   0.0005787
        k(  607) = (   0.1683938  -0.4933000  -0.2083333), wk =   0.0005787
        k(  608) = (   0.1443375  -0.5103104  -0.1666666), wk =   0.0005787
        k(  609) = (   0.1202813  -0.5273207  -0.1250000), wk =   0.0005787
        k(  610) = (   0.0962250  -0.5443310  -0.0833333), wk =   0.0005787
        k(  611) = (   0.0721688  -0.5613414  -0.0416667), wk =   0.0005787
        k(  612) = (   0.0481125  -0.5273207   0.0000000), wk =   0.0002894
        k(  613) = (  -0.0240562  -0.5783517   0.1250000), wk =   0.0005787
        k(  614) = (  -0.0481125  -0.5953620   0.1666666), wk =   0.0005787
        k(  615) = (  -0.0721687  -0.6123724   0.2083333), wk =   0.0005787
        k(  616) = (  -0.0962250  -0.6293827   0.2499999), wk =   0.0005787
        k(  617) = (  -0.1202812  -0.6463931   0.2916666), wk =   0.0005787
        k(  618) = (  -0.1443375  -0.6634034   0.3333332), wk =   0.0005787
        k(  619) = (  -0.1683937  -0.6804137   0.3749999), wk =   0.0005787
        k(  620) = (  -0.1924500  -0.6974241   0.4166666), wk =   0.0005787
        k(  621) = (  -0.2165063  -0.7144344   0.4583332), wk =   0.0005787
        k(  622) = (   0.3367875  -0.3231966  -0.4999999), wk =   0.0005787
        k(  623) = (   0.3127313  -0.3402070  -0.4583332), wk =   0.0005787
        k(  624) = (   0.2886750  -0.3572173  -0.4166666), wk =   0.0005787
        k(  625) = (   0.2646188  -0.3742276  -0.3749999), wk =   0.0005787
        k(  626) = (   0.2405625  -0.3912380  -0.3333332), wk =   0.0005787
        k(  627) = (   0.2165063  -0.4082483  -0.2916666), wk =   0.0005787
        k(  628) = (   0.1924500  -0.4252586  -0.2499999), wk =   0.0005787
        k(  629) = (   0.1683938  -0.4422690  -0.2083333), wk =   0.0005787
        k(  630) = (   0.1443375  -0.4592793  -0.1666666), wk =   0.0005787
        k(  631) = (   0.1202813  -0.4762897  -0.1250000), wk =   0.0005787
        k(  632) = (   0.0962250  -0.4933000  -0.0833333), wk =   0.0005787
        k(  633) = (   0.0721688  -0.5103103  -0.0416667), wk =   0.0005787
        k(  634) = (   0.0481125  -0.4762896   0.0000000), wk =   0.0002894
        k(  635) = (  -0.0240562  -0.5273207   0.1250000), wk =   0.0005787
        k(  636) = (  -0.0481125  -0.5443310   0.1666666), wk =   0.0005787
        k(  637) = (  -0.0721687  -0.5613413   0.2083333), wk =   0.0005787
        k(  638) = (  -0.0962250  -0.5783517   0.2499999), wk =   0.0005787
        k(  639) = (  -0.1202812  -0.5953620   0.2916666), wk =   0.0005787
        k(  640) = (  -0.1443375  -0.6123724   0.3333332), wk =   0.0005787
        k(  641) = (  -0.1683937  -0.6293827   0.3749999), wk =   0.0005787
        k(  642) = (  -0.1924500  -0.6463930   0.4166666), wk =   0.0005787
        k(  643) = (  -0.2165063  -0.6634034   0.4583332), wk =   0.0005787
        k(  644) = (   0.3367875  -0.2721656  -0.4999999), wk =   0.0005787
        k(  645) = (   0.3127313  -0.2891759  -0.4583332), wk =   0.0005787
        k(  646) = (   0.2886750  -0.3061863  -0.4166666), wk =   0.0005787
        k(  647) = (   0.2646188  -0.3231966  -0.3749999), wk =   0.0005787
        k(  648) = (   0.2405625  -0.3402069  -0.3333332), wk =   0.0005787
        k(  649) = (   0.2165063  -0.3572173  -0.2916666), wk =   0.0005787
        k(  650) = (   0.1924500  -0.3742276  -0.2499999), wk =   0.0005787
        k(  651) = (   0.1683938  -0.3912380  -0.2083333), wk =   0.0005787
        k(  652) = (   0.1443375  -0.4082483  -0.1666666), wk =   0.0005787
        k(  653) = (   0.1202813  -0.4252586  -0.1250000), wk =   0.0005787
        k(  654) = (   0.0962250  -0.4422690  -0.0833333), wk =   0.0005787
        k(  655) = (   0.0721688  -0.4592793  -0.0416667), wk =   0.0005787
        k(  656) = (   0.0481125  -0.4252586   0.0000000), wk =   0.0002894
        k(  657) = (  -0.0240562  -0.4762896   0.1250000), wk =   0.0005787
        k(  658) = (  -0.0481125  -0.4933000   0.1666666), wk =   0.0005787
        k(  659) = (  -0.0721687  -0.5103103   0.2083333), wk =   0.0005787
        k(  660) = (  -0.0962250  -0.5273206   0.2499999), wk =   0.0005787
        k(  661) = (  -0.1202812  -0.5443310   0.2916666), wk =   0.0005787
        k(  662) = (  -0.1443375  -0.5613413   0.3333332), wk =   0.0005787
        k(  663) = (  -0.1683937  -0.5783517   0.3749999), wk =   0.0005787
        k(  664) = (  -0.1924500  -0.5953620   0.4166666), wk =   0.0005787
        k(  665) = (  -0.2165063  -0.6123723   0.4583332), wk =   0.0005787
        k(  666) = (   0.3367875  -0.2211346  -0.4999999), wk =   0.0005787
        k(  667) = (   0.3127313  -0.2381449  -0.4583332), wk =   0.0005787
        k(  668) = (   0.2886750  -0.2551552  -0.4166666), wk =   0.0005787
        k(  669) = (   0.2646188  -0.2721656  -0.3749999), wk =   0.0005787
        k(  670) = (   0.2405625  -0.2891759  -0.3333332), wk =   0.0005787
        k(  671) = (   0.2165063  -0.3061862  -0.2916666), wk =   0.0005787
        k(  672) = (   0.1924500  -0.3231966  -0.2499999), wk =   0.0005787
        k(  673) = (   0.1683938  -0.3402069  -0.2083333), wk =   0.0005787
        k(  674) = (   0.1443375  -0.3572173  -0.1666666), wk =   0.0005787
        k(  675) = (   0.1202813  -0.3742276  -0.1250000), wk =   0.0005787
        k(  676) = (   0.0962250  -0.3912379  -0.0833333), wk =   0.0005787
        k(  677) = (   0.0721688  -0.4082483  -0.0416667), wk =   0.0005787
        k(  678) = (   0.0481125  -0.3742276   0.0000000), wk =   0.0002894
        k(  679) = (  -0.0240562  -0.4252586   0.1250000), wk =   0.0005787
        k(  680) = (  -0.0481125  -0.4422689   0.1666666), wk =   0.0005787
        k(  681) = (  -0.0721687  -0.4592793   0.2083333), wk =   0.0005787
        k(  682) = (  -0.0962250  -0.4762896   0.2499999), wk =   0.0005787
        k(  683) = (  -0.1202812  -0.4932999   0.2916666), wk =   0.0005787
        k(  684) = (  -0.1443375  -0.5103103   0.3333332), wk =   0.0005787
        k(  685) = (  -0.1683937  -0.5273206   0.3749999), wk =   0.0005787
        k(  686) = (  -0.1924500  -0.5443310   0.4166666), wk =   0.0005787
        k(  687) = (  -0.2165063  -0.5613413   0.4583332), wk =   0.0005787
        k(  688) = (   0.3367875  -0.1701035  -0.4999999), wk =   0.0005787
        k(  689) = (   0.3127313  -0.1871139  -0.4583332), wk =   0.0005787
        k(  690) = (   0.2886750  -0.2041242  -0.4166666), wk =   0.0005787
        k(  691) = (   0.2646188  -0.2211345  -0.3749999), wk =   0.0005787
        k(  692) = (   0.2405625  -0.2381449  -0.3333332), wk =   0.0005787
        k(  693) = (   0.2165063  -0.2551552  -0.2916666), wk =   0.0005787
        k(  694) = (   0.1924500  -0.2721655  -0.2499999), wk =   0.0005787
        k(  695) = (   0.1683938  -0.2891759  -0.2083333), wk =   0.0005787
        k(  696) = (   0.1443375  -0.3061862  -0.1666666), wk =   0.0005787
        k(  697) = (   0.1202813  -0.3231966  -0.1250000), wk =   0.0005787
        k(  698) = (   0.0962250  -0.3402069  -0.0833333), wk =   0.0005787
        k(  699) = (   0.0721688  -0.3572172  -0.0416667), wk =   0.0005787
        k(  700) = (   0.0481125  -0.3231965   0.0000000), wk =   0.0002894
        k(  701) = (  -0.0240562  -0.3742276   0.1250000), wk =   0.0005787
        k(  702) = (  -0.0481125  -0.3912379   0.1666666), wk =   0.0005787
        k(  703) = (  -0.0721687  -0.4082482   0.2083333), wk =   0.0005787
        k(  704) = (  -0.0962250  -0.4252586   0.2499999), wk =   0.0005787
        k(  705) = (  -0.1202812  -0.4422689   0.2916666), wk =   0.0005787
        k(  706) = (  -0.1443375  -0.4592793   0.3333332), wk =   0.0005787
        k(  707) = (  -0.1683937  -0.4762896   0.3749999), wk =   0.0005787
        k(  708) = (  -0.1924500  -0.4932999   0.4166666), wk =   0.0005787
        k(  709) = (  -0.2165063  -0.5103103   0.4583332), wk =   0.0005787
        k(  710) = (   0.3367875  -0.1190725  -0.4999999), wk =   0.0005787
        k(  711) = (   0.3127313  -0.1360828  -0.4583332), wk =   0.0005787
        k(  712) = (   0.2886750  -0.1530932  -0.4166666), wk =   0.0005787
        k(  713) = (   0.2646188  -0.1701035  -0.3749999), wk =   0.0005787
        k(  714) = (   0.2405625  -0.1871138  -0.3333332), wk =   0.0005787
        k(  715) = (   0.2165063  -0.2041242  -0.2916666), wk =   0.0005787
        k(  716) = (   0.1924500  -0.2211345  -0.2499999), wk =   0.0005787
        k(  717) = (   0.1683938  -0.2381449  -0.2083333), wk =   0.0005787
        k(  718) = (   0.1443375  -0.2551552  -0.1666666), wk =   0.0005787
        k(  719) = (   0.1202813  -0.2721655  -0.1250000), wk =   0.0005787
        k(  720) = (   0.0962250  -0.2891759  -0.0833333), wk =   0.0005787
        k(  721) = (   0.0721688  -0.3061862  -0.0416667), wk =   0.0005787
        k(  722) = (   0.0481125  -0.2721655   0.0000000), wk =   0.0002894
        k(  723) = (  -0.0240562  -0.3231965   0.1250000), wk =   0.0005787
        k(  724) = (  -0.0481125  -0.3402069   0.1666666), wk =   0.0005787
        k(  725) = (  -0.0721687  -0.3572172   0.2083333), wk =   0.0005787
        k(  726) = (  -0.0962250  -0.3742275   0.2499999), wk =   0.0005787
        k(  727) = (  -0.1202812  -0.3912379   0.2916666), wk =   0.0005787
        k(  728) = (  -0.1443375  -0.4082482   0.3333332), wk =   0.0005787
        k(  729) = (  -0.1683937  -0.4252586   0.3749999), wk =   0.0005787
        k(  730) = (  -0.1924500  -0.4422689   0.4166666), wk =   0.0005787
        k(  731) = (  -0.2165063  -0.4592792   0.4583332), wk =   0.0005787
        k(  732) = (   0.3367875  -0.0680414  -0.4999999), wk =   0.0005787
        k(  733) = (   0.3127313  -0.0850518  -0.4583332), wk =   0.0005787
        k(  734) = (   0.2886750  -0.1020621  -0.4166666), wk =   0.0005787
        k(  735) = (   0.2646188  -0.1190725  -0.3749999), wk =   0.0005787
        k(  736) = (   0.2405625  -0.1360828  -0.3333332), wk =   0.0005787
        k(  737) = (   0.2165063  -0.1530931  -0.2916666), wk =   0.0005787
        k(  738) = (   0.1924500  -0.1701035  -0.2499999), wk =   0.0005787
        k(  739) = (   0.1683938  -0.1871138  -0.2083333), wk =   0.0005787
        k(  740) = (   0.1443375  -0.2041242  -0.1666666), wk =   0.0005787
        k(  741) = (   0.1202813  -0.2211345  -0.1250000), wk =   0.0005787
        k(  742) = (   0.0962250  -0.2381448  -0.0833333), wk =   0.0005787
        k(  743) = (   0.0721688  -0.2551552  -0.0416667), wk =   0.0005787
        k(  744) = (   0.0481125  -0.2211345   0.0000000), wk =   0.0002894
        k(  745) = (  -0.0240562  -0.2721655   0.1250000), wk =   0.0005787
        k(  746) = (  -0.0481125  -0.2891758   0.1666666), wk =   0.0005787
        k(  747) = (  -0.0721687  -0.3061862   0.2083333), wk =   0.0005787
        k(  748) = (  -0.0962250  -0.3231965   0.2499999), wk =   0.0005787
        k(  749) = (  -0.1202812  -0.3402068   0.2916666), wk =   0.0005787
        k(  750) = (  -0.1443375  -0.3572172   0.3333332), wk =   0.0005787
        k(  751) = (  -0.1683937  -0.3742275   0.3749999), wk =   0.0005787
        k(  752) = (  -0.1924500  -0.3912379   0.4166666), wk =   0.0005787
        k(  753) = (  -0.2165063  -0.4082482   0.4583332), wk =   0.0005787
        k(  754) = (   0.3367875  -0.0170104  -0.4999999), wk =   0.0005787
        k(  755) = (   0.3127313  -0.0340208  -0.4583332), wk =   0.0005787
        k(  756) = (   0.2886750  -0.0510311  -0.4166666), wk =   0.0005787
        k(  757) = (   0.2646188  -0.0680414  -0.3749999), wk =   0.0005787
        k(  758) = (   0.2405625  -0.0850518  -0.3333332), wk =   0.0005787
        k(  759) = (   0.2165063  -0.1020621  -0.2916666), wk =   0.0005787
        k(  760) = (   0.1924500  -0.1190724  -0.2499999), wk =   0.0005787
        k(  761) = (   0.1683938  -0.1360828  -0.2083333), wk =   0.0005787
        k(  762) = (   0.1443375  -0.1530931  -0.1666666), wk =   0.0005787
        k(  763) = (   0.1202813  -0.1701035  -0.1250000), wk =   0.0005787
        k(  764) = (   0.0962250  -0.1871138  -0.0833333), wk =   0.0005787
        k(  765) = (   0.0721688  -0.2041241  -0.0416667), wk =   0.0005787
        k(  766) = (   0.0481125  -0.1701034   0.0000000), wk =   0.0002894
        k(  767) = (  -0.0240562  -0.2211345   0.1250000), wk =   0.0005787
        k(  768) = (  -0.0481125  -0.2381448   0.1666666), wk =   0.0005787
        k(  769) = (  -0.0721687  -0.2551551   0.2083333), wk =   0.0005787
        k(  770) = (  -0.0962250  -0.2721655   0.2499999), wk =   0.0005787
        k(  771) = (  -0.1202812  -0.2891758   0.2916666), wk =   0.0005787
        k(  772) = (  -0.1443375  -0.3061862   0.3333332), wk =   0.0005787
        k(  773) = (  -0.1683937  -0.3231965   0.3749999), wk =   0.0005787
        k(  774) = (  -0.1924500  -0.3402068   0.4166666), wk =   0.0005787
        k(  775) = (  -0.2165063  -0.3572172   0.4583332), wk =   0.0005787
        k(  776) = (   0.3367875   0.0340206  -0.4999999), wk =   0.0005787
        k(  777) = (   0.3127313   0.0170103  -0.4583332), wk =   0.0005787
        k(  778) = (   0.2886750  -0.0000001  -0.4166666), wk =   0.0005787
        k(  779) = (   0.2646188  -0.0170104  -0.3749999), wk =   0.0005787
        k(  780) = (   0.2405625  -0.0340207  -0.3333332), wk =   0.0005787
        k(  781) = (   0.2165063  -0.0510311  -0.2916666), wk =   0.0005787
        k(  782) = (   0.1924500  -0.0680414  -0.2499999), wk =   0.0005787
        k(  783) = (   0.1683938  -0.0850518  -0.2083333), wk =   0.0005787
        k(  784) = (   0.1443375  -0.1020621  -0.1666666), wk =   0.0005787
        k(  785) = (   0.1202813  -0.1190724  -0.1250000), wk =   0.0005787
        k(  786) = (   0.0962250  -0.1360828  -0.0833333), wk =   0.0005787
        k(  787) = (   0.0721688  -0.1530931  -0.0416667), wk =   0.0005787
        k(  788) = (   0.0481125  -0.1190724   0.0000000), wk =   0.0002894
        k(  789) = (  -0.0240562  -0.1701034   0.1250000), wk =   0.0005787
        k(  790) = (  -0.0481125  -0.1871138   0.1666666), wk =   0.0005787
        k(  791) = (  -0.0721687  -0.2041241   0.2083333), wk =   0.0005787
        k(  792) = (  -0.0962250  -0.2211344   0.2499999), wk =   0.0005787
        k(  793) = (  -0.1202812  -0.2381448   0.2916666), wk =   0.0005787
        k(  794) = (  -0.1443375  -0.2551551   0.3333332), wk =   0.0005787
        k(  795) = (  -0.1683937  -0.2721655   0.3749999), wk =   0.0005787
        k(  796) = (  -0.1924500  -0.2891758   0.4166666), wk =   0.0005787
        k(  797) = (  -0.2165063  -0.3061861   0.4583332), wk =   0.0005787
        k(  798) = (   0.3367875   0.0850517  -0.4999999), wk =   0.0005787
        k(  799) = (   0.3127313   0.0680413  -0.4583332), wk =   0.0005787
        k(  800) = (   0.2886750   0.0510310  -0.4166666), wk =   0.0005787
        k(  801) = (   0.2646188   0.0340206  -0.3749999), wk =   0.0005787
        k(  802) = (   0.2405625   0.0170103  -0.3333332), wk =   0.0005787
        k(  803) = (   0.2165063  -0.0000000  -0.2916666), wk =   0.0005787
        k(  804) = (   0.1924500  -0.0170104  -0.2499999), wk =   0.0005787
        k(  805) = (   0.1683938  -0.0340207  -0.2083333), wk =   0.0005787
        k(  806) = (   0.1443375  -0.0510311  -0.1666666), wk =   0.0005787
        k(  807) = (   0.1202813  -0.0680414  -0.1250000), wk =   0.0005787
        k(  808) = (   0.0962250  -0.0850517  -0.0833333), wk =   0.0005787
        k(  809) = (   0.0721688  -0.1020621  -0.0416667), wk =   0.0005787
        k(  810) = (   0.0481125  -0.0680414   0.0000000), wk =   0.0002894
        k(  811) = (  -0.0240562  -0.1190724   0.1250000), wk =   0.0005787
        k(  812) = (  -0.0481125  -0.1360827   0.1666666), wk =   0.0005787
        k(  813) = (  -0.0721687  -0.1530931   0.2083333), wk =   0.0005787
        k(  814) = (  -0.0962250  -0.1701034   0.2499999), wk =   0.0005787
        k(  815) = (  -0.1202812  -0.1871137   0.2916666), wk =   0.0005787
        k(  816) = (  -0.1443375  -0.2041241   0.3333332), wk =   0.0005787
        k(  817) = (  -0.1683937  -0.2211344   0.3749999), wk =   0.0005787
        k(  818) = (  -0.1924500  -0.2381448   0.4166666), wk =   0.0005787
        k(  819) = (  -0.2165063  -0.2551551   0.4583332), wk =   0.0005787
        k(  820) = (   0.3367875   0.1360827  -0.4999999), wk =   0.0005787
        k(  821) = (   0.3127313   0.1190723  -0.4583332), wk =   0.0005787
        k(  822) = (   0.2886750   0.1020620  -0.4166666), wk =   0.0005787
        k(  823) = (   0.2646188   0.0850517  -0.3749999), wk =   0.0005787
        k(  824) = (   0.2405625   0.0680413  -0.3333332), wk =   0.0005787
        k(  825) = (   0.2165063   0.0510310  -0.2916666), wk =   0.0005787
        k(  826) = (   0.1924500   0.0340207  -0.2499999), wk =   0.0005787
        k(  827) = (   0.1683938   0.0170103  -0.2083333), wk =   0.0005787
        k(  828) = (   0.1443375  -0.0000000  -0.1666666), wk =   0.0005787
        k(  829) = (   0.1202813  -0.0170104  -0.1250000), wk =   0.0005787
        k(  830) = (   0.0962250  -0.0340207  -0.0833333), wk =   0.0005787
        k(  831) = (   0.0721688  -0.0510310  -0.0416667), wk =   0.0005787
        k(  832) = (   0.0962250  -0.0340207   0.0000000), wk =   0.0002894
        k(  833) = (   0.0000000  -0.1020620   0.1666666), wk =   0.0005787
        k(  834) = (  -0.0240562  -0.1190724   0.2083333), wk =   0.0005787
        k(  835) = (  -0.0481125  -0.1360827   0.2499999), wk =   0.0005787
        k(  836) = (  -0.0721687  -0.1530931   0.2916666), wk =   0.0005787
        k(  837) = (  -0.0962250  -0.1701034   0.3333332), wk =   0.0005787
        k(  838) = (  -0.1202812  -0.1871137   0.3749999), wk =   0.0005787
        k(  839) = (  -0.1443375  -0.2041241   0.4166666), wk =   0.0005787
        k(  840) = (  -0.1683937  -0.2211344   0.4583332), wk =   0.0005787
        k(  841) = (   0.3849001   0.1701034  -0.4999999), wk =   0.0005787
        k(  842) = (   0.3608438   0.1530930  -0.4583332), wk =   0.0005787
        k(  843) = (   0.3367876   0.1360827  -0.4166666), wk =   0.0005787
        k(  844) = (   0.3127313   0.1190724  -0.3749999), wk =   0.0005787
        k(  845) = (   0.2886751   0.1020620  -0.3333332), wk =   0.0005787
        k(  846) = (   0.2646188   0.0850517  -0.2916666), wk =   0.0005787
        k(  847) = (   0.2405626   0.0680413  -0.2499999), wk =   0.0005787
        k(  848) = (   0.2165063   0.0510310  -0.2083333), wk =   0.0005787
        k(  849) = (   0.1924501   0.0340207  -0.1666666), wk =   0.0005787
        k(  850) = (   0.1683938   0.0170103  -0.1250000), wk =   0.0005787
        k(  851) = (   0.1443375  -0.0000000  -0.0833333), wk =   0.0005787
        k(  852) = (   0.1202813  -0.0170104  -0.0416667), wk =   0.0005787
        k(  853) = (   0.0962250   0.0170103   0.0000000), wk =   0.0002894
        k(  854) = (   0.0000000  -0.0510310   0.1666666), wk =   0.0005787
        k(  855) = (  -0.0240562  -0.0680413   0.2083333), wk =   0.0005787
        k(  856) = (  -0.0481125  -0.0850517   0.2499999), wk =   0.0005787
        k(  857) = (  -0.0721687  -0.1020620   0.2916666), wk =   0.0005787
        k(  858) = (  -0.0962250  -0.1190724   0.3333332), wk =   0.0005787
        k(  859) = (  -0.1202812  -0.1360827   0.3749999), wk =   0.0005787
        k(  860) = (  -0.1443375  -0.1530930   0.4166666), wk =   0.0005787
        k(  861) = (  -0.1683937  -0.1701034   0.4583332), wk =   0.0005787
        k(  862) = (   0.3849001   0.2211344  -0.4999999), wk =   0.0005787
        k(  863) = (   0.3608438   0.2041241  -0.4583332), wk =   0.0005787
        k(  864) = (   0.3367876   0.1871137  -0.4166666), wk =   0.0005787
        k(  865) = (   0.3127313   0.1701034  -0.3749999), wk =   0.0005787
        k(  866) = (   0.2886751   0.1530931  -0.3333332), wk =   0.0005787
        k(  867) = (   0.2646188   0.1360827  -0.2916666), wk =   0.0005787
        k(  868) = (   0.2405626   0.1190724  -0.2499999), wk =   0.0005787
        k(  869) = (   0.2165063   0.1020620  -0.2083333), wk =   0.0005787
        k(  870) = (   0.1924501   0.0850517  -0.1666666), wk =   0.0005787
        k(  871) = (   0.1683938   0.0680414  -0.1250000), wk =   0.0005787
        k(  872) = (   0.1443375   0.0510310  -0.0833333), wk =   0.0005787
        k(  873) = (   0.1202813   0.0340207  -0.0416667), wk =   0.0005787
        k(  874) = (   0.0962250   0.0680414   0.0000000), wk =   0.0002894
        k(  875) = (   0.0000000   0.0000000   0.1666666), wk =   0.0002894
        k(  876) = (  -0.0240562  -0.0170103   0.2083333), wk =   0.0005787
        k(  877) = (  -0.0481125  -0.0340207   0.2499999), wk =   0.0005787
        k(  878) = (  -0.0721687  -0.0510310   0.2916666), wk =   0.0005787
        k(  879) = (  -0.0962250  -0.0680413   0.3333332), wk =   0.0005787
        k(  880) = (  -0.1202812  -0.0850517   0.3749999), wk =   0.0005787
        k(  881) = (  -0.1443375  -0.1020620   0.4166666), wk =   0.0005787
        k(  882) = (  -0.1683937  -0.1190723   0.4583332), wk =   0.0005787
        k(  883) = (   0.3849001   0.2721654  -0.4999999), wk =   0.0005787
        k(  884) = (   0.3608438   0.2551551  -0.4583332), wk =   0.0005787
        k(  885) = (   0.3367876   0.2381448  -0.4166666), wk =   0.0005787
        k(  886) = (   0.3127313   0.2211344  -0.3749999), wk =   0.0005787
        k(  887) = (   0.2886751   0.2041241  -0.3333332), wk =   0.0005787
        k(  888) = (   0.2646188   0.1871137  -0.2916666), wk =   0.0005787
        k(  889) = (   0.2405626   0.1701034  -0.2499999), wk =   0.0005787
        k(  890) = (   0.2165063   0.1530931  -0.2083333), wk =   0.0005787
        k(  891) = (   0.1924501   0.1360827  -0.1666666), wk =   0.0005787
        k(  892) = (   0.1683938   0.1190724  -0.1250000), wk =   0.0005787
        k(  893) = (   0.1443375   0.1020621  -0.0833333), wk =   0.0005787
        k(  894) = (   0.1202813   0.0850517  -0.0416667), wk =   0.0005787
        k(  895) = (   0.0962250   0.1190724   0.0000000), wk =   0.0002894
        k(  896) = (  -0.0240562   0.0340207   0.2083333), wk =   0.0005787
        k(  897) = (  -0.0481125   0.0170104   0.2499999), wk =   0.0005787
        k(  898) = (  -0.0721687   0.0000000   0.2916666), wk =   0.0005787
        k(  899) = (  -0.0962250  -0.0170103   0.3333332), wk =   0.0005787
        k(  900) = (  -0.1202812  -0.0340206   0.3749999), wk =   0.0005787
        k(  901) = (  -0.1443375  -0.0510310   0.4166666), wk =   0.0005787
        k(  902) = (  -0.1683937  -0.0680413   0.4583332), wk =   0.0005787
        k(  903) = (   0.3849001   0.3231965  -0.4999999), wk =   0.0005787
        k(  904) = (   0.3608438   0.3061861  -0.4583332), wk =   0.0005787
        k(  905) = (   0.3367876   0.2891758  -0.4166666), wk =   0.0005787
        k(  906) = (   0.3127313   0.2721655  -0.3749999), wk =   0.0005787
        k(  907) = (   0.2886751   0.2551551  -0.3333332), wk =   0.0005787
        k(  908) = (   0.2646188   0.2381448  -0.2916666), wk =   0.0005787
        k(  909) = (   0.2405626   0.2211344  -0.2499999), wk =   0.0005787
        k(  910) = (   0.2165063   0.2041241  -0.2083333), wk =   0.0005787
        k(  911) = (   0.1924501   0.1871138  -0.1666666), wk =   0.0005787
        k(  912) = (   0.1683938   0.1701034  -0.1250000), wk =   0.0005787
        k(  913) = (   0.1443375   0.1530931  -0.0833333), wk =   0.0005787
        k(  914) = (   0.1202813   0.1360828  -0.0416667), wk =   0.0005787
        k(  915) = (   0.0962250   0.1701034   0.0000000), wk =   0.0002894
        k(  916) = (  -0.0240562   0.0850518   0.2083333), wk =   0.0005787
        k(  917) = (  -0.0481125   0.0680414   0.2499999), wk =   0.0005787
        k(  918) = (  -0.0721687   0.0510311   0.2916666), wk =   0.0005787
        k(  919) = (  -0.0962250   0.0340207   0.3333332), wk =   0.0005787
        k(  920) = (  -0.1202812   0.0170104   0.3749999), wk =   0.0005787
        k(  921) = (  -0.1443375   0.0000001   0.4166666), wk =   0.0005787
        k(  922) = (  -0.1683937  -0.0170103   0.4583332), wk =   0.0005787
        k(  923) = (   0.3849001   0.3742275  -0.4999999), wk =   0.0005787
        k(  924) = (   0.3608438   0.3572172  -0.4583332), wk =   0.0005787
        k(  925) = (   0.3367876   0.3402068  -0.4166666), wk =   0.0005787
        k(  926) = (   0.3127313   0.3231965  -0.3749999), wk =   0.0005787
        k(  927) = (   0.2886751   0.3061862  -0.3333332), wk =   0.0005787
        k(  928) = (   0.2646188   0.2891758  -0.2916666), wk =   0.0005787
        k(  929) = (   0.2405626   0.2721655  -0.2499999), wk =   0.0005787
        k(  930) = (   0.2165063   0.2551551  -0.2083333), wk =   0.0005787
        k(  931) = (   0.1924501   0.2381448  -0.1666666), wk =   0.0005787
        k(  932) = (   0.1683938   0.2211345  -0.1250000), wk =   0.0005787
        k(  933) = (   0.1443375   0.2041241  -0.0833333), wk =   0.0005787
        k(  934) = (   0.1202813   0.1871138  -0.0416667), wk =   0.0005787
        k(  935) = (   0.0962250   0.2211345   0.0000000), wk =   0.0002894
        k(  936) = (   0.0000000   0.1530931   0.1666666), wk =   0.0005787
        k(  937) = (  -0.0240562   0.1360828   0.2083333), wk =   0.0005787
        k(  938) = (  -0.0481125   0.1190724   0.2499999), wk =   0.0005787
        k(  939) = (  -0.0721687   0.1020621   0.2916666), wk =   0.0005787
        k(  940) = (  -0.0962250   0.0850518   0.3333332), wk =   0.0005787
        k(  941) = (  -0.1202812   0.0680414   0.3749999), wk =   0.0005787
        k(  942) = (  -0.1443375   0.0510311   0.4166666), wk =   0.0005787
        k(  943) = (  -0.1683937   0.0340208   0.4583332), wk =   0.0005787
        k(  944) = (   0.3849001   0.4252585  -0.4999999), wk =   0.0005787
        k(  945) = (   0.3608438   0.4082482  -0.4583332), wk =   0.0005787
        k(  946) = (   0.3367876   0.3912379  -0.4166666), wk =   0.0005787
        k(  947) = (   0.3127313   0.3742275  -0.3749999), wk =   0.0005787
        k(  948) = (   0.2886751   0.3572172  -0.3333332), wk =   0.0005787
        k(  949) = (   0.2646188   0.3402068  -0.2916666), wk =   0.0005787
        k(  950) = (   0.2405626   0.3231965  -0.2499999), wk =   0.0005787
        k(  951) = (   0.2165063   0.3061862  -0.2083333), wk =   0.0005787
        k(  952) = (   0.1924501   0.2891758  -0.1666666), wk =   0.0005787
        k(  953) = (   0.1683938   0.2721655  -0.1250000), wk =   0.0005787
        k(  954) = (   0.1443375   0.2551552  -0.0833333), wk =   0.0005787
        k(  955) = (   0.1202813   0.2381448  -0.0416667), wk =   0.0005787
        k(  956) = (   0.0962250   0.2721655   0.0000000), wk =   0.0002894
        k(  957) = (   0.0000000   0.2041242   0.1666666), wk =   0.0005787
        k(  958) = (  -0.0240562   0.1871138   0.2083333), wk =   0.0005787
        k(  959) = (  -0.0481125   0.1701035   0.2499999), wk =   0.0005787
        k(  960) = (  -0.0721687   0.1530931   0.2916666), wk =   0.0005787
        k(  961) = (  -0.0962250   0.1360828   0.3333332), wk =   0.0005787
        k(  962) = (  -0.1202812   0.1190725   0.3749999), wk =   0.0005787
        k(  963) = (  -0.1443375   0.1020621   0.4166666), wk =   0.0005787
        k(  964) = (  -0.1683937   0.0850518   0.4583332), wk =   0.0005787
        k(  965) = (   0.3849001   0.4762896  -0.4999999), wk =   0.0005787
        k(  966) = (   0.3608438   0.4592792  -0.4583332), wk =   0.0005787
        k(  967) = (   0.3367876   0.4422689  -0.4166666), wk =   0.0005787
        k(  968) = (   0.3127313   0.4252586  -0.3749999), wk =   0.0005787
        k(  969) = (   0.2886751   0.4082482  -0.3333332), wk =   0.0005787
        k(  970) = (   0.2646188   0.3912379  -0.2916666), wk =   0.0005787
        k(  971) = (   0.2405626   0.3742275  -0.2499999), wk =   0.0005787
        k(  972) = (   0.2165063   0.3572172  -0.2083333), wk =   0.0005787
        k(  973) = (   0.1924501   0.3402069  -0.1666666), wk =   0.0005787
        k(  974) = (   0.1683938   0.3231965  -0.1250000), wk =   0.0005787
        k(  975) = (   0.1443375   0.3061862  -0.0833333), wk =   0.0005787
        k(  976) = (   0.1202813   0.2891759  -0.0416667), wk =   0.0005787
        k(  977) = (   0.0962250   0.3231965   0.0000000), wk =   0.0002894
        k(  978) = (   0.0000000   0.2551552   0.1666666), wk =   0.0005787
        k(  979) = (  -0.0240562   0.2381449   0.2083333), wk =   0.0005787
        k(  980) = (  -0.0481125   0.2211345   0.2499999), wk =   0.0005787
[...]

     occupation numbers 
     1.0000   1.0000   0.0000   0.0000   0.0000   0.0000

          k = 0.5774-0.2041-0.1667 (   390 PWs)   bands (ev):

     3.5919   3.7930  14.8466  15.0527  20.2685  20.6745

     occupation numbers 
     1.0000   1.0000   0.0000   0.0000   0.0000   0.0000

          k = 0.5533-0.2211-0.1250 (   388 PWs)   bands (ev):

     3.1237   3.8723  15.7466  16.3069  19.4039  21.0281

     occupation numbers 
     1.0000   1.0000   0.0000   0.0000   0.0000   0.0000

          k = 0.5292-0.2381-0.0833 (   389 PWs)   bands (ev):

     2.6625   4.1217  16.6138  17.2255  18.8788  21.0829

     occupation numbers 
     1.0000   1.0000   0.0000   0.0000   0.0000   0.0000

          k = 0.5052-0.2552-0.0417 (   389 PWs)   bands (ev):

     2.2859   4.4641  16.8215  17.4740  19.6499  20.3464

     occupation numbers 
     1.0000   1.0000   0.0000   0.0000   0.0000   0.0000

          k = 0.4811-0.2211 0.0000 (   390 PWs)   bands (ev):

     1.5575   5.1795  17.3990  18.7709  19.5145  20.0488

     occupation numbers 
     1.0000   1.0000   0.0000   0.0000   0.0000   0.0000

          k = 0.5533-0.1701-0.1250 (   389 PWs)   bands (ev):

     2.7830   4.2402  15.4309  16.6447  19.7431  20.7297

     occupation numbers 
     1.0000   1.0000   0.0000   0.0000   0.0000   0.0000

          k = 0.5292-0.1871-0.0833 (   389 PWs)   bands (ev):

     2.2859   4.4641  16.8214  17.4740  19.6500  20.3467

     occupation numbers 
     1.0000   1.0000   0.0000   0.0000   0.0000   0.0000

          k = 0.5052-0.2041-0.0417 (   393 PWs)   bands (ev):

     1.8768   4.7776  17.8102  18.3177  19.0455  20.3892

     occupation numbers 
     1.0000   1.0000   0.0000   0.0000   0.0000   0.0000

          k = 0.5292-0.1871 0.0000 (   392 PWs)   bands (ev):

     2.1650   4.3453  18.6758  18.6759  19.3957  19.3957

     occupation numbers 
     1.0000   1.0000   0.0000   0.0000   0.0000   0.0000

          k = 0.5774-0.1531-0.0833 (   389 PWs)   bands (ev):

     3.0045   3.7520  16.2698  17.5307  19.2056  20.7569

     occupation numbers 
     1.0000   1.0000   0.0000   0.0000   0.0000   0.0000

          k = 0.5533-0.1701-0.0417 (   388 PWs)   bands (ev):

     2.5423   4.0021  17.6293  18.3856  19.6327  19.7153

     occupation numbers 
     1.0000   1.0000   0.0000   0.0000   0.0000   0.0000

          k = 0.5292-0.1361 0.0000 (   393 PWs)   bands (ev):

     1.8768   4.7776  17.8102  18.3177  19.0455  20.3892

     occupation numbers 
     1.0000   1.0000   0.0000   0.0000   0.0000   0.0000

          k = 0.5774-0.1021-0.0833 (   389 PWs)   bands (ev):

     2.7830   4.2402  15.4309  16.6447  19.7431  20.7297

     occupation numbers 
     1.0000   1.0000   0.0000   0.0000   0.0000   0.0000

          k = 0.5533-0.1191-0.0417 (   389 PWs)   bands (ev):

     2.2859   4.4641  16.8214  17.4740  19.6499  20.3465

     occupation numbers 
     1.0000   1.0000   0.0000   0.0000   0.0000   0.0000

          k = 0.5292-0.0851 0.0000 (   389 PWs)   bands (ev):

     1.6789   5.2975  16.9983  17.0385  18.6328  21.4850

     occupation numbers 
     1.0000   1.0000   0.0000   0.0000   0.0000   0.0000

          k = 0.5774-0.0510-0.0833 (   389 PWs)   bands (ev):

     2.6476   4.8189  14.6421  15.3403  20.1200  20.8997

     occupation numbers 
     1.0000   1.0000   0.0000   0.0000   0.0000   0.0000

          k = 0.5533-0.0680-0.0417 (   389 PWs)   bands (ev):

     2.1190   5.0141  16.0173  16.1765  19.1375  21.4095

     occupation numbers 
     1.0000   1.0000   0.0000   0.0000   0.0000   0.0000

          k = 0.5292-0.0340 0.0000 (   385 PWs)   bands (ev):

     1.5717   5.9032  15.6910  16.2637  18.0128  22.6577

     occupation numbers 
     1.0000   1.0000   0.0000   0.0000   0.0000   0.0000

          k = 0.5774-0.0000-0.0833 (   388 PWs)   bands (ev):

     2.6013   5.4834  13.8340  14.1055  19.5411  22.0673

     occupation numbers 
     1.0000   1.0000   0.0000   0.0000   0.0000   0.0000

          k = 0.5533-0.0170-0.0417 (   386 PWs)   bands (ev):

     2.0423   5.6499  14.7893  15.3382  18.5038  22.5893

     occupation numbers 
     1.0000   1.0000   0.0000   0.0000   0.0000   0.0000

          k = 0.5292 0.0170 0.0000 (   385 PWs)   bands (ev):

     1.5556   6.5928  14.3659  15.6086  17.3683  23.9024

     occupation numbers 
     1.0000   1.0000   0.0000   0.0000   0.0000   0.0000

          k = 0.5774 0.0510-0.0833 (   389 PWs)   bands (ev):

     2.6447   6.2303  12.6506  13.3690  18.9481  23.3121

     occupation numbers 
     1.0000   1.0000   0.0000   0.0000   0.0000   0.0000

          k = 0.5533 0.0340-0.0417 (   388 PWs)   bands (ev):

     2.0561   6.3692  13.4791  14.6943  17.8774  23.8199

     occupation numbers 
     1.0000   1.0000   0.0000   0.0000   0.0000   0.0000

          k = 0.5292 0.0680 0.0000 (   393 PWs)   bands (ev):

     1.6303   7.3634  13.0937  15.0334  16.7575  23.8188

     occupation numbers 
     1.0000   1.0075   0.0000   0.0000   0.0000   0.0000

          k = 0.5774 0.1021-0.0833 (   392 PWs)   bands (ev):

     2.7772   7.0550  11.4318  12.8163  18.3967  23.5419

     occupation numbers 
     1.0000   1.0000   0.0000   0.0000   0.0000   0.0000

          k = 0.5533 0.0851-0.0417 (   390 PWs)   bands (ev):

     2.1602   7.1687  12.2262  14.1321  17.2967  23.6642

     occupation numbers 
     1.0000   1.0000   0.0000   0.0000   0.0000   0.0000

          k = 0.5292 0.1191 0.0000 (   391 PWs)   bands (ev):

     1.7955   8.2107  11.8891  14.5385  16.1997  22.2342

     occupation numbers 
     1.0000   0.0000   0.0000   0.0000   0.0000   0.0000

          k = 0.5774 0.1531-0.0833 (   393 PWs)   bands (ev):

     2.9978   7.9483  10.2804  12.3623  17.8927  22.0632

     occupation numbers 
     1.0000   0.0015   0.0000   0.0000   0.0000   0.0000

          k = 0.5533 0.1361-0.0417 (   391 PWs)   bands (ev):

     2.3538   8.0428  11.0448  13.6523  16.7720  22.1071

     occupation numbers 
     1.0000   0.0000   0.0000   0.0000   0.0000   0.0000

          k = 0.5292 0.1701 0.0000 (   390 PWs)   bands (ev):

     2.0505   9.1252  10.7639  14.1239  15.6962  20.6629

     occupation numbers 
     1.0000   0.0000   0.0000   0.0000   0.0000   0.0000

          k = 0.5774 0.2041-0.0833 (   392 PWs)   bands (ev):

     3.3042   8.8517   9.2531  12.0128  17.4172  20.5789

     occupation numbers 
     1.0000   0.0000   0.0000   0.0000   0.0000   0.0000

          k = 0.5533 0.1871-0.0417 (   391 PWs)   bands (ev):

     2.6356   8.9733   9.9531  13.2575  16.2982  20.5640

     occupation numbers 
     1.0000   0.0000   0.0000   0.0000   0.0000   0.0000

          k = 0.5292 0.2211 0.0000 (   392 PWs)   bands (ev):

     2.3937   9.6523  10.1690  13.7895  15.2286  19.1876

     occupation numbers 
     1.0000   0.0000   0.0000   0.0000   0.0000   0.0000

          k = 0.5774 0.2552-0.0833 (   394 PWs)   bands (ev):

     3.6914   8.1932   9.8831  11.8075  16.9015  19.2631

     occupation numbers 
     1.0000   0.0000   0.0000   0.0000   0.0000   0.0000

          k = 0.5533 0.2381-0.0417 (   393 PWs)   bands (ev):

     3.0034   8.8852  10.0176  12.9539  15.8465  19.1328

     occupation numbers 
     1.0000   0.0000   0.0000   0.0000   0.0000   0.0000

          k = 0.5292 0.2722 0.0000 (   390 PWs)   bands (ev):

     2.8225   8.7203  11.1649  13.5355  14.7392  17.9026

     occupation numbers 
     1.0000   0.0000   0.0000   0.0000   0.0000   0.0000

          k = 0.5774 0.3062-0.0833 (   389 PWs)   bands (ev):

     4.1464   7.3128  10.6459  11.9315  16.1895  18.3065

     occupation numbers 
     1.0000   1.0017   0.0000   0.0000   0.0000   0.0000

          k = 0.5533 0.2892-0.0417 (   390 PWs)   bands (ev):

     3.4518   7.9634  11.0203  12.7647  15.3366  17.9297

     occupation numbers 
     1.0000   0.0009   0.0000   0.0000   0.0000   0.0000

          k = 0.5292 0.3232 0.0000 (   390 PWs)   bands (ev):

     3.3319   7.8471  12.2061  13.3618  14.1003  16.9799

     occupation numbers 
     1.0000   0.0341   0.0000   0.0000   0.0000   0.0000

          k = 0.5774 0.3572-0.0833 (   388 PWs)   bands (ev):

     4.6224   6.5789  10.9044  12.6542  15.2224  17.8227

     occupation numbers 
     1.0000   1.0000   0.0000   0.0000   0.0000   0.0000

          k = 0.5533 0.3402-0.0417 (   389 PWs)   bands (ev):

     3.9679   7.1360  11.8608  12.8294  14.6370  17.1421

     occupation numbers 
     1.0000   1.0000   0.0000   0.0000   0.0000   0.0000

          k = 0.5292 0.3742 0.0000 (   388 PWs)   bands (ev):

     3.9084   7.0769  13.1167  13.2683  13.2683  16.6138

     occupation numbers 
     1.0000   1.0000   0.0000   0.0000   0.0000   0.0000

          k = 0.5774 0.4082-0.0833 (   391 PWs)   bands (ev):

     4.8952   6.2199  10.9327  13.3223  14.5042  17.6878

     occupation numbers 
     1.0000   1.0000   0.0000   0.0000   0.0000   0.0000

          k = 0.5533 0.3912-0.0417 (   388 PWs)   bands (ev):

     4.5047   6.4593  12.0908  13.2552  13.9847  16.8695

     occupation numbers 
     1.0000   1.0000   0.0000   0.0000   0.0000   0.0000

          k = 0.5292-0.7995 0.0000 (   388 PWs)   bands (ev):

     4.5047   6.4593  12.0908  13.2552  13.9847  16.8695

     occupation numbers 
     1.0000   1.0000   0.0000   0.0000   0.0000   0.0000

          k = 0.5533-0.7825-0.0417 (   388 PWs)   bands (ev):

     4.8370   6.1595  11.8030  12.7749  14.5801  17.0873

     occupation numbers 
     1.0000   1.0000   0.0000   0.0000   0.0000   0.0000

          k = 0.5292-0.7485 0.0000 (   391 PWs)   bands (ev):

     4.8952   6.2199  10.9327  13.3223  14.5042  17.6878

     occupation numbers 
     1.0000   1.0000   0.0000   0.0000   0.0000   0.0000

          k = 0.5533-0.7314-0.0417 (   388 PWs)   bands (ev):

     4.6224   6.5789  10.9044  12.6542  15.2224  17.8227

     occupation numbers 
     1.0000   1.0000   0.0000   0.0000   0.0000   0.0000

          k = 0.5292-0.6974 0.0000 (   386 PWs)   bands (ev):

     4.7401   6.6971   9.7877  13.4697  14.8750  18.8741

     occupation numbers 
     1.0000   1.0000   0.0000   0.0000   0.0000   0.0000

          k = 0.5533-0.6804-0.0417 (   392 PWs)   bands (ev):

     4.2058   7.3700   9.8357  12.7877  15.6751  18.9765

     occupation numbers 
     1.0000   1.0089   0.0000   0.0000   0.0000   0.0000

          k = 0.5292-0.6464 0.0000 (   388 PWs)   bands (ev):

     4.3839   7.5346   8.7012  13.6973  15.2278  20.2580

     occupation numbers 
     1.0000   1.0818   0.0000   0.0000   0.0000   0.0000

          k = 0.5533-0.6294-0.0417 (   391 PWs)   bands (ev):

     3.8110   8.2721   8.8197  13.0359  16.0711  20.3620

     occupation numbers 
     1.0000   0.0000   0.0000   0.0000   0.0000   0.0000

          k = 0.5292-0.5954 0.0000 (   388 PWs)   bands (ev):

     4.0496   7.6016   8.5964  14.0052  15.6227  21.7522

     occupation numbers 
     1.0000   0.9686   0.0000   0.0000   0.0000   0.0000

          k = 0.5533-0.5784-0.0417 (   392 PWs)   bands (ev):

     3.4843   7.7419   9.3924  13.3758  16.4917  21.8674

     occupation numbers 
     1.0000   0.2827   0.0000   0.0000   0.0000   0.0000

          k = 0.5292-0.5443 0.0000 (   387 PWs)   bands (ev):

     3.7835   6.6531   9.6797  14.3933  16.0815  23.3031

     occupation numbers 
     1.0000   1.0000   0.0000   0.0000   0.0000   0.0000

          k = 0.5533-0.5273-0.0417 (   392 PWs)   bands (ev):

     3.2385   6.8137  10.5190  13.8012  16.9673  23.4209

     occupation numbers 
     1.0000   1.0000   0.0000   0.0000   0.0000   0.0000

          k = 0.5292-0.4933 0.0000 (   392 PWs)   bands (ev):

     3.5980   5.7643  10.8663  14.8616  16.6101  24.8322

     occupation numbers 
     1.0000   1.0000   0.0000   0.0000   0.0000   0.0000

          k = 0.5533-0.4763-0.0417 (   390 PWs)   bands (ev):

     3.0785   5.9548  11.7314  14.3093  17.5064  24.5660

     occupation numbers 
     1.0000   1.0000   0.0000   0.0000   0.0000   0.0000

          k = 0.5292-0.4423 0.0000 (   393 PWs)   bands (ev):

     3.4971   4.9548  12.1323  15.4099  17.2065  24.3680

     occupation numbers 
     1.0000   1.0000   0.0000   0.0000   0.0000   0.0000

          k = 0.5533-0.4253-0.0417 (   389 PWs)   bands (ev):

     3.0061   5.1751  13.0167  14.8981  18.1066  23.4245

     occupation numbers 
     1.0000   1.0000   0.0000   0.0000   0.0000   0.0000

          k = 0.5292-0.3912 0.0000 (   393 PWs)   bands (ev):

     3.4800   4.2321  13.4670  16.0380  17.8607  23.0905

     occupation numbers 
     1.0000   1.0000   0.0000   0.0000   0.0000   0.0000

          k = 0.5533-0.3742-0.0417 (   388 PWs)   bands (ev):

     3.0220   4.4792  14.3627  15.5652  18.7533  22.1876

     occupation numbers 
     1.0000   1.0000   0.0000   0.0000   0.0000   0.0000

          k = 0.5292-0.3402 0.0000 (   391 PWs)   bands (ev):

     3.4744   3.6717  14.8561  16.7454  18.5485  21.8852

     occupation numbers 
     1.0000   1.0000   0.0000   0.0000   0.0000   0.0000

          k = 0.5533-0.3232-0.0417 (   388 PWs)   bands (ev):

     3.1237   3.8723  15.7466  16.3069  19.4039  21.0283

     occupation numbers 
     1.0000   1.0000   0.0000   0.0000   0.0000   0.0000

          k = 0.5292-0.2892 0.0000 (   389 PWs)   bands (ev):

     3.0045   3.7520  16.2698  17.5307  19.2055  20.7569

     occupation numbers 
     1.0000   1.0000   0.0000   0.0000   0.0000   0.0000

          k = 0.5533-0.2722-0.0417 (   390 PWs)   bands (ev):

     3.2394   3.4281  17.0872  17.1290  19.8341  20.0834

     occupation numbers 
     1.0000   1.0000   0.0000   0.0000   0.0000   0.0000

          k = 0.5292-0.2381 0.0000 (   388 PWs)   bands (ev):

     2.5423   4.0021  17.6293  18.3856  19.6327  19.7153

     occupation numbers 
     1.0000   1.0000   0.0000   0.0000   0.0000   0.0000

          k = 0.5774-0.2041-0.0833 (   390 PWs)   bands (ev):

     3.2394   3.4281  17.0872  17.1290  19.8342  20.0834

     occupation numbers 
     1.0000   1.0000   0.0000   0.0000   0.0000   0.0000

          k = 0.5533-0.2211-0.0417 (   392 PWs)   bands (ev):

     2.8846   3.6322  17.9375  18.0610  19.2966  20.0113

     occupation numbers 
     1.0000   1.0000   0.0000   0.0000   0.0000   0.0000

          k =-0.5774 0.2041 0.0000 (   392 PWs)   bands (ev):

     3.1218   3.3058  18.8325  18.8325  19.1612  19.1613

     occupation numbers 
     1.0000   1.0000   0.0000   0.0000   0.0000   0.0000

          k =-0.5774 0.2552 0.0000 (   392 PWs)   bands (ev):

     2.8846   3.6322  17.9375  18.0610  19.2964  20.0115

     occupation numbers 
     1.0000   1.0000   0.0000   0.0000   0.0000   0.0000

          k =-0.5774 0.3062 0.0000 (   389 PWs)   bands (ev):

     2.6625   4.1217  16.6138  17.2254  18.8788  21.0827

     occupation numbers 
     1.0000   1.0000   0.0000   0.0000   0.0000   0.0000

          k =-0.5774 0.3572 0.0000 (   387 PWs)   bands (ev):

     2.5268   4.7020  15.2323  16.4651  18.2398  22.2346

     occupation numbers 
     1.0000   1.0000   0.0000   0.0000   0.0000   0.0000

          k =-0.5774 0.4082 0.0000 (   385 PWs)   bands (ev):

     2.4804   5.3688  13.8744  15.7836  17.5734  23.4607

     occupation numbers 
     1.0000   1.0000   0.0000   0.0000   0.0000   0.0000

          k =-0.5774 0.4593 0.0000 (   389 PWs)   bands (ev):

     2.5237   6.1193  12.5701  15.1818  16.9415  24.7566

     occupation numbers 
     1.0000   1.0000   0.0000   0.0000   0.0000   0.0000

          k =-0.5774 0.5103 0.0000 (   390 PWs)   bands (ev):

     2.6563   6.9501  11.3339  14.6601  16.3664  23.5246

     occupation numbers 
     1.0000   1.0000   0.0000   0.0000   0.0000   0.0000

          k =-0.5774 0.5613 0.0000 (   391 PWs)   bands (ev):

     2.8772   7.8549  10.1761  14.2186  15.8552  21.9470

     occupation numbers 
     1.0000   0.0278   0.0000   0.0000   0.0000   0.0000

          k =-0.5774 0.6124 0.0000 (   392 PWs)   bands (ev):

     3.1839   8.7661   9.1654  13.8573  15.4042  20.4108

     occupation numbers 
     1.0000   0.0000   0.0000   0.0000   0.0000   0.0000

          k =-0.5774 0.6634 0.0000 (   391 PWs)   bands (ev):

     3.5716   8.0764   9.9073  13.5763  14.9932  18.9791

     occupation numbers 
     1.0000   0.0000   0.0000   0.0000   0.0000   0.0000

          k =-0.5774 0.7144 0.0000 (   391 PWs)   bands (ev):

     4.0274   7.1948  10.9907  13.3756  14.5630  17.7417

     occupation numbers 
     1.0000   1.0000   0.0000   0.0000   0.0000   0.0000

          k =-0.5774 0.7655 0.0000 (   388 PWs)   bands (ev):

     4.5047   6.4593  12.0908  13.2552  13.9847  16.8695

     occupation numbers 
     1.0000   1.0000   0.0000   0.0000   0.0000   0.0000

          k =-0.5774-0.4082 0.0000 (   388 PWs)   bands (ev):

     4.7787   6.0989  13.0552  13.2150  13.2150  16.5578

     occupation numbers 
     1.0000   1.0000   0.0000   0.0000   0.0000   0.0000

     the Fermi energy is     7.7166 ev

!    total energy              =      -6.64360831 Ry
     Harris-Foulkes estimate   =      -6.64360864 Ry
     estimated scf accuracy    <       0.00000131 Ry

     The total energy is the sum of the following terms:

     one-electron contribution =       2.98351632 Ry
     hartree contribution      =       0.00841341 Ry
     xc contribution           =      -4.22915659 Ry
     ewald contribution        =      -5.40634338 Ry
     smearing contrib. (-TS)   =      -0.00003807 Ry

     convergence has been achieved in   3 iterations
 
     init_run     :     47.93s CPU      6.80s WALL (       1 calls)
     electrons    :   1076.10s CPU    101.82s WALL (       1 calls)

     Called by init_run:
     wfcinit      :     47.36s CPU      6.57s WALL (       1 calls)
     wfcinit:atom :      1.01s CPU      0.14s WALL (    3614 calls)
     wfcinit:wfcr :     43.92s CPU      6.08s WALL (    3614 calls)
     potinit      :      0.01s CPU      0.01s WALL (       1 calls)

     Called by electrons:
     c_bands      :   1059.23s CPU     92.20s WALL (       4 calls)
     sum_band     :     15.48s CPU      9.55s WALL (       4 calls)
     v_of_rho     :      0.02s CPU      0.00s WALL (       4 calls)
     v_h          :      0.00s CPU      0.00s WALL (       4 calls)
     v_xc         :      0.01s CPU      0.00s WALL (       4 calls)
     newd         :      0.61s CPU      0.03s WALL (       4 calls)
     mix_rho      :      0.01s CPU      0.00s WALL (       4 calls)

     Called by c_bands:
     init_us_2    :     14.30s CPU      2.09s WALL (   32526 calls)
     cegterg      :    983.21s CPU     84.03s WALL (   14456 calls)

     Called by sum_band:
     sum_band:bec :      0.13s CPU      0.05s WALL (   14456 calls)
     addusdens    :      0.01s CPU      0.01s WALL (       4 calls)

     Called by *egterg:
     h_psi        :    893.36s CPU     79.38s WALL (   49486 calls)
     s_psi        :      7.38s CPU      0.69s WALL (   49486 calls)
     g_psi        :      3.89s CPU      0.32s WALL (   31416 calls)
     cdiaghg      :     47.96s CPU      3.93s WALL (   42258 calls)
     cegterg:over :     11.36s CPU      0.94s WALL (   31416 calls)
     cegterg:upda :     10.30s CPU      0.87s WALL (   31416 calls)
     cegterg:last :      7.16s CPU      0.57s WALL (   16413 calls)

     Called by h_psi:
     h_psi:pot    :    886.53s CPU     78.79s WALL (   49486 calls)
     h_psi:calbec :     11.04s CPU      0.91s WALL (   49486 calls)
     vloc_psi     :    857.89s CPU     76.46s WALL (   49486 calls)
     add_vuspsi   :      7.83s CPU      0.72s WALL (   49486 calls)

     General routines
     calbec       :      6.63s CPU      0.70s WALL (   63942 calls)
     fft          :      0.02s CPU      0.03s WALL (      26 calls)
     fftw         :    708.30s CPU     69.80s WALL (  580784 calls)
 
     Parallel routines
 
     PWSCF        : 18m44.30s CPU     1m48.69s WALL

 
   This run was terminated on:  12:25:30  24Jan2019            

=------------------------------------------------------------------------------=
   JOB DONE.
=------------------------------------------------------------------------------=
