
     Program PWSCF v.6.2 (svn rev. 14038) starts on 24Jan2019 at 17: 0:48 

     This program is part of the open-source Quantum ESPRESSO suite
     for quantum simulation of materials; please cite
         "P. Giannozzi et al., J. Phys.:Condens. Matter 21 395502 (2009);
         "P. Giannozzi et al., J. Phys.:Condens. Matter 29 465901 (2017);
          URL http://www.quantum-espresso.org", 
     in publications or presentations arising from this work. More details at
     http://www.quantum-espresso.org/quote

     Parallel version (MPI), running on     1 processors

     MPI processes distributed on     1 nodes
     Reading input from ./AlfccSEPNEG0DOT13873889312216173.in
Warning: card &IONS ignored
Warning: card / ignored
Warning: card &CELL ignored
Warning: card / ignored

     Current dimensions of program PWSCF are:
     Max number of different atomic species (ntypx) = 10
     Max number of k-points (npk) =  40000
     Max angular momentum in pseudopotentials (lmaxx) =  3
     Message from routine iosys:
     minimal I/O required, wf_collect reset to FALSE

     Subspace diagonalization in iterative solution of the eigenvalue problem:
     a serial algorithm will be used

     Found symmetry operation: I + ( -0.5000 -0.5000  0.0000)
     This is a supercell, fractional translations are disabled
 
     G-vector sticks info
     --------------------
     sticks:   dense  smooth     PW     G-vecs:    dense   smooth      PW
     Sum         465     465    145                 6445     6445    1205
 


     bravais-lattice index     =            0
     lattice parameter (alat)  =       7.6325  a.u.
     unit-cell volume          =     382.9397 (a.u.)^3
     number of atoms/cell      =            4
     number of atomic types    =            1
     number of electrons       =        12.00
     number of Kohn-Sham states=           10
     kinetic-energy cutoff     =      25.0000  Ry
     charge density cutoff     =     100.0000  Ry
     convergence threshold     =      1.0E-07
     mixing beta               =       0.7000
     number of iterations used =            8  plain     mixing
     Exchange-correlation      = SLA  PW   PBE  PBE ( 1  4  3  4 0 0)

     celldm(1)=   7.632472  celldm(2)=   0.000000  celldm(3)=   0.000000
     celldm(4)=   0.000000  celldm(5)=   0.000000  celldm(6)=   0.000000

     crystal axes: (cart. coord. in units of alat)
               a(1) = (   1.000000   0.000000   0.000000 )  
               a(2) = (   0.000000   1.000000   0.000000 )  
               a(3) = (   0.000000   0.000000   0.861261 )  

     reciprocal axes: (cart. coord. in units 2 pi/alat)
               b(1) = (  1.000000  0.000000  0.000000 )  
               b(2) = (  0.000000  1.000000  0.000000 )  
               b(3) = (  0.000000  0.000000  1.161088 )  


     PseudoPot. # 1 for Al read from file:
     ./al_pbe_v1.uspp.F.UPF
     MD5 check sum: 0a6289f5291fc8f409219462bc851e1f
     Pseudo is Ultrasoft + core correction, Zval =  3.0
     Generated by new atomic code, or converted to UPF format
     Using radial grid of  893 points,  3 beta functions with: 
                l(1) =   0
                l(2) =   1
                l(3) =   2
     Q(r) pseudized with  8 coefficients,  rinner =    0.900   0.900   0.900
                                                       0.900   0.900

     atomic species   valence    mass     pseudopotential
        Al             3.00    26.98150     Al( 1.00)

     16 Sym. Ops., with inversion, found


                                    s                        frac. trans.

      isym =  1     identity                                     

 cryst.   s( 1) = (     1          0          0      )
                  (     0          1          0      )
                  (     0          0          1      )

 cart.    s( 1) = (  1.0000000  0.0000000  0.0000000 )
                  (  0.0000000  1.0000000  0.0000000 )
                  (  0.0000000  0.0000000  1.0000000 )


      isym =  2     180 deg rotation - cart. axis [0,0,1]        

 cryst.   s( 2) = (    -1          0          0      )
                  (     0         -1          0      )
                  (     0          0          1      )

 cart.    s( 2) = ( -1.0000000  0.0000000  0.0000000 )
                  (  0.0000000 -1.0000000  0.0000000 )
                  (  0.0000000  0.0000000  1.0000000 )


      isym =  3     180 deg rotation - cart. axis [0,1,0]        

 cryst.   s( 3) = (    -1          0          0      )
                  (     0          1          0      )
                  (     0          0         -1      )

 cart.    s( 3) = ( -1.0000000  0.0000000  0.0000000 )
                  (  0.0000000  1.0000000  0.0000000 )
                  (  0.0000000  0.0000000 -1.0000000 )


      isym =  4     180 deg rotation - cart. axis [1,0,0]        

 cryst.   s( 4) = (     1          0          0      )
                  (     0         -1          0      )
                  (     0          0         -1      )

 cart.    s( 4) = (  1.0000000  0.0000000  0.0000000 )
                  (  0.0000000 -1.0000000  0.0000000 )
                  (  0.0000000  0.0000000 -1.0000000 )


      isym =  5     180 deg rotation - cart. axis [1,1,0]        

 cryst.   s( 5) = (     0          1          0      )
                  (     1          0          0      )
                  (     0          0         -1      )

 cart.    s( 5) = (  0.0000000  1.0000000  0.0000000 )
                  (  1.0000000  0.0000000  0.0000000 )
                  (  0.0000000  0.0000000 -1.0000000 )


      isym =  6     180 deg rotation - cart. axis [1,-1,0]       

 cryst.   s( 6) = (     0         -1          0      )
                  (    -1          0          0      )
                  (     0          0         -1      )

 cart.    s( 6) = (  0.0000000 -1.0000000  0.0000000 )
                  ( -1.0000000  0.0000000  0.0000000 )
                  (  0.0000000  0.0000000 -1.0000000 )


      isym =  7      90 deg rotation - cart. axis [0,0,-1]       

 cryst.   s( 7) = (     0         -1          0      )
                  (     1          0          0      )
                  (     0          0          1      )

 cart.    s( 7) = (  0.0000000  1.0000000  0.0000000 )
                  ( -1.0000000  0.0000000  0.0000000 )
                  (  0.0000000  0.0000000  1.0000000 )


      isym =  8      90 deg rotation - cart. axis [0,0,1]        

 cryst.   s( 8) = (     0          1          0      )
                  (    -1          0          0      )
                  (     0          0          1      )

 cart.    s( 8) = (  0.0000000 -1.0000000  0.0000000 )
                  (  1.0000000  0.0000000  0.0000000 )
                  (  0.0000000  0.0000000  1.0000000 )


      isym =  9     inversion                                    

 cryst.   s( 9) = (    -1          0          0      )
                  (     0         -1          0      )
                  (     0          0         -1      )

 cart.    s( 9) = ( -1.0000000  0.0000000  0.0000000 )
                  (  0.0000000 -1.0000000  0.0000000 )
                  (  0.0000000  0.0000000 -1.0000000 )


      isym = 10     inv. 180 deg rotation - cart. axis [0,0,1]   

 cryst.   s(10) = (     1          0          0      )
                  (     0          1          0      )
                  (     0          0         -1      )

 cart.    s(10) = (  1.0000000  0.0000000  0.0000000 )
                  (  0.0000000  1.0000000  0.0000000 )
                  (  0.0000000  0.0000000 -1.0000000 )


      isym = 11     inv. 180 deg rotation - cart. axis [0,1,0]   

 cryst.   s(11) = (     1          0          0      )
                  (     0         -1          0      )
                  (     0          0          1      )

 cart.    s(11) = (  1.0000000  0.0000000  0.0000000 )
                  (  0.0000000 -1.0000000  0.0000000 )
                  (  0.0000000  0.0000000  1.0000000 )


      isym = 12     inv. 180 deg rotation - cart. axis [1,0,0]   

 cryst.   s(12) = (    -1          0          0      )
                  (     0          1          0      )
                  (     0          0          1      )

 cart.    s(12) = ( -1.0000000  0.0000000  0.0000000 )
                  (  0.0000000  1.0000000  0.0000000 )
                  (  0.0000000  0.0000000  1.0000000 )


      isym = 13     inv. 180 deg rotation - cart. axis [1,1,0]   

 cryst.   s(13) = (     0         -1          0      )
                  (    -1          0          0      )
                  (     0          0          1      )

 cart.    s(13) = (  0.0000000 -1.0000000  0.0000000 )
                  ( -1.0000000  0.0000000  0.0000000 )
                  (  0.0000000  0.0000000  1.0000000 )


      isym = 14     inv. 180 deg rotation - cart. axis [1,-1,0]  

 cryst.   s(14) = (     0          1          0      )
                  (     1          0          0      )
                  (     0          0          1      )

 cart.    s(14) = (  0.0000000  1.0000000  0.0000000 )
                  (  1.0000000  0.0000000  0.0000000 )
                  (  0.0000000  0.0000000  1.0000000 )


      isym = 15     inv.  90 deg rotation - cart. axis [0,0,-1]  

 cryst.   s(15) = (     0          1          0      )
                  (    -1          0          0      )
                  (     0          0         -1      )

 cart.    s(15) = (  0.0000000 -1.0000000  0.0000000 )
                  (  1.0000000  0.0000000  0.0000000 )
                  (  0.0000000  0.0000000 -1.0000000 )


      isym = 16     inv.  90 deg rotation - cart. axis [0,0,1]   

 cryst.   s(16) = (     0         -1          0      )
                  (     1          0          0      )
                  (     0          0         -1      )

 cart.    s(16) = (  0.0000000  1.0000000  0.0000000 )
                  ( -1.0000000  0.0000000  0.0000000 )
                  (  0.0000000  0.0000000 -1.0000000 )


   Cartesian axes

     site n.     atom                  positions (alat units)
         1           Al  tau(   1) = (   0.0000000   0.0000000   0.0000000  )
         2           Al  tau(   2) = (   0.5000000   0.5000000   0.0000000  )
         3           Al  tau(   3) = (   0.5000000   0.0000000   0.4306305  )
         4           Al  tau(   4) = (   0.0000000   0.5000000   0.4306305  )

   Crystallographic axes

     site n.     atom                  positions (cryst. coord.)
         1           Al  tau(   1) = (  0.0000000  0.0000000  0.0000000  )
         2           Al  tau(   2) = (  0.5000000  0.5000000  0.0000000  )
         3           Al  tau(   3) = (  0.5000000  0.0000000  0.5000000  )
         4           Al  tau(   4) = (  0.0000000  0.5000000  0.5000000  )

     number of k points=   605  Marzari-Vanderbilt smearing, width (Ry)=  0.0100
                       cart. coord. in units 2pi/alat
        k(    1) = (   0.0000000   0.0000000   0.0000000), wk =   0.0003086
        k(    2) = (   0.0000000   0.0000000   0.0580544), wk =   0.0006173
        k(    3) = (   0.0000000   0.0000000   0.1161088), wk =   0.0006173
        k(    4) = (   0.0000000   0.0000000   0.1741632), wk =   0.0006173
        k(    5) = (   0.0000000   0.0000000   0.2322176), wk =   0.0006173
        k(    6) = (   0.0000000   0.0000000   0.2902720), wk =   0.0006173
        k(    7) = (   0.0000000   0.0000000   0.3483265), wk =   0.0006173
        k(    8) = (   0.0000000   0.0000000   0.4063809), wk =   0.0006173
        k(    9) = (   0.0000000   0.0000000   0.4644353), wk =   0.0006173
        k(   10) = (   0.0000000   0.0000000   0.5224897), wk =   0.0006173
        k(   11) = (   0.0000000   0.0000000  -0.5805441), wk =   0.0003086
        k(   12) = (   0.0000000   0.0555556   0.0000000), wk =   0.0012346
        k(   13) = (   0.0000000   0.0555556   0.0580544), wk =   0.0024691
        k(   14) = (   0.0000000   0.0555556   0.1161088), wk =   0.0024691
        k(   15) = (   0.0000000   0.0555556   0.1741632), wk =   0.0024691
        k(   16) = (   0.0000000   0.0555556   0.2322176), wk =   0.0024691
        k(   17) = (   0.0000000   0.0555556   0.2902720), wk =   0.0024691
        k(   18) = (   0.0000000   0.0555556   0.3483265), wk =   0.0024691
        k(   19) = (   0.0000000   0.0555556   0.4063809), wk =   0.0024691
        k(   20) = (   0.0000000   0.0555556   0.4644353), wk =   0.0024691
        k(   21) = (   0.0000000   0.0555556   0.5224897), wk =   0.0024691
        k(   22) = (   0.0000000   0.0555556  -0.5805441), wk =   0.0012346
        k(   23) = (   0.0000000   0.1111111   0.0000000), wk =   0.0012346
        k(   24) = (   0.0000000   0.1111111   0.0580544), wk =   0.0024691
        k(   25) = (   0.0000000   0.1111111   0.1161088), wk =   0.0024691
        k(   26) = (   0.0000000   0.1111111   0.1741632), wk =   0.0024691
        k(   27) = (   0.0000000   0.1111111   0.2322176), wk =   0.0024691
        k(   28) = (   0.0000000   0.1111111   0.2902720), wk =   0.0024691
        k(   29) = (   0.0000000   0.1111111   0.3483265), wk =   0.0024691
        k(   30) = (   0.0000000   0.1111111   0.4063809), wk =   0.0024691
        k(   31) = (   0.0000000   0.1111111   0.4644353), wk =   0.0024691
        k(   32) = (   0.0000000   0.1111111   0.5224897), wk =   0.0024691
        k(   33) = (   0.0000000   0.1111111  -0.5805441), wk =   0.0012346
        k(   34) = (   0.0000000   0.1666667   0.0000000), wk =   0.0012346
        k(   35) = (   0.0000000   0.1666667   0.0580544), wk =   0.0024691
        k(   36) = (   0.0000000   0.1666667   0.1161088), wk =   0.0024691
        k(   37) = (   0.0000000   0.1666667   0.1741632), wk =   0.0024691
        k(   38) = (   0.0000000   0.1666667   0.2322176), wk =   0.0024691
        k(   39) = (   0.0000000   0.1666667   0.2902720), wk =   0.0024691
        k(   40) = (   0.0000000   0.1666667   0.3483265), wk =   0.0024691
        k(   41) = (   0.0000000   0.1666667   0.4063809), wk =   0.0024691
        k(   42) = (   0.0000000   0.1666667   0.4644353), wk =   0.0024691
        k(   43) = (   0.0000000   0.1666667   0.5224897), wk =   0.0024691
        k(   44) = (   0.0000000   0.1666667  -0.5805441), wk =   0.0012346
        k(   45) = (   0.0000000   0.2222222   0.0000000), wk =   0.0012346
        k(   46) = (   0.0000000   0.2222222   0.0580544), wk =   0.0024691
        k(   47) = (   0.0000000   0.2222222   0.1161088), wk =   0.0024691
        k(   48) = (   0.0000000   0.2222222   0.1741632), wk =   0.0024691
        k(   49) = (   0.0000000   0.2222222   0.2322176), wk =   0.0024691
        k(   50) = (   0.0000000   0.2222222   0.2902720), wk =   0.0024691
        k(   51) = (   0.0000000   0.2222222   0.3483265), wk =   0.0024691
        k(   52) = (   0.0000000   0.2222222   0.4063809), wk =   0.0024691
        k(   53) = (   0.0000000   0.2222222   0.4644353), wk =   0.0024691
        k(   54) = (   0.0000000   0.2222222   0.5224897), wk =   0.0024691
        k(   55) = (   0.0000000   0.2222222  -0.5805441), wk =   0.0012346
        k(   56) = (   0.0000000   0.2777778   0.0000000), wk =   0.0012346
        k(   57) = (   0.0000000   0.2777778   0.0580544), wk =   0.0024691
        k(   58) = (   0.0000000   0.2777778   0.1161088), wk =   0.0024691
        k(   59) = (   0.0000000   0.2777778   0.1741632), wk =   0.0024691
        k(   60) = (   0.0000000   0.2777778   0.2322176), wk =   0.0024691
        k(   61) = (   0.0000000   0.2777778   0.2902720), wk =   0.0024691
        k(   62) = (   0.0000000   0.2777778   0.3483265), wk =   0.0024691
        k(   63) = (   0.0000000   0.2777778   0.4063809), wk =   0.0024691
        k(   64) = (   0.0000000   0.2777778   0.4644353), wk =   0.0024691
        k(   65) = (   0.0000000   0.2777778   0.5224897), wk =   0.0024691
        k(   66) = (   0.0000000   0.2777778  -0.5805441), wk =   0.0012346
        k(   67) = (   0.0000000   0.3333333   0.0000000), wk =   0.0012346
        k(   68) = (   0.0000000   0.3333333   0.0580544), wk =   0.0024691
        k(   69) = (   0.0000000   0.3333333   0.1161088), wk =   0.0024691
        k(   70) = (   0.0000000   0.3333333   0.1741632), wk =   0.0024691
        k(   71) = (   0.0000000   0.3333333   0.2322176), wk =   0.0024691
        k(   72) = (   0.0000000   0.3333333   0.2902720), wk =   0.0024691
        k(   73) = (   0.0000000   0.3333333   0.3483265), wk =   0.0024691
        k(   74) = (   0.0000000   0.3333333   0.4063809), wk =   0.0024691
        k(   75) = (   0.0000000   0.3333333   0.4644353), wk =   0.0024691
        k(   76) = (   0.0000000   0.3333333   0.5224897), wk =   0.0024691
        k(   77) = (   0.0000000   0.3333333  -0.5805441), wk =   0.0012346
        k(   78) = (   0.0000000   0.3888889   0.0000000), wk =   0.0012346
        k(   79) = (   0.0000000   0.3888889   0.0580544), wk =   0.0024691
        k(   80) = (   0.0000000   0.3888889   0.1161088), wk =   0.0024691
        k(   81) = (   0.0000000   0.3888889   0.1741632), wk =   0.0024691
        k(   82) = (   0.0000000   0.3888889   0.2322176), wk =   0.0024691
        k(   83) = (   0.0000000   0.3888889   0.2902720), wk =   0.0024691
        k(   84) = (   0.0000000   0.3888889   0.3483265), wk =   0.0024691
        k(   85) = (   0.0000000   0.3888889   0.4063809), wk =   0.0024691
        k(   86) = (   0.0000000   0.3888889   0.4644353), wk =   0.0024691
        k(   87) = (   0.0000000   0.3888889   0.5224897), wk =   0.0024691
        k(   88) = (   0.0000000   0.3888889  -0.5805441), wk =   0.0012346
        k(   89) = (   0.0000000   0.4444444   0.0000000), wk =   0.0012346
        k(   90) = (   0.0000000   0.4444444   0.0580544), wk =   0.0024691
        k(   91) = (   0.0000000   0.4444444   0.1161088), wk =   0.0024691
        k(   92) = (   0.0000000   0.4444444   0.1741632), wk =   0.0024691
        k(   93) = (   0.0000000   0.4444444   0.2322176), wk =   0.0024691
        k(   94) = (   0.0000000   0.4444444   0.2902720), wk =   0.0024691
        k(   95) = (   0.0000000   0.4444444   0.3483265), wk =   0.0024691
        k(   96) = (   0.0000000   0.4444444   0.4063809), wk =   0.0024691
        k(   97) = (   0.0000000   0.4444444   0.4644353), wk =   0.0024691
        k(   98) = (   0.0000000   0.4444444   0.5224897), wk =   0.0024691
        k(   99) = (   0.0000000   0.4444444  -0.5805441), wk =   0.0012346
        k(  100) = (   0.0000000  -0.5000000   0.0000000), wk =   0.0006173
        k(  101) = (   0.0000000  -0.5000000   0.0580544), wk =   0.0012346
        k(  102) = (   0.0000000  -0.5000000   0.1161088), wk =   0.0012346
        k(  103) = (   0.0000000  -0.5000000   0.1741632), wk =   0.0012346
        k(  104) = (   0.0000000  -0.5000000   0.2322176), wk =   0.0012346
        k(  105) = (   0.0000000  -0.5000000   0.2902720), wk =   0.0012346
        k(  106) = (   0.0000000  -0.5000000   0.3483265), wk =   0.0012346
        k(  107) = (   0.0000000  -0.5000000   0.4063809), wk =   0.0012346
        k(  108) = (   0.0000000  -0.5000000   0.4644353), wk =   0.0012346
        k(  109) = (   0.0000000  -0.5000000   0.5224897), wk =   0.0012346
        k(  110) = (   0.0000000  -0.5000000  -0.5805441), wk =   0.0006173
        k(  111) = (   0.0555556   0.0555556   0.0000000), wk =   0.0012346
        k(  112) = (   0.0555556   0.0555556   0.0580544), wk =   0.0024691
        k(  113) = (   0.0555556   0.0555556   0.1161088), wk =   0.0024691
        k(  114) = (   0.0555556   0.0555556   0.1741632), wk =   0.0024691
        k(  115) = (   0.0555556   0.0555556   0.2322176), wk =   0.0024691
        k(  116) = (   0.0555556   0.0555556   0.2902720), wk =   0.0024691
        k(  117) = (   0.0555556   0.0555556   0.3483265), wk =   0.0024691
        k(  118) = (   0.0555556   0.0555556   0.4063809), wk =   0.0024691
        k(  119) = (   0.0555556   0.0555556   0.4644353), wk =   0.0024691
        k(  120) = (   0.0555556   0.0555556   0.5224897), wk =   0.0024691
        k(  121) = (   0.0555556   0.0555556  -0.5805441), wk =   0.0012346
        k(  122) = (   0.0555556   0.1111111   0.0000000), wk =   0.0024691
        k(  123) = (   0.0555556   0.1111111   0.0580544), wk =   0.0049383
        k(  124) = (   0.0555556   0.1111111   0.1161088), wk =   0.0049383
        k(  125) = (   0.0555556   0.1111111   0.1741632), wk =   0.0049383
        k(  126) = (   0.0555556   0.1111111   0.2322176), wk =   0.0049383
        k(  127) = (   0.0555556   0.1111111   0.2902720), wk =   0.0049383
        k(  128) = (   0.0555556   0.1111111   0.3483265), wk =   0.0049383
        k(  129) = (   0.0555556   0.1111111   0.4063809), wk =   0.0049383
        k(  130) = (   0.0555556   0.1111111   0.4644353), wk =   0.0049383
        k(  131) = (   0.0555556   0.1111111   0.5224897), wk =   0.0049383
        k(  132) = (   0.0555556   0.1111111  -0.5805441), wk =   0.0024691
        k(  133) = (   0.0555556   0.1666667   0.0000000), wk =   0.0024691
        k(  134) = (   0.0555556   0.1666667   0.0580544), wk =   0.0049383
        k(  135) = (   0.0555556   0.1666667   0.1161088), wk =   0.0049383
        k(  136) = (   0.0555556   0.1666667   0.1741632), wk =   0.0049383
        k(  137) = (   0.0555556   0.1666667   0.2322176), wk =   0.0049383
        k(  138) = (   0.0555556   0.1666667   0.2902720), wk =   0.0049383
        k(  139) = (   0.0555556   0.1666667   0.3483265), wk =   0.0049383
        k(  140) = (   0.0555556   0.1666667   0.4063809), wk =   0.0049383
        k(  141) = (   0.0555556   0.1666667   0.4644353), wk =   0.0049383
        k(  142) = (   0.0555556   0.1666667   0.5224897), wk =   0.0049383
        k(  143) = (   0.0555556   0.1666667  -0.5805441), wk =   0.0024691
        k(  144) = (   0.0555556   0.2222222   0.0000000), wk =   0.0024691
        k(  145) = (   0.0555556   0.2222222   0.0580544), wk =   0.0049383
        k(  146) = (   0.0555556   0.2222222   0.1161088), wk =   0.0049383
        k(  147) = (   0.0555556   0.2222222   0.1741632), wk =   0.0049383
        k(  148) = (   0.0555556   0.2222222   0.2322176), wk =   0.0049383
        k(  149) = (   0.0555556   0.2222222   0.2902720), wk =   0.0049383
        k(  150) = (   0.0555556   0.2222222   0.3483265), wk =   0.0049383
        k(  151) = (   0.0555556   0.2222222   0.4063809), wk =   0.0049383
        k(  152) = (   0.0555556   0.2222222   0.4644353), wk =   0.0049383
        k(  153) = (   0.0555556   0.2222222   0.5224897), wk =   0.0049383
        k(  154) = (   0.0555556   0.2222222  -0.5805441), wk =   0.0024691
        k(  155) = (   0.0555556   0.2777778   0.0000000), wk =   0.0024691
        k(  156) = (   0.0555556   0.2777778   0.0580544), wk =   0.0049383
        k(  157) = (   0.0555556   0.2777778   0.1161088), wk =   0.0049383
        k(  158) = (   0.0555556   0.2777778   0.1741632), wk =   0.0049383
        k(  159) = (   0.0555556   0.2777778   0.2322176), wk =   0.0049383
        k(  160) = (   0.0555556   0.2777778   0.2902720), wk =   0.0049383
        k(  161) = (   0.0555556   0.2777778   0.3483265), wk =   0.0049383
        k(  162) = (   0.0555556   0.2777778   0.4063809), wk =   0.0049383
        k(  163) = (   0.0555556   0.2777778   0.4644353), wk =   0.0049383
        k(  164) = (   0.0555556   0.2777778   0.5224897), wk =   0.0049383
        k(  165) = (   0.0555556   0.2777778  -0.5805441), wk =   0.0024691
        k(  166) = (   0.0555556   0.3333333   0.0000000), wk =   0.0024691
        k(  167) = (   0.0555556   0.3333333   0.0580544), wk =   0.0049383
        k(  168) = (   0.0555556   0.3333333   0.1161088), wk =   0.0049383
        k(  169) = (   0.0555556   0.3333333   0.1741632), wk =   0.0049383
        k(  170) = (   0.0555556   0.3333333   0.2322176), wk =   0.0049383
        k(  171) = (   0.0555556   0.3333333   0.2902720), wk =   0.0049383
        k(  172) = (   0.0555556   0.3333333   0.3483265), wk =   0.0049383
        k(  173) = (   0.0555556   0.3333333   0.4063809), wk =   0.0049383
        k(  174) = (   0.0555556   0.3333333   0.4644353), wk =   0.0049383
        k(  175) = (   0.0555556   0.3333333   0.5224897), wk =   0.0049383
        k(  176) = (   0.0555556   0.3333333  -0.5805441), wk =   0.0024691
        k(  177) = (   0.0555556   0.3888889   0.0000000), wk =   0.0024691
        k(  178) = (   0.0555556   0.3888889   0.0580544), wk =   0.0049383
        k(  179) = (   0.0555556   0.3888889   0.1161088), wk =   0.0049383
        k(  180) = (   0.0555556   0.3888889   0.1741632), wk =   0.0049383
        k(  181) = (   0.0555556   0.3888889   0.2322176), wk =   0.0049383
        k(  182) = (   0.0555556   0.3888889   0.2902720), wk =   0.0049383
        k(  183) = (   0.0555556   0.3888889   0.3483265), wk =   0.0049383
        k(  184) = (   0.0555556   0.3888889   0.4063809), wk =   0.0049383
        k(  185) = (   0.0555556   0.3888889   0.4644353), wk =   0.0049383
        k(  186) = (   0.0555556   0.3888889   0.5224897), wk =   0.0049383
        k(  187) = (   0.0555556   0.3888889  -0.5805441), wk =   0.0024691
        k(  188) = (   0.0555556   0.4444444   0.0000000), wk =   0.0024691
        k(  189) = (   0.0555556   0.4444444   0.0580544), wk =   0.0049383
        k(  190) = (   0.0555556   0.4444444   0.1161088), wk =   0.0049383
        k(  191) = (   0.0555556   0.4444444   0.1741632), wk =   0.0049383
        k(  192) = (   0.0555556   0.4444444   0.2322176), wk =   0.0049383
        k(  193) = (   0.0555556   0.4444444   0.2902720), wk =   0.0049383
        k(  194) = (   0.0555556   0.4444444   0.3483265), wk =   0.0049383
        k(  195) = (   0.0555556   0.4444444   0.4063809), wk =   0.0049383
        k(  196) = (   0.0555556   0.4444444   0.4644353), wk =   0.0049383
        k(  197) = (   0.0555556   0.4444444   0.5224897), wk =   0.0049383
        k(  198) = (   0.0555556   0.4444444  -0.5805441), wk =   0.0024691
        k(  199) = (   0.0555556  -0.5000000   0.0000000), wk =   0.0012346
        k(  200) = (   0.0555556  -0.5000000   0.0580544), wk =   0.0024691
        k(  201) = (   0.0555556  -0.5000000   0.1161088), wk =   0.0024691
        k(  202) = (   0.0555556  -0.5000000   0.1741632), wk =   0.0024691
        k(  203) = (   0.0555556  -0.5000000   0.2322176), wk =   0.0024691
        k(  204) = (   0.0555556  -0.5000000   0.2902720), wk =   0.0024691
        k(  205) = (   0.0555556  -0.5000000   0.3483265), wk =   0.0024691
        k(  206) = (   0.0555556  -0.5000000   0.4063809), wk =   0.0024691
        k(  207) = (   0.0555556  -0.5000000   0.4644353), wk =   0.0024691
        k(  208) = (   0.0555556  -0.5000000   0.5224897), wk =   0.0024691
        k(  209) = (   0.0555556  -0.5000000  -0.5805441), wk =   0.0012346
        k(  210) = (   0.1111111   0.1111111   0.0000000), wk =   0.0012346
        k(  211) = (   0.1111111   0.1111111   0.0580544), wk =   0.0024691
        k(  212) = (   0.1111111   0.1111111   0.1161088), wk =   0.0024691
        k(  213) = (   0.1111111   0.1111111   0.1741632), wk =   0.0024691
        k(  214) = (   0.1111111   0.1111111   0.2322176), wk =   0.0024691
        k(  215) = (   0.1111111   0.1111111   0.2902720), wk =   0.0024691
        k(  216) = (   0.1111111   0.1111111   0.3483265), wk =   0.0024691
        k(  217) = (   0.1111111   0.1111111   0.4063809), wk =   0.0024691
        k(  218) = (   0.1111111   0.1111111   0.4644353), wk =   0.0024691
        k(  219) = (   0.1111111   0.1111111   0.5224897), wk =   0.0024691
        k(  220) = (   0.1111111   0.1111111  -0.5805441), wk =   0.0012346
        k(  221) = (   0.1111111   0.1666667   0.0000000), wk =   0.0024691
        k(  222) = (   0.1111111   0.1666667   0.0580544), wk =   0.0049383
        k(  223) = (   0.1111111   0.1666667   0.1161088), wk =   0.0049383
        k(  224) = (   0.1111111   0.1666667   0.1741632), wk =   0.0049383
        k(  225) = (   0.1111111   0.1666667   0.2322176), wk =   0.0049383
        k(  226) = (   0.1111111   0.1666667   0.2902720), wk =   0.0049383
        k(  227) = (   0.1111111   0.1666667   0.3483265), wk =   0.0049383
        k(  228) = (   0.1111111   0.1666667   0.4063809), wk =   0.0049383
        k(  229) = (   0.1111111   0.1666667   0.4644353), wk =   0.0049383
        k(  230) = (   0.1111111   0.1666667   0.5224897), wk =   0.0049383
        k(  231) = (   0.1111111   0.1666667  -0.5805441), wk =   0.0024691
        k(  232) = (   0.1111111   0.2222222   0.0000000), wk =   0.0024691
        k(  233) = (   0.1111111   0.2222222   0.0580544), wk =   0.0049383
        k(  234) = (   0.1111111   0.2222222   0.1161088), wk =   0.0049383
        k(  235) = (   0.1111111   0.2222222   0.1741632), wk =   0.0049383
        k(  236) = (   0.1111111   0.2222222   0.2322176), wk =   0.0049383
        k(  237) = (   0.1111111   0.2222222   0.2902720), wk =   0.0049383
        k(  238) = (   0.1111111   0.2222222   0.3483265), wk =   0.0049383
        k(  239) = (   0.1111111   0.2222222   0.4063809), wk =   0.0049383
        k(  240) = (   0.1111111   0.2222222   0.4644353), wk =   0.0049383
        k(  241) = (   0.1111111   0.2222222   0.5224897), wk =   0.0049383
        k(  242) = (   0.1111111   0.2222222  -0.5805441), wk =   0.0024691
        k(  243) = (   0.1111111   0.2777778   0.0000000), wk =   0.0024691
        k(  244) = (   0.1111111   0.2777778   0.0580544), wk =   0.0049383
        k(  245) = (   0.1111111   0.2777778   0.1161088), wk =   0.0049383
        k(  246) = (   0.1111111   0.2777778   0.1741632), wk =   0.0049383
        k(  247) = (   0.1111111   0.2777778   0.2322176), wk =   0.0049383
        k(  248) = (   0.1111111   0.2777778   0.2902720), wk =   0.0049383
        k(  249) = (   0.1111111   0.2777778   0.3483265), wk =   0.0049383
        k(  250) = (   0.1111111   0.2777778   0.4063809), wk =   0.0049383
        k(  251) = (   0.1111111   0.2777778   0.4644353), wk =   0.0049383
        k(  252) = (   0.1111111   0.2777778   0.5224897), wk =   0.0049383
        k(  253) = (   0.1111111   0.2777778  -0.5805441), wk =   0.0024691
        k(  254) = (   0.1111111   0.3333333   0.0000000), wk =   0.0024691
        k(  255) = (   0.1111111   0.3333333   0.0580544), wk =   0.0049383
        k(  256) = (   0.1111111   0.3333333   0.1161088), wk =   0.0049383
        k(  257) = (   0.1111111   0.3333333   0.1741632), wk =   0.0049383
        k(  258) = (   0.1111111   0.3333333   0.2322176), wk =   0.0049383
        k(  259) = (   0.1111111   0.3333333   0.2902720), wk =   0.0049383
        k(  260) = (   0.1111111   0.3333333   0.3483265), wk =   0.0049383
        k(  261) = (   0.1111111   0.3333333   0.4063809), wk =   0.0049383
        k(  262) = (   0.1111111   0.3333333   0.4644353), wk =   0.0049383
        k(  263) = (   0.1111111   0.3333333   0.5224897), wk =   0.0049383
        k(  264) = (   0.1111111   0.3333333  -0.5805441), wk =   0.0024691
        k(  265) = (   0.1111111   0.3888889   0.0000000), wk =   0.0024691
        k(  266) = (   0.1111111   0.3888889   0.0580544), wk =   0.0049383
        k(  267) = (   0.1111111   0.3888889   0.1161088), wk =   0.0049383
        k(  268) = (   0.1111111   0.3888889   0.1741632), wk =   0.0049383
        k(  269) = (   0.1111111   0.3888889   0.2322176), wk =   0.0049383
        k(  270) = (   0.1111111   0.3888889   0.2902720), wk =   0.0049383
        k(  271) = (   0.1111111   0.3888889   0.3483265), wk =   0.0049383
        k(  272) = (   0.1111111   0.3888889   0.4063809), wk =   0.0049383
        k(  273) = (   0.1111111   0.3888889   0.4644353), wk =   0.0049383
        k(  274) = (   0.1111111   0.3888889   0.5224897), wk =   0.0049383
        k(  275) = (   0.1111111   0.3888889  -0.5805441), wk =   0.0024691
        k(  276) = (   0.1111111   0.4444444   0.0000000), wk =   0.0024691
        k(  277) = (   0.1111111   0.4444444   0.0580544), wk =   0.0049383
        k(  278) = (   0.1111111   0.4444444   0.1161088), wk =   0.0049383
        k(  279) = (   0.1111111   0.4444444   0.1741632), wk =   0.0049383
        k(  280) = (   0.1111111   0.4444444   0.2322176), wk =   0.0049383
        k(  281) = (   0.1111111   0.4444444   0.2902720), wk =   0.0049383
        k(  282) = (   0.1111111   0.4444444   0.3483265), wk =   0.0049383
        k(  283) = (   0.1111111   0.4444444   0.4063809), wk =   0.0049383
        k(  284) = (   0.1111111   0.4444444   0.4644353), wk =   0.0049383
        k(  285) = (   0.1111111   0.4444444   0.5224897), wk =   0.0049383
        k(  286) = (   0.1111111   0.4444444  -0.5805441), wk =   0.0024691
        k(  287) = (   0.1111111  -0.5000000   0.0000000), wk =   0.0012346
        k(  288) = (   0.1111111  -0.5000000   0.0580544), wk =   0.0024691
        k(  289) = (   0.1111111  -0.5000000   0.1161088), wk =   0.0024691
        k(  290) = (   0.1111111  -0.5000000   0.1741632), wk =   0.0024691
        k(  291) = (   0.1111111  -0.5000000   0.2322176), wk =   0.0024691
        k(  292) = (   0.1111111  -0.5000000   0.2902720), wk =   0.0024691
        k(  293) = (   0.1111111  -0.5000000   0.3483265), wk =   0.0024691
        k(  294) = (   0.1111111  -0.5000000   0.4063809), wk =   0.0024691
        k(  295) = (   0.1111111  -0.5000000   0.4644353), wk =   0.0024691
        k(  296) = (   0.1111111  -0.5000000   0.5224897), wk =   0.0024691
        k(  297) = (   0.1111111  -0.5000000  -0.5805441), wk =   0.0012346
        k(  298) = (   0.1666667   0.1666667   0.0000000), wk =   0.0012346
        k(  299) = (   0.1666667   0.1666667   0.0580544), wk =   0.0024691
        k(  300) = (   0.1666667   0.1666667   0.1161088), wk =   0.0024691
        k(  301) = (   0.1666667   0.1666667   0.1741632), wk =   0.0024691
        k(  302) = (   0.1666667   0.1666667   0.2322176), wk =   0.0024691
        k(  303) = (   0.1666667   0.1666667   0.2902720), wk =   0.0024691
        k(  304) = (   0.1666667   0.1666667   0.3483265), wk =   0.0024691
        k(  305) = (   0.1666667   0.1666667   0.4063809), wk =   0.0024691
        k(  306) = (   0.1666667   0.1666667   0.4644353), wk =   0.0024691
        k(  307) = (   0.1666667   0.1666667   0.5224897), wk =   0.0024691
        k(  308) = (   0.1666667   0.1666667  -0.5805441), wk =   0.0012346
        k(  309) = (   0.1666667   0.2222222   0.0000000), wk =   0.0024691
        k(  310) = (   0.1666667   0.2222222   0.0580544), wk =   0.0049383
        k(  311) = (   0.1666667   0.2222222   0.1161088), wk =   0.0049383
        k(  312) = (   0.1666667   0.2222222   0.1741632), wk =   0.0049383
        k(  313) = (   0.1666667   0.2222222   0.2322176), wk =   0.0049383
        k(  314) = (   0.1666667   0.2222222   0.2902720), wk =   0.0049383
        k(  315) = (   0.1666667   0.2222222   0.3483265), wk =   0.0049383
        k(  316) = (   0.1666667   0.2222222   0.4063809), wk =   0.0049383
        k(  317) = (   0.1666667   0.2222222   0.4644353), wk =   0.0049383
        k(  318) = (   0.1666667   0.2222222   0.5224897), wk =   0.0049383
        k(  319) = (   0.1666667   0.2222222  -0.5805441), wk =   0.0024691
        k(  320) = (   0.1666667   0.2777778   0.0000000), wk =   0.0024691
        k(  321) = (   0.1666667   0.2777778   0.0580544), wk =   0.0049383
        k(  322) = (   0.1666667   0.2777778   0.1161088), wk =   0.0049383
        k(  323) = (   0.1666667   0.2777778   0.1741632), wk =   0.0049383
        k(  324) = (   0.1666667   0.2777778   0.2322176), wk =   0.0049383
        k(  325) = (   0.1666667   0.2777778   0.2902720), wk =   0.0049383
        k(  326) = (   0.1666667   0.2777778   0.3483265), wk =   0.0049383
        k(  327) = (   0.1666667   0.2777778   0.4063809), wk =   0.0049383
        k(  328) = (   0.1666667   0.2777778   0.4644353), wk =   0.0049383
        k(  329) = (   0.1666667   0.2777778   0.5224897), wk =   0.0049383
        k(  330) = (   0.1666667   0.2777778  -0.5805441), wk =   0.0024691
        k(  331) = (   0.1666667   0.3333333   0.0000000), wk =   0.0024691
        k(  332) = (   0.1666667   0.3333333   0.0580544), wk =   0.0049383
        k(  333) = (   0.1666667   0.3333333   0.1161088), wk =   0.0049383
        k(  334) = (   0.1666667   0.3333333   0.1741632), wk =   0.0049383
        k(  335) = (   0.1666667   0.3333333   0.2322176), wk =   0.0049383
        k(  336) = (   0.1666667   0.3333333   0.2902720), wk =   0.0049383
        k(  337) = (   0.1666667   0.3333333   0.3483265), wk =   0.0049383
        k(  338) = (   0.1666667   0.3333333   0.4063809), wk =   0.0049383
        k(  339) = (   0.1666667   0.3333333   0.4644353), wk =   0.0049383
        k(  340) = (   0.1666667   0.3333333   0.5224897), wk =   0.0049383
        k(  341) = (   0.1666667   0.3333333  -0.5805441), wk =   0.0024691
        k(  342) = (   0.1666667   0.3888889   0.0000000), wk =   0.0024691
        k(  343) = (   0.1666667   0.3888889   0.0580544), wk =   0.0049383
        k(  344) = (   0.1666667   0.3888889   0.1161088), wk =   0.0049383
        k(  345) = (   0.1666667   0.3888889   0.1741632), wk =   0.0049383
        k(  346) = (   0.1666667   0.3888889   0.2322176), wk =   0.0049383
        k(  347) = (   0.1666667   0.3888889   0.2902720), wk =   0.0049383
        k(  348) = (   0.1666667   0.3888889   0.3483265), wk =   0.0049383
        k(  349) = (   0.1666667   0.3888889   0.4063809), wk =   0.0049383
        k(  350) = (   0.1666667   0.3888889   0.4644353), wk =   0.0049383
        k(  351) = (   0.1666667   0.3888889   0.5224897), wk =   0.0049383
        k(  352) = (   0.1666667   0.3888889  -0.5805441), wk =   0.0024691
        k(  353) = (   0.1666667   0.4444444   0.0000000), wk =   0.0024691
        k(  354) = (   0.1666667   0.4444444   0.0580544), wk =   0.0049383
        k(  355) = (   0.1666667   0.4444444   0.1161088), wk =   0.0049383
        k(  356) = (   0.1666667   0.4444444   0.1741632), wk =   0.0049383
        k(  357) = (   0.1666667   0.4444444   0.2322176), wk =   0.0049383
        k(  358) = (   0.1666667   0.4444444   0.2902720), wk =   0.0049383
        k(  359) = (   0.1666667   0.4444444   0.3483265), wk =   0.0049383
        k(  360) = (   0.1666667   0.4444444   0.4063809), wk =   0.0049383
        k(  361) = (   0.1666667   0.4444444   0.4644353), wk =   0.0049383
        k(  362) = (   0.1666667   0.4444444   0.5224897), wk =   0.0049383
        k(  363) = (   0.1666667   0.4444444  -0.5805441), wk =   0.0024691
        k(  364) = (   0.1666667  -0.5000000   0.0000000), wk =   0.0012346
        k(  365) = (   0.1666667  -0.5000000   0.0580544), wk =   0.0024691
        k(  366) = (   0.1666667  -0.5000000   0.1161088), wk =   0.0024691
        k(  367) = (   0.1666667  -0.5000000   0.1741632), wk =   0.0024691
        k(  368) = (   0.1666667  -0.5000000   0.2322176), wk =   0.0024691
        k(  369) = (   0.1666667  -0.5000000   0.2902720), wk =   0.0024691
        k(  370) = (   0.1666667  -0.5000000   0.3483265), wk =   0.0024691
        k(  371) = (   0.1666667  -0.5000000   0.4063809), wk =   0.0024691
        k(  372) = (   0.1666667  -0.5000000   0.4644353), wk =   0.0024691
        k(  373) = (   0.1666667  -0.5000000   0.5224897), wk =   0.0024691
        k(  374) = (   0.1666667  -0.5000000  -0.5805441), wk =   0.0012346
        k(  375) = (   0.2222222   0.2222222   0.0000000), wk =   0.0012346
        k(  376) = (   0.2222222   0.2222222   0.0580544), wk =   0.0024691
        k(  377) = (   0.2222222   0.2222222   0.1161088), wk =   0.0024691
        k(  378) = (   0.2222222   0.2222222   0.1741632), wk =   0.0024691
        k(  379) = (   0.2222222   0.2222222   0.2322176), wk =   0.0024691
        k(  380) = (   0.2222222   0.2222222   0.2902720), wk =   0.0024691
        k(  381) = (   0.2222222   0.2222222   0.3483265), wk =   0.0024691
        k(  382) = (   0.2222222   0.2222222   0.4063809), wk =   0.0024691
        k(  383) = (   0.2222222   0.2222222   0.4644353), wk =   0.0024691
        k(  384) = (   0.2222222   0.2222222   0.5224897), wk =   0.0024691
        k(  385) = (   0.2222222   0.2222222  -0.5805441), wk =   0.0012346
        k(  386) = (   0.2222222   0.2777778   0.0000000), wk =   0.0024691
        k(  387) = (   0.2222222   0.2777778   0.0580544), wk =   0.0049383
        k(  388) = (   0.2222222   0.2777778   0.1161088), wk =   0.0049383
        k(  389) = (   0.2222222   0.2777778   0.1741632), wk =   0.0049383
        k(  390) = (   0.2222222   0.2777778   0.2322176), wk =   0.0049383
        k(  391) = (   0.2222222   0.2777778   0.2902720), wk =   0.0049383
        k(  392) = (   0.2222222   0.2777778   0.3483265), wk =   0.0049383
        k(  393) = (   0.2222222   0.2777778   0.4063809), wk =   0.0049383
        k(  394) = (   0.2222222   0.2777778   0.4644353), wk =   0.0049383
        k(  395) = (   0.2222222   0.2777778   0.5224897), wk =   0.0049383
        k(  396) = (   0.2222222   0.2777778  -0.5805441), wk =   0.0024691
        k(  397) = (   0.2222222   0.3333333   0.0000000), wk =   0.0024691
        k(  398) = (   0.2222222   0.3333333   0.0580544), wk =   0.0049383
        k(  399) = (   0.2222222   0.3333333   0.1161088), wk =   0.0049383
        k(  400) = (   0.2222222   0.3333333   0.1741632), wk =   0.0049383
        k(  401) = (   0.2222222   0.3333333   0.2322176), wk =   0.0049383
        k(  402) = (   0.2222222   0.3333333   0.2902720), wk =   0.0049383
        k(  403) = (   0.2222222   0.3333333   0.3483265), wk =   0.0049383
        k(  404) = (   0.2222222   0.3333333   0.4063809), wk =   0.0049383
        k(  405) = (   0.2222222   0.3333333   0.4644353), wk =   0.0049383
        k(  406) = (   0.2222222   0.3333333   0.5224897), wk =   0.0049383
        k(  407) = (   0.2222222   0.3333333  -0.5805441), wk =   0.0024691
        k(  408) = (   0.2222222   0.3888889   0.0000000), wk =   0.0024691
        k(  409) = (   0.2222222   0.3888889   0.0580544), wk =   0.0049383
        k(  410) = (   0.2222222   0.3888889   0.1161088), wk =   0.0049383
        k(  411) = (   0.2222222   0.3888889   0.1741632), wk =   0.0049383
        k(  412) = (   0.2222222   0.3888889   0.2322176), wk =   0.0049383
        k(  413) = (   0.2222222   0.3888889   0.2902720), wk =   0.0049383
        k(  414) = (   0.2222222   0.3888889   0.3483265), wk =   0.0049383
        k(  415) = (   0.2222222   0.3888889   0.4063809), wk =   0.0049383
        k(  416) = (   0.2222222   0.3888889   0.4644353), wk =   0.0049383
        k(  417) = (   0.2222222   0.3888889   0.5224897), wk =   0.0049383
        k(  418) = (   0.2222222   0.3888889  -0.5805441), wk =   0.0024691
        k(  419) = (   0.2222222   0.4444444   0.0000000), wk =   0.0024691
        k(  420) = (   0.2222222   0.4444444   0.0580544), wk =   0.0049383
        k(  421) = (   0.2222222   0.4444444   0.1161088), wk =   0.0049383
        k(  422) = (   0.2222222   0.4444444   0.1741632), wk =   0.0049383
        k(  423) = (   0.2222222   0.4444444   0.2322176), wk =   0.0049383
        k(  424) = (   0.2222222   0.4444444   0.2902720), wk =   0.0049383
        k(  425) = (   0.2222222   0.4444444   0.3483265), wk =   0.0049383
        k(  426) = (   0.2222222   0.4444444   0.4063809), wk =   0.0049383
        k(  427) = (   0.2222222   0.4444444   0.4644353), wk =   0.0049383
        k(  428) = (   0.2222222   0.4444444   0.5224897), wk =   0.0049383
        k(  429) = (   0.2222222   0.4444444  -0.5805441), wk =   0.0024691
        k(  430) = (   0.2222222  -0.5000000   0.0000000), wk =   0.0012346
        k(  431) = (   0.2222222  -0.5000000   0.0580544), wk =   0.0024691
        k(  432) = (   0.2222222  -0.5000000   0.1161088), wk =   0.0024691
        k(  433) = (   0.2222222  -0.5000000   0.1741632), wk =   0.0024691
        k(  434) = (   0.2222222  -0.5000000   0.2322176), wk =   0.0024691
        k(  435) = (   0.2222222  -0.5000000   0.2902720), wk =   0.0024691
        k(  436) = (   0.2222222  -0.5000000   0.3483265), wk =   0.0024691
        k(  437) = (   0.2222222  -0.5000000   0.4063809), wk =   0.0024691
        k(  438) = (   0.2222222  -0.5000000   0.4644353), wk =   0.0024691
        k(  439) = (   0.2222222  -0.5000000   0.5224897), wk =   0.0024691
        k(  440) = (   0.2222222  -0.5000000  -0.5805441), wk =   0.0012346
        k(  441) = (   0.2777778   0.2777778   0.0000000), wk =   0.0012346
        k(  442) = (   0.2777778   0.2777778   0.0580544), wk =   0.0024691
        k(  443) = (   0.2777778   0.2777778   0.1161088), wk =   0.0024691
        k(  444) = (   0.2777778   0.2777778   0.1741632), wk =   0.0024691
        k(  445) = (   0.2777778   0.2777778   0.2322176), wk =   0.0024691
        k(  446) = (   0.2777778   0.2777778   0.2902720), wk =   0.0024691
        k(  447) = (   0.2777778   0.2777778   0.3483265), wk =   0.0024691
        k(  448) = (   0.2777778   0.2777778   0.4063809), wk =   0.0024691
        k(  449) = (   0.2777778   0.2777778   0.4644353), wk =   0.0024691
        k(  450) = (   0.2777778   0.2777778   0.5224897), wk =   0.0024691
        k(  451) = (   0.2777778   0.2777778  -0.5805441), wk =   0.0012346
        k(  452) = (   0.2777778   0.3333333   0.0000000), wk =   0.0024691
        k(  453) = (   0.2777778   0.3333333   0.0580544), wk =   0.0049383
        k(  454) = (   0.2777778   0.3333333   0.1161088), wk =   0.0049383
        k(  455) = (   0.2777778   0.3333333   0.1741632), wk =   0.0049383
        k(  456) = (   0.2777778   0.3333333   0.2322176), wk =   0.0049383
        k(  457) = (   0.2777778   0.3333333   0.2902720), wk =   0.0049383
        k(  458) = (   0.2777778   0.3333333   0.3483265), wk =   0.0049383
        k(  459) = (   0.2777778   0.3333333   0.4063809), wk =   0.0049383
        k(  460) = (   0.2777778   0.3333333   0.4644353), wk =   0.0049383
        k(  461) = (   0.2777778   0.3333333   0.5224897), wk =   0.0049383
        k(  462) = (   0.2777778   0.3333333  -0.5805441), wk =   0.0024691
        k(  463) = (   0.2777778   0.3888889   0.0000000), wk =   0.0024691
        k(  464) = (   0.2777778   0.3888889   0.0580544), wk =   0.0049383
        k(  465) = (   0.2777778   0.3888889   0.1161088), wk =   0.0049383
        k(  466) = (   0.2777778   0.3888889   0.1741632), wk =   0.0049383
        k(  467) = (   0.2777778   0.3888889   0.2322176), wk =   0.0049383
        k(  468) = (   0.2777778   0.3888889   0.2902720), wk =   0.0049383
        k(  469) = (   0.2777778   0.3888889   0.3483265), wk =   0.0049383
        k(  470) = (   0.2777778   0.3888889   0.4063809), wk =   0.0049383
        k(  471) = (   0.2777778   0.3888889   0.4644353), wk =   0.0049383
        k(  472) = (   0.2777778   0.3888889   0.5224897), wk =   0.0049383
        k(  473) = (   0.2777778   0.3888889  -0.5805441), wk =   0.0024691
        k(  474) = (   0.2777778   0.4444444   0.0000000), wk =   0.0024691
        k(  475) = (   0.2777778   0.4444444   0.0580544), wk =   0.0049383
        k(  476) = (   0.2777778   0.4444444   0.1161088), wk =   0.0049383
        k(  477) = (   0.2777778   0.4444444   0.1741632), wk =   0.0049383
        k(  478) = (   0.2777778   0.4444444   0.2322176), wk =   0.0049383
        k(  479) = (   0.2777778   0.4444444   0.2902720), wk =   0.0049383
        k(  480) = (   0.2777778   0.4444444   0.3483265), wk =   0.0049383
        k(  481) = (   0.2777778   0.4444444   0.4063809), wk =   0.0049383
        k(  482) = (   0.2777778   0.4444444   0.4644353), wk =   0.0049383
        k(  483) = (   0.2777778   0.4444444   0.5224897), wk =   0.0049383
        k(  484) = (   0.2777778   0.4444444  -0.5805441), wk =   0.0024691
        k(  485) = (   0.2777778  -0.5000000   0.0000000), wk =   0.0012346
        k(  486) = (   0.2777778  -0.5000000   0.0580544), wk =   0.0024691
        k(  487) = (   0.2777778  -0.5000000   0.1161088), wk =   0.0024691
        k(  488) = (   0.2777778  -0.5000000   0.1741632), wk =   0.0024691
        k(  489) = (   0.2777778  -0.5000000   0.2322176), wk =   0.0024691
        k(  490) = (   0.2777778  -0.5000000   0.2902720), wk =   0.0024691
        k(  491) = (   0.2777778  -0.5000000   0.3483265), wk =   0.0024691
        k(  492) = (   0.2777778  -0.5000000   0.4063809), wk =   0.0024691
        k(  493) = (   0.2777778  -0.5000000   0.4644353), wk =   0.0024691
        k(  494) = (   0.2777778  -0.5000000   0.5224897), wk =   0.0024691
        k(  495) = (   0.2777778  -0.5000000  -0.5805441), wk =   0.0012346
        k(  496) = (   0.3333333   0.3333333   0.0000000), wk =   0.0012346
        k(  497) = (   0.3333333   0.3333333   0.0580544), wk =   0.0024691
        k(  498) = (   0.3333333   0.3333333   0.1161088), wk =   0.0024691
        k(  499) = (   0.3333333   0.3333333   0.1741632), wk =   0.0024691
        k(  500) = (   0.3333333   0.3333333   0.2322176), wk =   0.0024691
        k(  501) = (   0.3333333   0.3333333   0.2902720), wk =   0.0024691
        k(  502) = (   0.3333333   0.3333333   0.3483265), wk =   0.0024691
        k(  503) = (   0.3333333   0.3333333   0.4063809), wk =   0.0024691
        k(  504) = (   0.3333333   0.3333333   0.4644353), wk =   0.0024691
        k(  505) = (   0.3333333   0.3333333   0.5224897), wk =   0.0024691
        k(  506) = (   0.3333333   0.3333333  -0.5805441), wk =   0.0012346
        k(  507) = (   0.3333333   0.3888889   0.0000000), wk =   0.0024691
        k(  508) = (   0.3333333   0.3888889   0.0580544), wk =   0.0049383
        k(  509) = (   0.3333333   0.3888889   0.1161088), wk =   0.0049383
        k(  510) = (   0.3333333   0.3888889   0.1741632), wk =   0.0049383
        k(  511) = (   0.3333333   0.3888889   0.2322176), wk =   0.0049383
        k(  512) = (   0.3333333   0.3888889   0.2902720), wk =   0.0049383
        k(  513) = (   0.3333333   0.3888889   0.3483265), wk =   0.0049383
        k(  514) = (   0.3333333   0.3888889   0.4063809), wk =   0.0049383
        k(  515) = (   0.3333333   0.3888889   0.4644353), wk =   0.0049383
        k(  516) = (   0.3333333   0.3888889   0.5224897), wk =   0.0049383
        k(  517) = (   0.3333333   0.3888889  -0.5805441), wk =   0.0024691
        k(  518) = (   0.3333333   0.4444444   0.0000000), wk =   0.0024691
        k(  519) = (   0.3333333   0.4444444   0.0580544), wk =   0.0049383
        k(  520) = (   0.3333333   0.4444444   0.1161088), wk =   0.0049383
        k(  521) = (   0.3333333   0.4444444   0.1741632), wk =   0.0049383
        k(  522) = (   0.3333333   0.4444444   0.2322176), wk =   0.0049383
        k(  523) = (   0.3333333   0.4444444   0.2902720), wk =   0.0049383
        k(  524) = (   0.3333333   0.4444444   0.3483265), wk =   0.0049383
        k(  525) = (   0.3333333   0.4444444   0.4063809), wk =   0.0049383
        k(  526) = (   0.3333333   0.4444444   0.4644353), wk =   0.0049383
        k(  527) = (   0.3333333   0.4444444   0.5224897), wk =   0.0049383
        k(  528) = (   0.3333333   0.4444444  -0.5805441), wk =   0.0024691
        k(  529) = (   0.3333333  -0.5000000   0.0000000), wk =   0.0012346
        k(  530) = (   0.3333333  -0.5000000   0.0580544), wk =   0.0024691
        k(  531) = (   0.3333333  -0.5000000   0.1161088), wk =   0.0024691
        k(  532) = (   0.3333333  -0.5000000   0.1741632), wk =   0.0024691
        k(  533) = (   0.3333333  -0.5000000   0.2322176), wk =   0.0024691
        k(  534) = (   0.3333333  -0.5000000   0.2902720), wk =   0.0024691
        k(  535) = (   0.3333333  -0.5000000   0.3483265), wk =   0.0024691
        k(  536) = (   0.3333333  -0.5000000   0.4063809), wk =   0.0024691
        k(  537) = (   0.3333333  -0.5000000   0.4644353), wk =   0.0024691
        k(  538) = (   0.3333333  -0.5000000   0.5224897), wk =   0.0024691
        k(  539) = (   0.3333333  -0.5000000  -0.5805441), wk =   0.0012346
        k(  540) = (   0.3888889   0.3888889   0.0000000), wk =   0.0012346
        k(  541) = (   0.3888889   0.3888889   0.0580544), wk =   0.0024691
        k(  542) = (   0.3888889   0.3888889   0.1161088), wk =   0.0024691
        k(  543) = (   0.3888889   0.3888889   0.1741632), wk =   0.0024691
        k(  544) = (   0.3888889   0.3888889   0.2322176), wk =   0.0024691
        k(  545) = (   0.3888889   0.3888889   0.2902720), wk =   0.0024691
        k(  546) = (   0.3888889   0.3888889   0.3483265), wk =   0.0024691
        k(  547) = (   0.3888889   0.3888889   0.4063809), wk =   0.0024691
        k(  548) = (   0.3888889   0.3888889   0.4644353), wk =   0.0024691
        k(  549) = (   0.3888889   0.3888889   0.5224897), wk =   0.0024691
        k(  550) = (   0.3888889   0.3888889  -0.5805441), wk =   0.0012346
        k(  551) = (   0.3888889   0.4444444   0.0000000), wk =   0.0024691
        k(  552) = (   0.3888889   0.4444444   0.0580544), wk =   0.0049383
        k(  553) = (   0.3888889   0.4444444   0.1161088), wk =   0.0049383
        k(  554) = (   0.3888889   0.4444444   0.1741632), wk =   0.0049383
        k(  555) = (   0.3888889   0.4444444   0.2322176), wk =   0.0049383
        k(  556) = (   0.3888889   0.4444444   0.2902720), wk =   0.0049383
        k(  557) = (   0.3888889   0.4444444   0.3483265), wk =   0.0049383
        k(  558) = (   0.3888889   0.4444444   0.4063809), wk =   0.0049383
        k(  559) = (   0.3888889   0.4444444   0.4644353), wk =   0.0049383
        k(  560) = (   0.3888889   0.4444444   0.5224897), wk =   0.0049383
        k(  561) = (   0.3888889   0.4444444  -0.5805441), wk =   0.0024691
        k(  562) = (   0.3888889  -0.5000000   0.0000000), wk =   0.0012346
        k(  563) = (   0.3888889  -0.5000000   0.0580544), wk =   0.0024691
        k(  564) = (   0.3888889  -0.5000000   0.1161088), wk =   0.0024691
        k(  565) = (   0.3888889  -0.5000000   0.1741632), wk =   0.0024691
        k(  566) = (   0.3888889  -0.5000000   0.2322176), wk =   0.0024691
        k(  567) = (   0.3888889  -0.5000000   0.2902720), wk =   0.0024691
        k(  568) = (   0.3888889  -0.5000000   0.3483265), wk =   0.0024691
        k(  569) = (   0.3888889  -0.5000000   0.4063809), wk =   0.0024691
        k(  570) = (   0.3888889  -0.5000000   0.4644353), wk =   0.0024691
        k(  571) = (   0.3888889  -0.5000000   0.5224897), wk =   0.0024691
        k(  572) = (   0.3888889  -0.5000000  -0.5805441), wk =   0.0012346
        k(  573) = (   0.4444444   0.4444444   0.0000000), wk =   0.0012346
        k(  574) = (   0.4444444   0.4444444   0.0580544), wk =   0.0024691
        k(  575) = (   0.4444444   0.4444444   0.1161088), wk =   0.0024691
        k(  576) = (   0.4444444   0.4444444   0.1741632), wk =   0.0024691
        k(  577) = (   0.4444444   0.4444444   0.2322176), wk =   0.0024691
        k(  578) = (   0.4444444   0.4444444   0.2902720), wk =   0.0024691
        k(  579) = (   0.4444444   0.4444444   0.3483265), wk =   0.0024691
        k(  580) = (   0.4444444   0.4444444   0.4063809), wk =   0.0024691
        k(  581) = (   0.4444444   0.4444444   0.4644353), wk =   0.0024691
        k(  582) = (   0.4444444   0.4444444   0.5224897), wk =   0.0024691
        k(  583) = (   0.4444444   0.4444444  -0.5805441), wk =   0.0012346
        k(  584) = (   0.4444444  -0.5000000   0.0000000), wk =   0.0012346
        k(  585) = (   0.4444444  -0.5000000   0.0580544), wk =   0.0024691
        k(  586) = (   0.4444444  -0.5000000   0.1161088), wk =   0.0024691
        k(  587) = (   0.4444444  -0.5000000   0.1741632), wk =   0.0024691
        k(  588) = (   0.4444444  -0.5000000   0.2322176), wk =   0.0024691
        k(  589) = (   0.4444444  -0.5000000   0.2902720), wk =   0.0024691
        k(  590) = (   0.4444444  -0.5000000   0.3483265), wk =   0.0024691
        k(  591) = (   0.4444444  -0.5000000   0.4063809), wk =   0.0024691
        k(  592) = (   0.4444444  -0.5000000   0.4644353), wk =   0.0024691
        k(  593) = (   0.4444444  -0.5000000   0.5224897), wk =   0.0024691
        k(  594) = (   0.4444444  -0.5000000  -0.5805441), wk =   0.0012346
        k(  595) = (  -0.5000000  -0.5000000   0.0000000), wk =   0.0003086
        k(  596) = (  -0.5000000  -0.5000000   0.0580544), wk =   0.0006173
        k(  597) = (  -0.5000000  -0.5000000   0.1161088), wk =   0.0006173
        k(  598) = (  -0.5000000  -0.5000000   0.1741632), wk =   0.0006173
        k(  599) = (  -0.5000000  -0.5000000   0.2322176), wk =   0.0006173
        k(  600) = (  -0.5000000  -0.5000000   0.2902720), wk =   0.0006173
        k(  601) = (  -0.5000000  -0.5000000   0.3483265), wk =   0.0006173
        k(  602) = (  -0.5000000  -0.5000000   0.4063809), wk =   0.0006173
        k(  603) = (  -0.5000000  -0.5000000   0.4644353), wk =   0.0006173
        k(  604) = (  -0.5000000  -0.5000000   0.5224897), wk =   0.0006173
        k(  605) = (  -0.5000000  -0.5000000  -0.5805441), wk =   0.0003086

                       cryst. coord.
        k(    1) = (   0.0000000   0.0000000   0.0000000), wk =   0.0003086
        k(    2) = (   0.0000000   0.0000000   0.0500000), wk =   0.0006173
        k(    3) = (   0.0000000   0.0000000   0.1000000), wk =   0.0006173
        k(    4) = (   0.0000000   0.0000000   0.1500000), wk =   0.0006173
        k(    5) = (   0.0000000   0.0000000   0.2000000), wk =   0.0006173
        k(    6) = (   0.0000000   0.0000000   0.2500000), wk =   0.0006173
        k(    7) = (   0.0000000   0.0000000   0.3000000), wk =   0.0006173
        k(    8) = (   0.0000000   0.0000000   0.3500000), wk =   0.0006173
        k(    9) = (   0.0000000   0.0000000   0.4000000), wk =   0.0006173
        k(   10) = (   0.0000000   0.0000000   0.4500000), wk =   0.0006173
        k(   11) = (   0.0000000   0.0000000  -0.5000000), wk =   0.0003086
        k(   12) = (   0.0000000   0.0555556   0.0000000), wk =   0.0012346
        k(   13) = (   0.0000000   0.0555556   0.0500000), wk =   0.0024691
        k(   14) = (   0.0000000   0.0555556   0.1000000), wk =   0.0024691
        k(   15) = (   0.0000000   0.0555556   0.1500000), wk =   0.0024691
        k(   16) = (   0.0000000   0.0555556   0.2000000), wk =   0.0024691
        k(   17) = (   0.0000000   0.0555556   0.2500000), wk =   0.0024691
        k(   18) = (   0.0000000   0.0555556   0.3000000), wk =   0.0024691
        k(   19) = (   0.0000000   0.0555556   0.3500000), wk =   0.0024691
        k(   20) = (   0.0000000   0.0555556   0.4000000), wk =   0.0024691
        k(   21) = (   0.0000000   0.0555556   0.4500000), wk =   0.0024691
        k(   22) = (   0.0000000   0.0555556  -0.5000000), wk =   0.0012346
        k(   23) = (   0.0000000   0.1111111   0.0000000), wk =   0.0012346
        k(   24) = (   0.0000000   0.1111111   0.0500000), wk =   0.0024691
        k(   25) = (   0.0000000   0.1111111   0.1000000), wk =   0.0024691
        k(   26) = (   0.0000000   0.1111111   0.1500000), wk =   0.0024691
        k(   27) = (   0.0000000   0.1111111   0.2000000), wk =   0.0024691
        k(   28) = (   0.0000000   0.1111111   0.2500000), wk =   0.0024691
        k(   29) = (   0.0000000   0.1111111   0.3000000), wk =   0.0024691
        k(   30) = (   0.0000000   0.1111111   0.3500000), wk =   0.0024691
        k(   31) = (   0.0000000   0.1111111   0.4000000), wk =   0.0024691
        k(   32) = (   0.0000000   0.1111111   0.4500000), wk =   0.0024691
        k(   33) = (   0.0000000   0.1111111  -0.5000000), wk =   0.0012346
        k(   34) = (   0.0000000   0.1666667   0.0000000), wk =   0.0012346
        k(   35) = (   0.0000000   0.1666667   0.0500000), wk =   0.0024691
        k(   36) = (   0.0000000   0.1666667   0.1000000), wk =   0.0024691
        k(   37) = (   0.0000000   0.1666667   0.1500000), wk =   0.0024691
        k(   38) = (   0.0000000   0.1666667   0.2000000), wk =   0.0024691
        k(   39) = (   0.0000000   0.1666667   0.2500000), wk =   0.0024691
        k(   40) = (   0.0000000   0.1666667   0.3000000), wk =   0.0024691
        k(   41) = (   0.0000000   0.1666667   0.3500000), wk =   0.0024691
        k(   42) = (   0.0000000   0.1666667   0.4000000), wk =   0.0024691
        k(   43) = (   0.0000000   0.1666667   0.4500000), wk =   0.0024691
        k(   44) = (   0.0000000   0.1666667  -0.5000000), wk =   0.0012346
        k(   45) = (   0.0000000   0.2222222   0.0000000), wk =   0.0012346
        k(   46) = (   0.0000000   0.2222222   0.0500000), wk =   0.0024691
        k(   47) = (   0.0000000   0.2222222   0.1000000), wk =   0.0024691
        k(   48) = (   0.0000000   0.2222222   0.1500000), wk =   0.0024691
        k(   49) = (   0.0000000   0.2222222   0.2000000), wk =   0.0024691
        k(   50) = (   0.0000000   0.2222222   0.2500000), wk =   0.0024691
        k(   51) = (   0.0000000   0.2222222   0.3000000), wk =   0.0024691
        k(   52) = (   0.0000000   0.2222222   0.3500000), wk =   0.0024691
        k(   53) = (   0.0000000   0.2222222   0.4000000), wk =   0.0024691
        k(   54) = (   0.0000000   0.2222222   0.4500000), wk =   0.0024691
        k(   55) = (   0.0000000   0.2222222  -0.5000000), wk =   0.0012346
        k(   56) = (   0.0000000   0.2777778   0.0000000), wk =   0.0012346
        k(   57) = (   0.0000000   0.2777778   0.0500000), wk =   0.0024691
        k(   58) = (   0.0000000   0.2777778   0.1000000), wk =   0.0024691
        k(   59) = (   0.0000000   0.2777778   0.1500000), wk =   0.0024691
        k(   60) = (   0.0000000   0.2777778   0.2000000), wk =   0.0024691
        k(   61) = (   0.0000000   0.2777778   0.2500000), wk =   0.0024691
        k(   62) = (   0.0000000   0.2777778   0.3000000), wk =   0.0024691
        k(   63) = (   0.0000000   0.2777778   0.3500000), wk =   0.0024691
        k(   64) = (   0.0000000   0.2777778   0.4000000), wk =   0.0024691
        k(   65) = (   0.0000000   0.2777778   0.4500000), wk =   0.0024691
        k(   66) = (   0.0000000   0.2777778  -0.5000000), wk =   0.0012346
        k(   67) = (   0.0000000   0.3333333   0.0000000), wk =   0.0012346
        k(   68) = (   0.0000000   0.3333333   0.0500000), wk =   0.0024691
        k(   69) = (   0.0000000   0.3333333   0.1000000), wk =   0.0024691
        k(   70) = (   0.0000000   0.3333333   0.1500000), wk =   0.0024691
        k(   71) = (   0.0000000   0.3333333   0.2000000), wk =   0.0024691
        k(   72) = (   0.0000000   0.3333333   0.2500000), wk =   0.0024691
        k(   73) = (   0.0000000   0.3333333   0.3000000), wk =   0.0024691
        k(   74) = (   0.0000000   0.3333333   0.3500000), wk =   0.0024691
        k(   75) = (   0.0000000   0.3333333   0.4000000), wk =   0.0024691
        k(   76) = (   0.0000000   0.3333333   0.4500000), wk =   0.0024691
        k(   77) = (   0.0000000   0.3333333  -0.5000000), wk =   0.0012346
        k(   78) = (   0.0000000   0.3888889   0.0000000), wk =   0.0012346
        k(   79) = (   0.0000000   0.3888889   0.0500000), wk =   0.0024691
        k(   80) = (   0.0000000   0.3888889   0.1000000), wk =   0.0024691
        k(   81) = (   0.0000000   0.3888889   0.1500000), wk =   0.0024691
        k(   82) = (   0.0000000   0.3888889   0.2000000), wk =   0.0024691
        k(   83) = (   0.0000000   0.3888889   0.2500000), wk =   0.0024691
        k(   84) = (   0.0000000   0.3888889   0.3000000), wk =   0.0024691
        k(   85) = (   0.0000000   0.3888889   0.3500000), wk =   0.0024691
        k(   86) = (   0.0000000   0.3888889   0.4000000), wk =   0.0024691
        k(   87) = (   0.0000000   0.3888889   0.4500000), wk =   0.0024691
        k(   88) = (   0.0000000   0.3888889  -0.5000000), wk =   0.0012346
        k(   89) = (   0.0000000   0.4444444   0.0000000), wk =   0.0012346
        k(   90) = (   0.0000000   0.4444444   0.0500000), wk =   0.0024691
        k(   91) = (   0.0000000   0.4444444   0.1000000), wk =   0.0024691
        k(   92) = (   0.0000000   0.4444444   0.1500000), wk =   0.0024691
        k(   93) = (   0.0000000   0.4444444   0.2000000), wk =   0.0024691
        k(   94) = (   0.0000000   0.4444444   0.2500000), wk =   0.0024691
        k(   95) = (   0.0000000   0.4444444   0.3000000), wk =   0.0024691
        k(   96) = (   0.0000000   0.4444444   0.3500000), wk =   0.0024691
        k(   97) = (   0.0000000   0.4444444   0.4000000), wk =   0.0024691
        k(   98) = (   0.0000000   0.4444444   0.4500000), wk =   0.0024691
        k(   99) = (   0.0000000   0.4444444  -0.5000000), wk =   0.0012346
        k(  100) = (   0.0000000  -0.5000000   0.0000000), wk =   0.0006173
        k(  101) = (   0.0000000  -0.5000000   0.0500000), wk =   0.0012346
        k(  102) = (   0.0000000  -0.5000000   0.1000000), wk =   0.0012346
        k(  103) = (   0.0000000  -0.5000000   0.1500000), wk =   0.0012346
        k(  104) = (   0.0000000  -0.5000000   0.2000000), wk =   0.0012346
        k(  105) = (   0.0000000  -0.5000000   0.2500000), wk =   0.0012346
        k(  106) = (   0.0000000  -0.5000000   0.3000000), wk =   0.0012346
        k(  107) = (   0.0000000  -0.5000000   0.3500000), wk =   0.0012346
        k(  108) = (   0.0000000  -0.5000000   0.4000000), wk =   0.0012346
        k(  109) = (   0.0000000  -0.5000000   0.4500000), wk =   0.0012346
        k(  110) = (   0.0000000  -0.5000000  -0.5000000), wk =   0.0006173
        k(  111) = (   0.0555556   0.0555556   0.0000000), wk =   0.0012346
        k(  112) = (   0.0555556   0.0555556   0.0500000), wk =   0.0024691
        k(  113) = (   0.0555556   0.0555556   0.1000000), wk =   0.0024691
        k(  114) = (   0.0555556   0.0555556   0.1500000), wk =   0.0024691
        k(  115) = (   0.0555556   0.0555556   0.2000000), wk =   0.0024691
        k(  116) = (   0.0555556   0.0555556   0.2500000), wk =   0.0024691
        k(  117) = (   0.0555556   0.0555556   0.3000000), wk =   0.0024691
        k(  118) = (   0.0555556   0.0555556   0.3500000), wk =   0.0024691
        k(  119) = (   0.0555556   0.0555556   0.4000000), wk =   0.0024691
        k(  120) = (   0.0555556   0.0555556   0.4500000), wk =   0.0024691
        k(  121) = (   0.0555556   0.0555556  -0.5000000), wk =   0.0012346
        k(  122) = (   0.0555556   0.1111111   0.0000000), wk =   0.0024691
        k(  123) = (   0.0555556   0.1111111   0.0500000), wk =   0.0049383
        k(  124) = (   0.0555556   0.1111111   0.1000000), wk =   0.0049383
        k(  125) = (   0.0555556   0.1111111   0.1500000), wk =   0.0049383
        k(  126) = (   0.0555556   0.1111111   0.2000000), wk =   0.0049383
        k(  127) = (   0.0555556   0.1111111   0.2500000), wk =   0.0049383
        k(  128) = (   0.0555556   0.1111111   0.3000000), wk =   0.0049383
        k(  129) = (   0.0555556   0.1111111   0.3500000), wk =   0.0049383
        k(  130) = (   0.0555556   0.1111111   0.4000000), wk =   0.0049383
        k(  131) = (   0.0555556   0.1111111   0.4500000), wk =   0.0049383
        k(  132) = (   0.0555556   0.1111111  -0.5000000), wk =   0.0024691
        k(  133) = (   0.0555556   0.1666667   0.0000000), wk =   0.0024691
        k(  134) = (   0.0555556   0.1666667   0.0500000), wk =   0.0049383
        k(  135) = (   0.0555556   0.1666667   0.1000000), wk =   0.0049383
        k(  136) = (   0.0555556   0.1666667   0.1500000), wk =   0.0049383
        k(  137) = (   0.0555556   0.1666667   0.2000000), wk =   0.0049383
        k(  138) = (   0.0555556   0.1666667   0.2500000), wk =   0.0049383
        k(  139) = (   0.0555556   0.1666667   0.3000000), wk =   0.0049383
        k(  140) = (   0.0555556   0.1666667   0.3500000), wk =   0.0049383
        k(  141) = (   0.0555556   0.1666667   0.4000000), wk =   0.0049383
        k(  142) = (   0.0555556   0.1666667   0.4500000), wk =   0.0049383
        k(  143) = (   0.0555556   0.1666667  -0.5000000), wk =   0.0024691
        k(  144) = (   0.0555556   0.2222222   0.0000000), wk =   0.0024691
        k(  145) = (   0.0555556   0.2222222   0.0500000), wk =   0.0049383
        k(  146) = (   0.0555556   0.2222222   0.1000000), wk =   0.0049383
        k(  147) = (   0.0555556   0.2222222   0.1500000), wk =   0.0049383
        k(  148) = (   0.0555556   0.2222222   0.2000000), wk =   0.0049383
        k(  149) = (   0.0555556   0.2222222   0.2500000), wk =   0.0049383
        k(  150) = (   0.0555556   0.2222222   0.3000000), wk =   0.0049383
        k(  151) = (   0.0555556   0.2222222   0.3500000), wk =   0.0049383
        k(  152) = (   0.0555556   0.2222222   0.4000000), wk =   0.0049383
        k(  153) = (   0.0555556   0.2222222   0.4500000), wk =   0.0049383
        k(  154) = (   0.0555556   0.2222222  -0.5000000), wk =   0.0024691
        k(  155) = (   0.0555556   0.2777778   0.0000000), wk =   0.0024691
        k(  156) = (   0.0555556   0.2777778   0.0500000), wk =   0.0049383
        k(  157) = (   0.0555556   0.2777778   0.1000000), wk =   0.0049383
        k(  158) = (   0.0555556   0.2777778   0.1500000), wk =   0.0049383
        k(  159) = (   0.0555556   0.2777778   0.2000000), wk =   0.0049383
        k(  160) = (   0.0555556   0.2777778   0.2500000), wk =   0.0049383
        k(  161) = (   0.0555556   0.2777778   0.3000000), wk =   0.0049383
        k(  162) = (   0.0555556   0.2777778   0.3500000), wk =   0.0049383
        k(  163) = (   0.0555556   0.2777778   0.4000000), wk =   0.0049383
        k(  164) = (   0.0555556   0.2777778   0.4500000), wk =   0.0049383
        k(  165) = (   0.0555556   0.2777778  -0.5000000), wk =   0.0024691
        k(  166) = (   0.0555556   0.3333333   0.0000000), wk =   0.0024691
        k(  167) = (   0.0555556   0.3333333   0.0500000), wk =   0.0049383
        k(  168) = (   0.0555556   0.3333333   0.1000000), wk =   0.0049383
        k(  169) = (   0.0555556   0.3333333   0.1500000), wk =   0.0049383
        k(  170) = (   0.0555556   0.3333333   0.2000000), wk =   0.0049383
        k(  171) = (   0.0555556   0.3333333   0.2500000), wk =   0.0049383
        k(  172) = (   0.0555556   0.3333333   0.3000000), wk =   0.0049383
        k(  173) = (   0.0555556   0.3333333   0.3500000), wk =   0.0049383
        k(  174) = (   0.0555556   0.3333333   0.4000000), wk =   0.0049383
        k(  175) = (   0.0555556   0.3333333   0.4500000), wk =   0.0049383
        k(  176) = (   0.0555556   0.3333333  -0.5000000), wk =   0.0024691
        k(  177) = (   0.0555556   0.3888889   0.0000000), wk =   0.0024691
        k(  178) = (   0.0555556   0.3888889   0.0500000), wk =   0.0049383
        k(  179) = (   0.0555556   0.3888889   0.1000000), wk =   0.0049383
        k(  180) = (   0.0555556   0.3888889   0.1500000), wk =   0.0049383
        k(  181) = (   0.0555556   0.3888889   0.2000000), wk =   0.0049383
        k(  182) = (   0.0555556   0.3888889   0.2500000), wk =   0.0049383
        k(  183) = (   0.0555556   0.3888889   0.3000000), wk =   0.0049383
        k(  184) = (   0.0555556   0.3888889   0.3500000), wk =   0.0049383
        k(  185) = (   0.0555556   0.3888889   0.4000000), wk =   0.0049383
        k(  186) = (   0.0555556   0.3888889   0.4500000), wk =   0.0049383
        k(  187) = (   0.0555556   0.3888889  -0.5000000), wk =   0.0024691
        k(  188) = (   0.0555556   0.4444444   0.0000000), wk =   0.0024691
        k(  189) = (   0.0555556   0.4444444   0.0500000), wk =   0.0049383
        k(  190) = (   0.0555556   0.4444444   0.1000000), wk =   0.0049383
        k(  191) = (   0.0555556   0.4444444   0.1500000), wk =   0.0049383
        k(  192) = (   0.0555556   0.4444444   0.2000000), wk =   0.0049383
        k(  193) = (   0.0555556   0.4444444   0.2500000), wk =   0.0049383
        k(  194) = (   0.0555556   0.4444444   0.3000000), wk =   0.0049383
        k(  195) = (   0.0555556   0.4444444   0.3500000), wk =   0.0049383
        k(  196) = (   0.0555556   0.4444444   0.4000000), wk =   0.0049383
        k(  197) = (   0.0555556   0.4444444   0.4500000), wk =   0.0049383
        k(  198) = (   0.0555556   0.4444444  -0.5000000), wk =   0.0024691
        k(  199) = (   0.0555556  -0.5000000   0.0000000), wk =   0.0012346
        k(  200) = (   0.0555556  -0.5000000   0.0500000), wk =   0.0024691
        k(  201) = (   0.0555556  -0.5000000   0.1000000), wk =   0.0024691
        k(  202) = (   0.0555556  -0.5000000   0.1500000), wk =   0.0024691
        k(  203) = (   0.0555556  -0.5000000   0.2000000), wk =   0.0024691
        k(  204) = (   0.0555556  -0.5000000   0.2500000), wk =   0.0024691
        k(  205) = (   0.0555556  -0.5000000   0.3000000), wk =   0.0024691
        k(  206) = (   0.0555556  -0.5000000   0.3500000), wk =   0.0024691
        k(  207) = (   0.0555556  -0.5000000   0.4000000), wk =   0.0024691
        k(  208) = (   0.0555556  -0.5000000   0.4500000), wk =   0.0024691
        k(  209) = (   0.0555556  -0.5000000  -0.5000000), wk =   0.0012346
        k(  210) = (   0.1111111   0.1111111   0.0000000), wk =   0.0012346
        k(  211) = (   0.1111111   0.1111111   0.0500000), wk =   0.0024691
        k(  212) = (   0.1111111   0.1111111   0.1000000), wk =   0.0024691
        k(  213) = (   0.1111111   0.1111111   0.1500000), wk =   0.0024691
        k(  214) = (   0.1111111   0.1111111   0.2000000), wk =   0.0024691
        k(  215) = (   0.1111111   0.1111111   0.2500000), wk =   0.0024691
        k(  216) = (   0.1111111   0.1111111   0.3000000), wk =   0.0024691
        k(  217) = (   0.1111111   0.1111111   0.3500000), wk =   0.0024691
        k(  218) = (   0.1111111   0.1111111   0.4000000), wk =   0.0024691
        k(  219) = (   0.1111111   0.1111111   0.4500000), wk =   0.0024691
        k(  220) = (   0.1111111   0.1111111  -0.5000000), wk =   0.0012346
        k(  221) = (   0.1111111   0.1666667   0.0000000), wk =   0.0024691
        k(  222) = (   0.1111111   0.1666667   0.0500000), wk =   0.0049383
        k(  223) = (   0.1111111   0.1666667   0.1000000), wk =   0.0049383
        k(  224) = (   0.1111111   0.1666667   0.1500000), wk =   0.0049383
        k(  225) = (   0.1111111   0.1666667   0.2000000), wk =   0.0049383
        k(  226) = (   0.1111111   0.1666667   0.2500000), wk =   0.0049383
        k(  227) = (   0.1111111   0.1666667   0.3000000), wk =   0.0049383
        k(  228) = (   0.1111111   0.1666667   0.3500000), wk =   0.0049383
        k(  229) = (   0.1111111   0.1666667   0.4000000), wk =   0.0049383
        k(  230) = (   0.1111111   0.1666667   0.4500000), wk =   0.0049383
        k(  231) = (   0.1111111   0.1666667  -0.5000000), wk =   0.0024691
        k(  232) = (   0.1111111   0.2222222   0.0000000), wk =   0.0024691
        k(  233) = (   0.1111111   0.2222222   0.0500000), wk =   0.0049383
        k(  234) = (   0.1111111   0.2222222   0.1000000), wk =   0.0049383
        k(  235) = (   0.1111111   0.2222222   0.1500000), wk =   0.0049383
        k(  236) = (   0.1111111   0.2222222   0.2000000), wk =   0.0049383
        k(  237) = (   0.1111111   0.2222222   0.2500000), wk =   0.0049383
        k(  238) = (   0.1111111   0.2222222   0.3000000), wk =   0.0049383
        k(  239) = (   0.1111111   0.2222222   0.3500000), wk =   0.0049383
        k(  240) = (   0.1111111   0.2222222   0.4000000), wk =   0.0049383
        k(  241) = (   0.1111111   0.2222222   0.4500000), wk =   0.0049383
        k(  242) = (   0.1111111   0.2222222  -0.5000000), wk =   0.0024691
        k(  243) = (   0.1111111   0.2777778   0.0000000), wk =   0.0024691
        k(  244) = (   0.1111111   0.2777778   0.0500000), wk =   0.0049383
        k(  245) = (   0.1111111   0.2777778   0.1000000), wk =   0.0049383
        k(  246) = (   0.1111111   0.2777778   0.1500000), wk =   0.0049383
        k(  247) = (   0.1111111   0.2777778   0.2000000), wk =   0.0049383
        k(  248) = (   0.1111111   0.2777778   0.2500000), wk =   0.0049383
        k(  249) = (   0.1111111   0.2777778   0.3000000), wk =   0.0049383
        k(  250) = (   0.1111111   0.2777778   0.3500000), wk =   0.0049383
        k(  251) = (   0.1111111   0.2777778   0.4000000), wk =   0.0049383
        k(  252) = (   0.1111111   0.2777778   0.4500000), wk =   0.0049383
        k(  253) = (   0.1111111   0.2777778  -0.5000000), wk =   0.0024691
        k(  254) = (   0.1111111   0.3333333   0.0000000), wk =   0.0024691
        k(  255) = (   0.1111111   0.3333333   0.0500000), wk =   0.0049383
        k(  256) = (   0.1111111   0.3333333   0.1000000), wk =   0.0049383
        k(  257) = (   0.1111111   0.3333333   0.1500000), wk =   0.0049383
        k(  258) = (   0.1111111   0.3333333   0.2000000), wk =   0.0049383
        k(  259) = (   0.1111111   0.3333333   0.2500000), wk =   0.0049383
        k(  260) = (   0.1111111   0.3333333   0.3000000), wk =   0.0049383
        k(  261) = (   0.1111111   0.3333333   0.3500000), wk =   0.0049383
        k(  262) = (   0.1111111   0.3333333   0.4000000), wk =   0.0049383
        k(  263) = (   0.1111111   0.3333333   0.4500000), wk =   0.0049383
        k(  264) = (   0.1111111   0.3333333  -0.5000000), wk =   0.0024691
        k(  265) = (   0.1111111   0.3888889   0.0000000), wk =   0.0024691
        k(  266) = (   0.1111111   0.3888889   0.0500000), wk =   0.0049383
        k(  267) = (   0.1111111   0.3888889   0.1000000), wk =   0.0049383
        k(  268) = (   0.1111111   0.3888889   0.1500000), wk =   0.0049383
        k(  269) = (   0.1111111   0.3888889   0.2000000), wk =   0.0049383
        k(  270) = (   0.1111111   0.3888889   0.2500000), wk =   0.0049383
        k(  271) = (   0.1111111   0.3888889   0.3000000), wk =   0.0049383
        k(  272) = (   0.1111111   0.3888889   0.3500000), wk =   0.0049383
        k(  273) = (   0.1111111   0.3888889   0.4000000), wk =   0.0049383
        k(  274) = (   0.1111111   0.3888889   0.4500000), wk =   0.0049383
        k(  275) = (   0.1111111   0.3888889  -0.5000000), wk =   0.0024691
        k(  276) = (   0.1111111   0.4444444   0.0000000), wk =   0.0024691
        k(  277) = (   0.1111111   0.4444444   0.0500000), wk =   0.0049383
        k(  278) = (   0.1111111   0.4444444   0.1000000), wk =   0.0049383
        k(  279) = (   0.1111111   0.4444444   0.1500000), wk =   0.0049383
        k(  280) = (   0.1111111   0.4444444   0.2000000), wk =   0.0049383
        k(  281) = (   0.1111111   0.4444444   0.2500000), wk =   0.0049383
        k(  282) = (   0.1111111   0.4444444   0.3000000), wk =   0.0049383
        k(  283) = (   0.1111111   0.4444444   0.3500000), wk =   0.0049383
        k(  284) = (   0.1111111   0.4444444   0.4000000), wk =   0.0049383
        k(  285) = (   0.1111111   0.4444444   0.4500000), wk =   0.0049383
        k(  286) = (   0.1111111   0.4444444  -0.5000000), wk =   0.0024691
        k(  287) = (   0.1111111  -0.5000000   0.0000000), wk =   0.0012346
        k(  288) = (   0.1111111  -0.5000000   0.0500000), wk =   0.0024691
        k(  289) = (   0.1111111  -0.5000000   0.1000000), wk =   0.0024691
        k(  290) = (   0.1111111  -0.5000000   0.1500000), wk =   0.0024691
        k(  291) = (   0.1111111  -0.5000000   0.2000000), wk =   0.0024691
        k(  292) = (   0.1111111  -0.5000000   0.2500000), wk =   0.0024691
        k(  293) = (   0.1111111  -0.5000000   0.3000000), wk =   0.0024691
        k(  294) = (   0.1111111  -0.5000000   0.3500000), wk =   0.0024691
        k(  295) = (   0.1111111  -0.5000000   0.4000000), wk =   0.0024691
        k(  296) = (   0.1111111  -0.5000000   0.4500000), wk =   0.0024691
        k(  297) = (   0.1111111  -0.5000000  -0.5000000), wk =   0.0012346
        k(  298) = (   0.1666667   0.1666667   0.0000000), wk =   0.0012346
        k(  299) = (   0.1666667   0.1666667   0.0500000), wk =   0.0024691
        k(  300) = (   0.1666667   0.1666667   0.1000000), wk =   0.0024691
        k(  301) = (   0.1666667   0.1666667   0.1500000), wk =   0.0024691
        k(  302) = (   0.1666667   0.1666667   0.2000000), wk =   0.0024691
        k(  303) = (   0.1666667   0.1666667   0.2500000), wk =   0.0024691
[...]
    16.2430  16.2430

     occupation numbers 
     1.0000   1.0000   1.0000   1.0000   1.0000   1.0000   1.0000   0.2292
     0.0000   0.0000

          k = 0.3889 0.3889 0.4064 (   814 PWs)   bands (ev):

     1.4685   3.3973   3.3973   4.7841   5.5852   6.9502   6.9502   8.8176
    16.5852  16.5853

     occupation numbers 
     1.0000   1.0000   1.0000   1.0000   1.0000   1.0000   1.0000   1.0000
     0.0000   0.0000

          k = 0.3889 0.3889 0.4644 (   810 PWs)   bands (ev):

     1.9114   3.8204   3.8204   4.2041   5.8752   6.2516   6.2517   8.1124
    16.9613  16.9614

     occupation numbers 
     1.0000   1.0000   1.0000   1.0000   1.0000   1.0000   1.0000   1.0000
     0.0000   0.0000

          k = 0.3889 0.3889 0.5225 (   814 PWs)   bands (ev):

     2.4105   3.5663   4.2705   4.2705   5.6358   5.6359   6.3330   7.4610
    17.3391  17.3392

     occupation numbers 
     1.0000   1.0000   1.0000   1.0000   1.0000   1.0000   1.0000   1.0000
     0.0000   0.0000

          k = 0.3889 0.3889-0.5805 (   816 PWs)   bands (ev):

     2.9637   2.9637   4.5676   4.5676   5.2834   5.2834   6.8664   6.8664
    17.5530  17.5530

     occupation numbers 
     1.0000   1.0000   1.0000   1.0000   1.0000   1.0000   1.0000   1.0000
     0.0000   0.0000

          k = 0.3889 0.4444 0.0000 (   823 PWs)   bands (ev):

     0.4196   1.4014   2.3755   3.3419  10.9913  11.8898  12.7876  13.2290
    13.6846  14.0356

     occupation numbers 
     1.0000   1.0000   1.0000   1.0000   0.0000   0.0000   0.0000   0.0000
     0.0000   0.0000

          k = 0.3889 0.4444 0.0581 (   819 PWs)   bands (ev):

     0.4495   1.4311   2.4048   3.3708  10.5562  11.4602  12.3668  13.2749
    13.7054  14.4647

     occupation numbers 
     1.0000   1.0000   1.0000   1.0000   0.0000   0.0000   0.0000   0.0000
     0.0000   0.0000

          k = 0.3889 0.4444 0.1161 (   814 PWs)   bands (ev):

     0.5391   1.5199   2.4927   3.4574   9.7145  10.6275  11.5434  12.4617
    14.6657  15.2033

     occupation numbers 
     1.0000   1.0000   1.0000   1.0000   0.0087   0.0000   0.0000   0.0000
     0.0000   0.0000

          k = 0.3889 0.4444 0.1742 (   817 PWs)   bands (ev):

     0.6883   1.6678   2.6390   3.6011   8.8054   9.7252  10.6476  11.5716
    15.6901  15.7365

     occupation numbers 
     1.0000   1.0000   1.0000   1.0000   1.0000   0.0063   0.0000   0.0000
     0.0000   0.0000

          k = 0.3889 0.4444 0.2322 (   806 PWs)   bands (ev):

     0.8969   1.8745   2.8431   3.8008   7.9097   8.8337   9.7607  10.6889
    15.9870  16.5419

     occupation numbers 
     1.0000   1.0000   1.0000   1.0000   1.0000   1.0000   0.0019   0.0000
     0.0000   0.0000

          k = 0.3889 0.4444 0.2903 (   809 PWs)   bands (ev):

     1.1645   2.1394   3.1042   4.0534   7.0539   7.9773   8.9073   9.8389
    16.2668  16.8842

     occupation numbers 
     1.0000   1.0000   1.0000   1.0000   1.0000   1.0000   1.0000   0.0001
     0.0000   0.0000

          k = 0.3889 0.4444 0.3483 (   810 PWs)   bands (ev):

     1.4905   2.4618   3.4204   4.3492   6.2566   7.1672   8.0979   9.0321
    16.5758  17.1925

     occupation numbers 
     1.0000   1.0000   1.0000   1.0000   1.0000   1.0000   1.0000   1.0000
     0.0000   0.0000

          k = 0.3889 0.4444 0.4064 (   811 PWs)   bands (ev):

     1.8744   2.8405   3.7874   4.6335   5.5772   6.4124   7.3383   8.2737
    16.9253  17.5374

     occupation numbers 
     1.0000   1.0000   1.0000   1.0000   1.0000   1.0000   1.0000   1.0000
     0.0000   0.0000

          k = 0.3889 0.4444 0.4644 (   809 PWs)   bands (ev):

     2.3151   3.2730   4.1888   4.5098   5.4144   5.7317   6.6336   7.5673
    17.3161  17.9281

     occupation numbers 
     1.0000   1.0000   1.0000   1.0000   1.0000   1.0000   1.0000   1.0000
     0.0000   0.0000

          k = 0.3889 0.4444 0.5225 (   818 PWs)   bands (ev):

     2.8107   3.7523   3.9449   4.5037   5.2474   5.8027   5.9918   6.9159
    17.7398  18.3650

     occupation numbers 
     1.0000   1.0000   1.0000   1.0000   1.0000   1.0000   1.0000   1.0000
     0.0000   0.0000

          k = 0.3889 0.4444-0.5805 (   820 PWs)   bands (ev):

     3.3577   3.3577   4.2481   4.2481   5.4441   5.4441   6.3240   6.3240
    18.1589  18.1590

     occupation numbers 
     1.0000   1.0000   1.0000   1.0000   1.0000   1.0000   1.0000   1.0000
     0.0000   0.0000

          k = 0.3889-0.5000 0.0000 (   820 PWs)   bands (ev):

     0.8842   0.8843   2.8330   2.8330  11.4156  11.4157  13.2113  13.2114
    13.6350  13.6352

     occupation numbers 
     1.0000   1.0000   1.0000   1.0000   0.0000   0.0000   0.0000   0.0000
     0.0000   0.0000

          k = 0.3889-0.5000 0.0581 (   816 PWs)   bands (ev):

     0.9140   0.9140   2.8621   2.8621  10.9838  10.9839  12.7967  12.7968
    14.0981  14.0982

     occupation numbers 
     1.0000   1.0000   1.0000   1.0000   0.0000   0.0000   0.0000   0.0000
     0.0000   0.0000

          k = 0.3889-0.5000 0.1161 (   816 PWs)   bands (ev):

     1.0033   1.0033   2.9495   2.9495  10.1465  10.1466  11.9785  11.9785
    15.0040  15.0041

     occupation numbers 
     1.0000   1.0000   1.0000   1.0000   0.0000   0.0000   0.0000   0.0000
     0.0000   0.0000

          k = 0.3889-0.5000 0.1742 (   814 PWs)   bands (ev):

     1.1519   1.1519   3.0947   3.0947   9.2403   9.2404  11.0853  11.0853
    15.8474  15.8476

     occupation numbers 
     1.0000   1.0000   1.0000   1.0000   1.0277   1.0278   0.0000   0.0000
     0.0000   0.0000

          k = 0.3889-0.5000 0.2322 (   808 PWs)   bands (ev):

     1.3596   1.3596   3.2970   3.2971   8.3460   8.3460  10.2001  10.2001
    16.2944  16.2944

     occupation numbers 
     1.0000   1.0000   1.0000   1.0000   1.0000   1.0000   0.0000   0.0000
     0.0000   0.0000

          k = 0.3889-0.5000 0.2903 (   806 PWs)   bands (ev):

     1.6260   1.6260   3.5550   3.5551   7.4885   7.4885   9.3481   9.3481
    16.5993  16.5993

     occupation numbers 
     1.0000   1.0000   1.0000   1.0000   1.0000   1.0000   1.0830   1.0830
     0.0000   0.0000

          k = 0.3889-0.5000 0.3483 (   812 PWs)   bands (ev):

     1.9505   1.9505   3.8651   3.8651   6.6807   6.6807   8.5396   8.5396
    16.9135  16.9135

     occupation numbers 
     1.0000   1.0000   1.0000   1.0000   1.0000   1.0000   1.0000   1.0000
     0.0000   0.0000

          k = 0.3889-0.5000 0.4064 (   808 PWs)   bands (ev):

     2.3322   2.3322   4.2147   4.2148   5.9394   5.9395   7.7801   7.7801
    17.2650  17.2651

     occupation numbers 
     1.0000   1.0000   1.0000   1.0000   1.0000   1.0000   1.0000   1.0000
     0.0000   0.0000

          k = 0.3889-0.5000 0.4644 (   814 PWs)   bands (ev):

     2.7696   2.7697   4.5233   4.5234   5.3479   5.3480   7.0736   7.0736
    17.6597  17.6598

     occupation numbers 
     1.0000   1.0000   1.0000   1.0000   1.0000   1.0000   1.0000   1.0000
     0.0000   0.0000

          k = 0.3889-0.5000 0.5225 (   820 PWs)   bands (ev):

     3.2597   3.2598   4.3292   4.3292   5.3689   5.3690   6.4244   6.4244
    18.0967  18.0968

     occupation numbers 
     1.0000   1.0000   1.0000   1.0000   1.0000   1.0000   1.0000   1.0000
     0.0000   0.0000

          k = 0.3889-0.5000-0.5805 (   820 PWs)   bands (ev):

     3.7938   3.7939   3.7940   3.7940   5.8417   5.8417   5.8418   5.8418
    18.5671  18.5672

     occupation numbers 
     1.0000   1.0000   1.0000   1.0000   1.0000   1.0000   1.0000   1.0000
     0.0000   0.0000

          k = 0.4444 0.4444 0.0000 (   820 PWs)   bands (ev):

     0.8298   1.8086   1.8086   2.7797  11.3658  12.2640  12.2641  13.1615
    13.6388  14.5294

     occupation numbers 
     1.0000   1.0000   1.0000   1.0000   0.0000   0.0000   0.0000   0.0000
     0.0000   0.0000

          k = 0.4444 0.4444 0.0581 (   818 PWs)   bands (ev):

     0.8596   1.8381   1.8381   2.8089  10.9353  11.8410  11.8410  12.7484
    14.1128  14.9841

     occupation numbers 
     1.0000   1.0000   1.0000   1.0000   0.0000   0.0000   0.0000   0.0000
     0.0000   0.0000

          k = 0.4444 0.4444 0.1161 (   810 PWs)   bands (ev):

     0.9489   1.9266   1.9266   2.8962  10.0980  11.0132  11.0132  11.9305
    15.0793  15.8825

     occupation numbers 
     1.0000   1.0000   1.0000   1.0000   0.0000   0.0000   0.0000   0.0000
     0.0000   0.0000

          k = 0.4444 0.4444 0.1742 (   812 PWs)   bands (ev):

     1.0976   2.0738   2.0738   3.0415   9.1910  10.1130  10.1130  11.0368
    16.1953  16.7157

     occupation numbers 
     1.0000   1.0000   1.0000   1.0000   1.0094   0.0000   0.0000   0.0000
     0.0000   0.0000

          k = 0.4444 0.4444 0.2322 (   809 PWs)   bands (ev):

     1.3054   2.2795   2.2795   3.2440   8.2958   9.2225   9.2225  10.1509
    17.1397  17.1398

     occupation numbers 
     1.0000   1.0000   1.0000   1.0000   1.0000   1.0194   1.0194   0.0000
     0.0000   0.0000

          k = 0.4444 0.4444 0.2903 (   809 PWs)   bands (ev):

     1.5719   2.5429   2.5429   3.5022   7.4375   8.3664   8.3664   9.2983
    17.4333  17.5983

     occupation numbers 
     1.0000   1.0000   1.0000   1.0000   1.0000   1.0000   1.0000   1.0650
     0.0000   0.0000

          k = 0.4444 0.4444 0.3483 (   811 PWs)   bands (ev):

     1.8965   2.8631   2.8631   3.8124   6.6290   7.5553   7.5553   8.4892
    17.7396  17.8782

     occupation numbers 
     1.0000   1.0000   1.0000   1.0000   1.0000   1.0000   1.0000   1.0000
     0.0000   0.0000

          k = 0.4444 0.4444 0.4064 (   810 PWs)   bands (ev):

     2.2784   3.2378   3.2379   4.1623   5.8872   6.7958   6.7958   7.7292
    18.0815  18.0816

     occupation numbers 
     1.0000   1.0000   1.0000   1.0000   1.0000   1.0000   1.0000   1.0000
     0.0000   0.0000

          k = 0.4444 0.4444 0.4644 (   818 PWs)   bands (ev):

     2.7161   3.6618   3.6618   4.4713   5.2951   6.0957   6.0957   7.0222
    18.4588  18.5893

     occupation numbers 
     1.0000   1.0000   1.0000   1.0000   1.0000   1.0000   1.0000   1.0000
     0.0000   0.0000

          k = 0.4444 0.4444 0.5225 (   820 PWs)   bands (ev):

     3.2065   4.1130   4.1130   4.2768   5.3163   5.4784   5.4784   6.3727
    18.8476  18.8476

     occupation numbers 
     1.0000   1.0000   1.0000   1.0000   1.0000   1.0000   1.0000   1.0000
     0.0000   0.0000

          k = 0.4444 0.4444-0.5805 (   824 PWs)   bands (ev):

     3.7410   3.7410   4.4116   4.4116   5.1243   5.1243   5.7897   5.7897
    19.0844  19.0844

     occupation numbers 
     1.0000   1.0000   1.0000   1.0000   1.0000   1.0000   1.0000   1.0000
     0.0000   0.0000

          k = 0.4444-0.5000 0.0000 (   818 PWs)   bands (ev):

     1.2930   1.2931   2.2682   2.2683  11.7900  11.7901  12.6879  12.6880
    14.0742  14.0743

     occupation numbers 
     1.0000   1.0000   1.0000   1.0000   0.0000   0.0000   0.0000   0.0000
     0.0000   0.0000

          k = 0.4444-0.5000 0.0581 (   814 PWs)   bands (ev):

     1.3227   1.3227   2.2976   2.2976  11.3637  11.3637  12.2704  12.2704
    14.5418  14.5420

     occupation numbers 
     1.0000   1.0000   1.0000   1.0000   0.0000   0.0000   0.0000   0.0000
     0.0000   0.0000

          k = 0.4444-0.5000 0.1161 (   808 PWs)   bands (ev):

     1.4116   1.4117   2.3856   2.3856  10.5311  10.5311  11.4475  11.4476
    15.4931  15.4931

     occupation numbers 
     1.0000   1.0000   1.0000   1.0000   0.0000   0.0000   0.0000   0.0000
     0.0000   0.0000

          k = 0.4444-0.5000 0.1742 (   812 PWs)   bands (ev):

     1.5597   1.5597   2.5320   2.5320   9.6271   9.6272  10.5503  10.5503
    16.5582  16.5583

     occupation numbers 
     1.0000   1.0000   1.0000   1.0000   0.0845   0.0845   0.0000   0.0000
     0.0000   0.0000

          k = 0.4444-0.5000 0.2322 (   810 PWs)   bands (ev):

     1.7665   1.7665   2.7363   2.7364   8.7338   8.7338   9.6618   9.6618
    17.3351  17.3352

     occupation numbers 
     1.0000   1.0000   1.0000   1.0000   1.0000   1.0000   0.0378   0.0377
     0.0000   0.0000

          k = 0.4444-0.5000 0.2903 (   806 PWs)   bands (ev):

     2.0317   2.0317   2.9977   2.9977   7.8759   7.8759   8.8071   8.8071
    17.6577  17.6578

     occupation numbers 
     1.0000   1.0000   1.0000   1.0000   1.0000   1.0000   1.0000   1.0000
     0.0000   0.0000

          k = 0.4444-0.5000 0.3483 (   810 PWs)   bands (ev):

     2.3544   2.3545   3.3143   3.3143   7.0645   7.0646   7.9965   7.9965
    17.9601  17.9601

     occupation numbers 
     1.0000   1.0000   1.0000   1.0000   1.0000   1.0000   1.0000   1.0000
     0.0000   0.0000

          k = 0.4444-0.5000 0.4064 (   816 PWs)   bands (ev):

     2.7335   2.7336   3.6818   3.6818   6.3086   6.3087   7.2359   7.2359
    18.2999  18.3000

     occupation numbers 
     1.0000   1.0000   1.0000   1.0000   1.0000   1.0000   1.0000   1.0000
     0.0000   0.0000

          k = 0.4444-0.5000 0.4644 (   820 PWs)   bands (ev):

     3.1664   3.1665   4.0838   4.0839   5.6268   5.6269   6.5302   6.5302
    18.6830  18.6831

     occupation numbers 
     1.0000   1.0000   1.0000   1.0000   1.0000   1.0000   1.0000   1.0000
     0.0000   0.0000

          k = 0.4444-0.5000 0.5225 (   822 PWs)   bands (ev):

     3.6464   3.6464   4.3996   4.3997   5.1412   5.1413   5.8876   5.8876
    19.1047  19.1049

     occupation numbers 
     1.0000   1.0000   1.0000   1.0000   1.0000   1.0000   1.0000   1.0000
     0.0000   0.0000

          k = 0.4444-0.5000-0.5805 (   820 PWs)   bands (ev):

     4.1431   4.1431   4.1432   4.1433   5.3388   5.3388   5.3389   5.3389
    19.5371  19.5373

     occupation numbers 
     1.0000   1.0000   1.0000   1.0000   1.0000   1.0000   1.0000   1.0000
     0.0000   0.0000

          k =-0.5000-0.5000 0.0000 (   824 PWs)   bands (ev):

     1.7546   1.7546   1.7546   1.7547  12.2141  12.2142  12.2142  12.2143
    14.5318  14.5319

     occupation numbers 
     1.0000   1.0000   1.0000   1.0000   0.0000   0.0000   0.0000   0.0000
     0.0000   0.0000

          k =-0.5000-0.5000 0.0581 (   820 PWs)   bands (ev):

     1.7841   1.7841   1.7841   1.7842  11.7925  11.7926  11.7926  11.7927
    14.9968  14.9969

     occupation numbers 
     1.0000   1.0000   1.0000   1.0000   0.0000   0.0000   0.0000   0.0000
     0.0000   0.0000

          k =-0.5000-0.5000 0.1161 (   808 PWs)   bands (ev):

     1.8727   1.8727   1.8727   1.8727  10.9648  10.9649  10.9649  10.9649
    15.9532  15.9532

     occupation numbers 
     1.0000   1.0000   1.0000   1.0000   0.0000   0.0000   0.0000   0.0000
     0.0000   0.0000

          k =-0.5000-0.5000 0.1742 (   808 PWs)   bands (ev):

     2.0200   2.0200   2.0200   2.0200  10.0640  10.0640  10.0640  10.0641
    17.0617  17.0617

     occupation numbers 
     1.0000   1.0000   1.0000   1.0000   0.0000   0.0000   0.0000   0.0000
     0.0000   0.0000

          k =-0.5000-0.5000 0.2322 (   812 PWs)   bands (ev):

     2.2257   2.2257   2.2257   2.2258   9.1727   9.1727   9.1727   9.1728
    18.1718  18.1719

     occupation numbers 
     1.0000   1.0000   1.0000   1.0000   1.0058   1.0058   1.0058   1.0058
     0.0000   0.0000

          k =-0.5000-0.5000 0.2903 (   820 PWs)   bands (ev):

     2.4893   2.4893   2.4893   2.4893   8.3159   8.3159   8.3159   8.3159
    18.4005  18.4008

     occupation numbers 
     1.0000   1.0000   1.0000   1.0000   1.0000   1.0000   1.0000   1.0000
     0.0000   0.0000

          k =-0.5000-0.5000 0.3483 (   808 PWs)   bands (ev):

     2.8096   2.8096   2.8096   2.8097   7.5042   7.5042   7.5042   7.5042
    18.6793  18.6795

     occupation numbers 
     1.0000   1.0000   1.0000   1.0000   1.0000   1.0000   1.0000   1.0000
     0.0000   0.0000

          k =-0.5000-0.5000 0.4064 (   816 PWs)   bands (ev):

     3.1846   3.1846   3.1846   3.1847   6.7441   6.7441   6.7441   6.7441
    19.0062  19.0064

     occupation numbers 
     1.0000   1.0000   1.0000   1.0000   1.0000   1.0000   1.0000   1.0000
     0.0000   0.0000

          k =-0.5000-0.5000 0.4644 (   816 PWs)   bands (ev):

     3.6088   3.6088   3.6088   3.6089   6.0435   6.0436   6.0436   6.0436
    19.3769  19.3771

     occupation numbers 
     1.0000   1.0000   1.0000   1.0000   1.0000   1.0000   1.0000   1.0000
     0.0000   0.0000

          k =-0.5000-0.5000 0.5225 (   824 PWs)   bands (ev):

     4.0604   4.0605   4.0605   4.0605   5.4257   5.4257   5.4257   5.4258
    19.7716  19.7717

     occupation numbers 
     1.0000   1.0000   1.0000   1.0000   1.0000   1.0000   1.0000   1.0000
     0.0000   0.0000

          k =-0.5000-0.5000-0.5805 (   824 PWs)   bands (ev):

     4.3595   4.3596   4.3596   4.3597   5.0710   5.0711   5.0711   5.0712
    20.6750  20.6753

     occupation numbers 
     1.0000   1.0000   1.0000   1.0000   1.0000   1.0000   1.0000   1.0000
     0.0000   0.0000

     the Fermi energy is     9.5354 ev

!    total energy              =     -26.78451998 Ry
     Harris-Foulkes estimate   =     -26.78452002 Ry
     estimated scf accuracy    <       0.00000007 Ry

     The total energy is the sum of the following terms:

     one-electron contribution =      13.42486081 Ry
     hartree contribution      =       0.03829387 Ry
     xc contribution           =     -17.52067352 Ry
     ewald contribution        =     -22.72702902 Ry
     smearing contrib. (-TS)   =       0.00002787 Ry

     convergence has been achieved in   5 iterations
 
     init_run     :    131.97s CPU      5.78s WALL (       1 calls)
     electrons    :   1579.81s CPU     67.32s WALL (       1 calls)

     Called by init_run:
     wfcinit      :    131.62s CPU      5.62s WALL (       1 calls)
     wfcinit:atom :      2.64s CPU      0.11s WALL (     605 calls)
     wfcinit:wfcr :    117.94s CPU      5.03s WALL (     605 calls)
     potinit      :      0.04s CPU      0.01s WALL (       1 calls)

     Called by electrons:
     c_bands      :   1356.06s CPU     57.79s WALL (       6 calls)
     sum_band     :    221.84s CPU      9.45s WALL (       6 calls)
     v_of_rho     :      0.66s CPU      0.03s WALL (       6 calls)
     v_h          :      0.03s CPU      0.00s WALL (       6 calls)
     v_xc         :      0.63s CPU      0.03s WALL (       6 calls)
     newd         :      0.67s CPU      0.04s WALL (       6 calls)
     mix_rho      :      0.17s CPU      0.01s WALL (       6 calls)

     Called by c_bands:
     init_us_2    :     44.02s CPU      1.88s WALL (    7865 calls)
     cegterg      :   1238.42s CPU     52.73s WALL (    3630 calls)

     Called by sum_band:
     sum_band:bec :      1.25s CPU      0.05s WALL (    3630 calls)
     addusdens    :      0.67s CPU      0.03s WALL (       6 calls)

     Called by *egterg:
     h_psi        :   1184.57s CPU     50.47s WALL (   12641 calls)
     s_psi        :      9.65s CPU      0.41s WALL (   12641 calls)
     g_psi        :      5.17s CPU      0.23s WALL (    8406 calls)
     cdiaghg      :     61.03s CPU      2.66s WALL (   11431 calls)
     cegterg:over :     14.37s CPU      0.62s WALL (    8406 calls)
     cegterg:upda :     15.50s CPU      0.69s WALL (    8406 calls)
     cegterg:last :      6.86s CPU      0.31s WALL (    3636 calls)

     Called by h_psi:
     h_psi:pot    :   1173.78s CPU     49.99s WALL (   12641 calls)
     h_psi:calbec :     37.77s CPU      1.60s WALL (   12641 calls)
     vloc_psi     :   1109.79s CPU     47.29s WALL (   12641 calls)
     add_vuspsi   :     15.14s CPU      0.68s WALL (   12641 calls)

     General routines
     calbec       :     38.66s CPU      1.74s WALL (   16271 calls)
     fft          :      0.26s CPU      0.02s WALL (      80 calls)
     fftw         :   1049.50s CPU     44.79s WALL (  237786 calls)
 
     Parallel routines
 
     PWSCF        : 28m32.03s CPU     1m13.16s WALL

 
   This run was terminated on:  17: 2: 2  24Jan2019            

=------------------------------------------------------------------------------=
   JOB DONE.
=------------------------------------------------------------------------------=
