
     Program PWSCF v.6.2 (svn rev. 14038) starts on 30Jan2019 at 22:11:48 

     This program is part of the open-source Quantum ESPRESSO suite
     for quantum simulation of materials; please cite
         "P. Giannozzi et al., J. Phys.:Condens. Matter 21 395502 (2009);
         "P. Giannozzi et al., J. Phys.:Condens. Matter 29 465901 (2017);
          URL http://www.quantum-espresso.org", 
     in publications or presentations arising from this work. More details at
     http://www.quantum-espresso.org/quote

     Parallel version (MPI), running on     2 processors

     MPI processes distributed on     1 nodes
     R & G space division:  proc/nbgrp/npool/nimage =       2
     Reading input from ./Alecut30.in
Warning: card &IONS ignored
Warning: card / ignored
Warning: card &CELL ignored
Warning: card / ignored

     Current dimensions of program PWSCF are:
     Max number of different atomic species (ntypx) = 10
     Max number of k-points (npk) =  40000
     Max angular momentum in pseudopotentials (lmaxx) =  3
     Message from routine iosys:
     minimal I/O required, wf_collect reset to FALSE

     Subspace diagonalization in iterative solution of the eigenvalue problem:
     a serial algorithm will be used

 
     Parallelization info
     --------------------
     sticks:   dense  smooth     PW     G-vecs:    dense   smooth      PW
     Min         124     124     51                 1245     1245     341
     Max         125     125     52                 1246     1246     342
     Sum         249     249    103                 2491     2491     683
 


     bravais-lattice index     =            0
     lattice parameter (alat)  =       5.2705  a.u.
     unit-cell volume          =     112.7033 (a.u.)^3
     number of atoms/cell      =            1
     number of atomic types    =            1
     number of electrons       =         3.00
     number of Kohn-Sham states=            6
     kinetic-energy cutoff     =      30.0000  Ry
     charge density cutoff     =     120.0000  Ry
     convergence threshold     =      1.0E-06
     mixing beta               =       0.7000
     number of iterations used =            8  plain     mixing
     Exchange-correlation      = SLA  PW   PBE  PBE ( 1  4  3  4 0 0)

     celldm(1)=   5.270512  celldm(2)=   0.000000  celldm(3)=   0.000000
     celldm(4)=   0.000000  celldm(5)=   0.000000  celldm(6)=   0.000000

     crystal axes: (cart. coord. in units of alat)
               a(1) = (   0.577350   0.577350   0.577350 )  
               a(2) = (   0.577350  -0.577350  -0.577350 )  
               a(3) = (  -0.577350   0.577350  -0.577350 )  

     reciprocal axes: (cart. coord. in units 2 pi/alat)
               b(1) = (  0.866025  0.866025  0.000000 )  
               b(2) = (  0.866025  0.000000 -0.866025 )  
               b(3) = (  0.000000  0.866025 -0.866025 )  


     PseudoPot. # 1 for Al read from file:
     ./al_pbe_v1.uspp.F.UPF
     MD5 check sum: 0a6289f5291fc8f409219462bc851e1f
     Pseudo is Ultrasoft + core correction, Zval =  3.0
     Generated by new atomic code, or converted to UPF format
     Using radial grid of  893 points,  3 beta functions with: 
                l(1) =   0
                l(2) =   1
                l(3) =   2
     Q(r) pseudized with  8 coefficients,  rinner =    0.900   0.900   0.900
                                                       0.900   0.900

     atomic species   valence    mass     pseudopotential
        Al             3.00    26.98150     Al( 1.00)

     48 Sym. Ops., with inversion, found


                                    s                        frac. trans.

      isym =  1     identity                                     

 cryst.   s( 1) = (     1          0          0      )
                  (     0          1          0      )
                  (     0          0          1      )

 cart.    s( 1) = (  1.0000000  0.0000000  0.0000000 )
                  (  0.0000000  1.0000000  0.0000000 )
                  (  0.0000000  0.0000000  1.0000000 )


      isym =  2     180 deg rotation - cart. axis [0,0,1]        

 cryst.   s( 2) = (    -1         -1         -1      )
                  (     0          0          1      )
                  (     0          1          0      )

 cart.    s( 2) = ( -1.0000000  0.0000000  0.0000000 )
                  (  0.0000000 -1.0000000  0.0000000 )
                  (  0.0000000  0.0000000  1.0000000 )


      isym =  3     180 deg rotation - cart. axis [0,1,0]        

 cryst.   s( 3) = (     0          0          1      )
                  (    -1         -1         -1      )
                  (     1          0          0      )

 cart.    s( 3) = ( -1.0000000  0.0000000  0.0000000 )
                  (  0.0000000  1.0000000  0.0000000 )
                  (  0.0000000  0.0000000 -1.0000000 )


      isym =  4     180 deg rotation - cart. axis [1,0,0]        

 cryst.   s( 4) = (     0          1          0      )
                  (     1          0          0      )
                  (    -1         -1         -1      )

 cart.    s( 4) = (  1.0000000  0.0000000  0.0000000 )
                  (  0.0000000 -1.0000000  0.0000000 )
                  (  0.0000000  0.0000000 -1.0000000 )


      isym =  5     180 deg rotation - cart. axis [1,1,0]        

 cryst.   s( 5) = (     1          1          1      )
                  (     0         -1          0      )
                  (     0          0         -1      )

 cart.    s( 5) = (  0.0000000  1.0000000  0.0000000 )
                  (  1.0000000  0.0000000  0.0000000 )
                  (  0.0000000  0.0000000 -1.0000000 )


      isym =  6     180 deg rotation - cart. axis [1,-1,0]       

 cryst.   s( 6) = (    -1          0          0      )
                  (     0          0         -1      )
                  (     0         -1          0      )

 cart.    s( 6) = (  0.0000000 -1.0000000  0.0000000 )
                  ( -1.0000000  0.0000000  0.0000000 )
                  (  0.0000000  0.0000000 -1.0000000 )


      isym =  7      90 deg rotation - cart. axis [0,0,-1]       

 cryst.   s( 7) = (     0          0         -1      )
                  (    -1          0          0      )
                  (     1          1          1      )

 cart.    s( 7) = (  0.0000000  1.0000000  0.0000000 )
                  ( -1.0000000  0.0000000  0.0000000 )
                  (  0.0000000  0.0000000  1.0000000 )


      isym =  8      90 deg rotation - cart. axis [0,0,1]        

 cryst.   s( 8) = (     0         -1          0      )
                  (     1          1          1      )
                  (    -1          0          0      )

 cart.    s( 8) = (  0.0000000 -1.0000000  0.0000000 )
                  (  1.0000000  0.0000000  0.0000000 )
                  (  0.0000000  0.0000000  1.0000000 )


      isym =  9     180 deg rotation - cart. axis [1,0,1]        

 cryst.   s( 9) = (     0          0         -1      )
                  (     0         -1          0      )
                  (    -1          0          0      )

 cart.    s( 9) = (  0.0000000  0.0000000  1.0000000 )
                  (  0.0000000 -1.0000000  0.0000000 )
                  (  1.0000000  0.0000000  0.0000000 )


      isym = 10     180 deg rotation - cart. axis [-1,0,1]       

 cryst.   s(10) = (    -1          0          0      )
                  (     1          1          1      )
                  (     0          0         -1      )

 cart.    s(10) = (  0.0000000  0.0000000 -1.0000000 )
                  (  0.0000000 -1.0000000  0.0000000 )
                  ( -1.0000000  0.0000000  0.0000000 )


      isym = 11      90 deg rotation - cart. axis [0,1,0]        

 cryst.   s(11) = (     1          1          1      )
                  (    -1          0          0      )
                  (     0         -1          0      )

 cart.    s(11) = (  0.0000000  0.0000000  1.0000000 )
                  (  0.0000000  1.0000000  0.0000000 )
                  ( -1.0000000  0.0000000  0.0000000 )


      isym = 12      90 deg rotation - cart. axis [0,-1,0]       

 cryst.   s(12) = (     0         -1          0      )
                  (     0          0         -1      )
                  (     1          1          1      )

 cart.    s(12) = (  0.0000000  0.0000000 -1.0000000 )
                  (  0.0000000  1.0000000  0.0000000 )
                  (  1.0000000  0.0000000  0.0000000 )


      isym = 13     180 deg rotation - cart. axis [0,1,1]        

 cryst.   s(13) = (     0         -1          0      )
                  (    -1          0          0      )
                  (     0          0         -1      )

 cart.    s(13) = ( -1.0000000  0.0000000  0.0000000 )
                  (  0.0000000  0.0000000  1.0000000 )
                  (  0.0000000  1.0000000  0.0000000 )


      isym = 14     180 deg rotation - cart. axis [0,1,-1]       

 cryst.   s(14) = (    -1          0          0      )
                  (     0         -1          0      )
                  (     1          1          1      )

 cart.    s(14) = ( -1.0000000  0.0000000  0.0000000 )
                  (  0.0000000  0.0000000 -1.0000000 )
                  (  0.0000000 -1.0000000  0.0000000 )


      isym = 15      90 deg rotation - cart. axis [-1,0,0]       

 cryst.   s(15) = (     1          1          1      )
                  (     0          0         -1      )
                  (    -1          0          0      )

 cart.    s(15) = (  1.0000000  0.0000000  0.0000000 )
                  (  0.0000000  0.0000000  1.0000000 )
                  (  0.0000000 -1.0000000  0.0000000 )


      isym = 16      90 deg rotation - cart. axis [1,0,0]        

 cryst.   s(16) = (     0          0         -1      )
                  (     1          1          1      )
                  (     0         -1          0      )

 cart.    s(16) = (  1.0000000  0.0000000  0.0000000 )
                  (  0.0000000  0.0000000 -1.0000000 )
                  (  0.0000000  1.0000000  0.0000000 )


      isym = 17     120 deg rotation - cart. axis [-1,-1,-1]     

 cryst.   s(17) = (     1          0          0      )
                  (    -1         -1         -1      )
                  (     0          1          0      )

 cart.    s(17) = (  0.0000000  1.0000000  0.0000000 )
                  (  0.0000000  0.0000000  1.0000000 )
                  (  1.0000000  0.0000000  0.0000000 )


      isym = 18     120 deg rotation - cart. axis [-1,1,1]       

 cryst.   s(18) = (     0          0          1      )
                  (     0          1          0      )
                  (    -1         -1         -1      )

 cart.    s(18) = (  0.0000000 -1.0000000  0.0000000 )
                  (  0.0000000  0.0000000  1.0000000 )
                  ( -1.0000000  0.0000000  0.0000000 )


      isym = 19     120 deg rotation - cart. axis [1,1,-1]       

 cryst.   s(19) = (     0          1          0      )
                  (     0          0          1      )
                  (     1          0          0      )

 cart.    s(19) = (  0.0000000  1.0000000  0.0000000 )
                  (  0.0000000  0.0000000 -1.0000000 )
                  ( -1.0000000  0.0000000  0.0000000 )


      isym = 20     120 deg rotation - cart. axis [1,-1,1]       

 cryst.   s(20) = (    -1         -1         -1      )
                  (     1          0          0      )
                  (     0          0          1      )

 cart.    s(20) = (  0.0000000 -1.0000000  0.0000000 )
                  (  0.0000000  0.0000000 -1.0000000 )
                  (  1.0000000  0.0000000  0.0000000 )


      isym = 21     120 deg rotation - cart. axis [1,1,1]        

 cryst.   s(21) = (     1          0          0      )
                  (     0          0          1      )
                  (    -1         -1         -1      )

 cart.    s(21) = (  0.0000000  0.0000000  1.0000000 )
                  (  1.0000000  0.0000000  0.0000000 )
                  (  0.0000000  1.0000000  0.0000000 )


      isym = 22     120 deg rotation - cart. axis [-1,1,-1]      

 cryst.   s(22) = (     0          1          0      )
                  (    -1         -1         -1      )
                  (     0          0          1      )

 cart.    s(22) = (  0.0000000  0.0000000  1.0000000 )
                  ( -1.0000000  0.0000000  0.0000000 )
                  (  0.0000000 -1.0000000  0.0000000 )


      isym = 23     120 deg rotation - cart. axis [1,-1,-1]      

 cryst.   s(23) = (    -1         -1         -1      )
                  (     0          1          0      )
                  (     1          0          0      )

 cart.    s(23) = (  0.0000000  0.0000000 -1.0000000 )
                  ( -1.0000000  0.0000000  0.0000000 )
                  (  0.0000000  1.0000000  0.0000000 )


      isym = 24     120 deg rotation - cart. axis [-1,-1,1]      

 cryst.   s(24) = (     0          0          1      )
                  (     1          0          0      )
                  (     0          1          0      )

 cart.    s(24) = (  0.0000000  0.0000000 -1.0000000 )
                  (  1.0000000  0.0000000  0.0000000 )
                  (  0.0000000 -1.0000000  0.0000000 )


      isym = 25     inversion                                    

 cryst.   s(25) = (    -1          0          0      )
                  (     0         -1          0      )
                  (     0          0         -1      )

 cart.    s(25) = ( -1.0000000  0.0000000  0.0000000 )
                  (  0.0000000 -1.0000000  0.0000000 )
                  (  0.0000000  0.0000000 -1.0000000 )


      isym = 26     inv. 180 deg rotation - cart. axis [0,0,1]   

 cryst.   s(26) = (     1          1          1      )
                  (     0          0         -1      )
                  (     0         -1          0      )

 cart.    s(26) = (  1.0000000  0.0000000  0.0000000 )
                  (  0.0000000  1.0000000  0.0000000 )
                  (  0.0000000  0.0000000 -1.0000000 )


      isym = 27     inv. 180 deg rotation - cart. axis [0,1,0]   

 cryst.   s(27) = (     0          0         -1      )
                  (     1          1          1      )
                  (    -1          0          0      )

 cart.    s(27) = (  1.0000000  0.0000000  0.0000000 )
                  (  0.0000000 -1.0000000  0.0000000 )
                  (  0.0000000  0.0000000  1.0000000 )


      isym = 28     inv. 180 deg rotation - cart. axis [1,0,0]   

 cryst.   s(28) = (     0         -1          0      )
                  (    -1          0          0      )
                  (     1          1          1      )

 cart.    s(28) = ( -1.0000000  0.0000000  0.0000000 )
                  (  0.0000000  1.0000000  0.0000000 )
                  (  0.0000000  0.0000000  1.0000000 )


      isym = 29     inv. 180 deg rotation - cart. axis [1,1,0]   

 cryst.   s(29) = (    -1         -1         -1      )
                  (     0          1          0      )
                  (     0          0          1      )

 cart.    s(29) = (  0.0000000 -1.0000000  0.0000000 )
                  ( -1.0000000  0.0000000  0.0000000 )
                  (  0.0000000  0.0000000  1.0000000 )


      isym = 30     inv. 180 deg rotation - cart. axis [1,-1,0]  

 cryst.   s(30) = (     1          0          0      )
                  (     0          0          1      )
                  (     0          1          0      )

 cart.    s(30) = (  0.0000000  1.0000000  0.0000000 )
                  (  1.0000000  0.0000000  0.0000000 )
                  (  0.0000000  0.0000000  1.0000000 )


      isym = 31     inv.  90 deg rotation - cart. axis [0,0,-1]  

 cryst.   s(31) = (     0          0          1      )
                  (     1          0          0      )
                  (    -1         -1         -1      )

 cart.    s(31) = (  0.0000000 -1.0000000  0.0000000 )
                  (  1.0000000  0.0000000  0.0000000 )
                  (  0.0000000  0.0000000 -1.0000000 )


      isym = 32     inv.  90 deg rotation - cart. axis [0,0,1]   

 cryst.   s(32) = (     0          1          0      )
                  (    -1         -1         -1      )
                  (     1          0          0      )

 cart.    s(32) = (  0.0000000  1.0000000  0.0000000 )
                  ( -1.0000000  0.0000000  0.0000000 )
                  (  0.0000000  0.0000000 -1.0000000 )


      isym = 33     inv. 180 deg rotation - cart. axis [1,0,1]   

 cryst.   s(33) = (     0          0          1      )
                  (     0          1          0      )
                  (     1          0          0      )

 cart.    s(33) = (  0.0000000  0.0000000 -1.0000000 )
                  (  0.0000000  1.0000000  0.0000000 )
                  ( -1.0000000  0.0000000  0.0000000 )


      isym = 34     inv. 180 deg rotation - cart. axis [-1,0,1]  

 cryst.   s(34) = (     1          0          0      )
                  (    -1         -1         -1      )
                  (     0          0          1      )

 cart.    s(34) = (  0.0000000  0.0000000  1.0000000 )
                  (  0.0000000  1.0000000  0.0000000 )
                  (  1.0000000  0.0000000  0.0000000 )


      isym = 35     inv.  90 deg rotation - cart. axis [0,1,0]   

 cryst.   s(35) = (    -1         -1         -1      )
                  (     1          0          0      )
                  (     0          1          0      )

 cart.    s(35) = (  0.0000000  0.0000000 -1.0000000 )
                  (  0.0000000 -1.0000000  0.0000000 )
                  (  1.0000000  0.0000000  0.0000000 )


      isym = 36     inv.  90 deg rotation - cart. axis [0,-1,0]  

 cryst.   s(36) = (     0          1          0      )
                  (     0          0          1      )
                  (    -1         -1         -1      )

 cart.    s(36) = (  0.0000000  0.0000000  1.0000000 )
                  (  0.0000000 -1.0000000  0.0000000 )
                  ( -1.0000000  0.0000000  0.0000000 )


      isym = 37     inv. 180 deg rotation - cart. axis [0,1,1]   

 cryst.   s(37) = (     0          1          0      )
                  (     1          0          0      )
                  (     0          0          1      )

 cart.    s(37) = (  1.0000000  0.0000000  0.0000000 )
                  (  0.0000000  0.0000000 -1.0000000 )
                  (  0.0000000 -1.0000000  0.0000000 )


      isym = 38     inv. 180 deg rotation - cart. axis [0,1,-1]  

 cryst.   s(38) = (     1          0          0      )
                  (     0          1          0      )
                  (    -1         -1         -1      )

 cart.    s(38) = (  1.0000000  0.0000000  0.0000000 )
                  (  0.0000000  0.0000000  1.0000000 )
                  (  0.0000000  1.0000000  0.0000000 )


      isym = 39     inv.  90 deg rotation - cart. axis [-1,0,0]  

 cryst.   s(39) = (    -1         -1         -1      )
                  (     0          0          1      )
                  (     1          0          0      )

 cart.    s(39) = ( -1.0000000  0.0000000  0.0000000 )
                  (  0.0000000  0.0000000 -1.0000000 )
                  (  0.0000000  1.0000000  0.0000000 )


      isym = 40     inv.  90 deg rotation - cart. axis [1,0,0]   

 cryst.   s(40) = (     0          0          1      )
                  (    -1         -1         -1      )
                  (     0          1          0      )

 cart.    s(40) = ( -1.0000000  0.0000000  0.0000000 )
                  (  0.0000000  0.0000000  1.0000000 )
                  (  0.0000000 -1.0000000  0.0000000 )


      isym = 41     inv. 120 deg rotation - cart. axis [-1,-1,-1]

 cryst.   s(41) = (    -1          0          0      )
                  (     1          1          1      )
                  (     0         -1          0      )

 cart.    s(41) = (  0.0000000 -1.0000000  0.0000000 )
                  (  0.0000000  0.0000000 -1.0000000 )
                  ( -1.0000000  0.0000000  0.0000000 )


      isym = 42     inv. 120 deg rotation - cart. axis [-1,1,1]  

 cryst.   s(42) = (     0          0         -1      )
                  (     0         -1          0      )
                  (     1          1          1      )

 cart.    s(42) = (  0.0000000  1.0000000  0.0000000 )
                  (  0.0000000  0.0000000 -1.0000000 )
                  (  1.0000000  0.0000000  0.0000000 )


      isym = 43     inv. 120 deg rotation - cart. axis [1,1,-1]  

 cryst.   s(43) = (     0         -1          0      )
                  (     0          0         -1      )
                  (    -1          0          0      )

 cart.    s(43) = (  0.0000000 -1.0000000  0.0000000 )
                  (  0.0000000  0.0000000  1.0000000 )
                  (  1.0000000  0.0000000  0.0000000 )


      isym = 44     inv. 120 deg rotation - cart. axis [1,-1,1]  

 cryst.   s(44) = (     1          1          1      )
                  (    -1          0          0      )
                  (     0          0         -1      )

 cart.    s(44) = (  0.0000000  1.0000000  0.0000000 )
                  (  0.0000000  0.0000000  1.0000000 )
                  ( -1.0000000  0.0000000  0.0000000 )


      isym = 45     inv. 120 deg rotation - cart. axis [1,1,1]   

 cryst.   s(45) = (    -1          0          0      )
                  (     0          0         -1      )
                  (     1          1          1      )

 cart.    s(45) = (  0.0000000  0.0000000 -1.0000000 )
                  ( -1.0000000  0.0000000  0.0000000 )
                  (  0.0000000 -1.0000000  0.0000000 )


      isym = 46     inv. 120 deg rotation - cart. axis [-1,1,-1] 

 cryst.   s(46) = (     0         -1          0      )
                  (     1          1          1      )
                  (     0          0         -1      )

 cart.    s(46) = (  0.0000000  0.0000000 -1.0000000 )
                  (  1.0000000  0.0000000  0.0000000 )
                  (  0.0000000  1.0000000  0.0000000 )


      isym = 47     inv. 120 deg rotation - cart. axis [1,-1,-1] 

 cryst.   s(47) = (     1          1          1      )
                  (     0         -1          0      )
                  (    -1          0          0      )

 cart.    s(47) = (  0.0000000  0.0000000  1.0000000 )
                  (  1.0000000  0.0000000  0.0000000 )
                  (  0.0000000 -1.0000000  0.0000000 )


      isym = 48     inv. 120 deg rotation - cart. axis [-1,-1,1] 

 cryst.   s(48) = (     0          0         -1      )
                  (    -1          0          0      )
                  (     0         -1          0      )

 cart.    s(48) = (  0.0000000  0.0000000  1.0000000 )
                  ( -1.0000000  0.0000000  0.0000000 )
                  (  0.0000000  1.0000000  0.0000000 )


   Cartesian axes

     site n.     atom                  positions (alat units)
         1           Al  tau(   1) = (   0.0000000   0.0000000   0.0000000  )

   Crystallographic axes

     site n.     atom                  positions (cryst. coord.)
         1           Al  tau(   1) = (  0.0000000  0.0000000  0.0000000  )

     number of k points=   195  Marzari-Vanderbilt smearing, width (Ry)=  0.0100
                       cart. coord. in units 2pi/alat
        k(    1) = (   0.0000000   0.0000000   0.0000000), wk =   0.0003429
        k(    2) = (   0.0000000   0.0481125  -0.0481125), wk =   0.0041152
        k(    3) = (   0.0000000   0.0962250  -0.0962250), wk =   0.0041152
        k(    4) = (   0.0000000   0.1443376  -0.1443376), wk =   0.0041152
        k(    5) = (   0.0000000   0.1924501  -0.1924501), wk =   0.0041152
        k(    6) = (   0.0000000   0.2405626  -0.2405626), wk =   0.0041152
        k(    7) = (   0.0000000   0.2886751  -0.2886751), wk =   0.0041152
        k(    8) = (   0.0000000   0.3367877  -0.3367877), wk =   0.0041152
        k(    9) = (   0.0000000   0.3849002  -0.3849002), wk =   0.0041152
        k(   10) = (   0.0000000  -0.4330127   0.4330127), wk =   0.0020576
        k(   11) = (   0.0481125   0.0481125  -0.0962250), wk =   0.0082305
        k(   12) = (   0.0481125   0.0962250  -0.1443376), wk =   0.0164609
        k(   13) = (   0.0481125   0.1443376  -0.1924501), wk =   0.0164609
        k(   14) = (   0.0481125   0.1924501  -0.2405626), wk =   0.0164609
        k(   15) = (   0.0481125   0.2405626  -0.2886751), wk =   0.0164609
        k(   16) = (   0.0481125   0.2886751  -0.3367877), wk =   0.0164609
        k(   17) = (   0.0481125   0.3367877  -0.3849002), wk =   0.0164609
        k(   18) = (   0.0481125   0.3849002  -0.4330127), wk =   0.0164609
        k(   19) = (   0.0962250   0.0962250  -0.1924501), wk =   0.0082305
        k(   20) = (   0.0962250   0.1443376  -0.2405626), wk =   0.0164609
        k(   21) = (   0.0962250   0.1924501  -0.2886751), wk =   0.0164609
        k(   22) = (   0.0962250   0.2405626  -0.3367877), wk =   0.0164609
        k(   23) = (   0.0962250   0.2886751  -0.3849002), wk =   0.0164609
        k(   24) = (   0.0962250   0.3367877  -0.4330127), wk =   0.0164609
        k(   25) = (   0.0962250   0.3849002  -0.4811252), wk =   0.0082305
        k(   26) = (   0.1443376   0.1443376  -0.2886751), wk =   0.0082305
        k(   27) = (   0.1443376   0.1924501  -0.3367877), wk =   0.0164609
        k(   28) = (   0.1443376   0.2405626  -0.3849002), wk =   0.0164609
        k(   29) = (   0.1443376   0.2886751  -0.4330127), wk =   0.0164609
        k(   30) = (   0.1443376   0.3367877  -0.4811252), wk =   0.0164609
        k(   31) = (   0.1924501   0.1924501  -0.3849002), wk =   0.0082305
        k(   32) = (   0.1924501   0.2405626  -0.4330127), wk =   0.0164609
        k(   33) = (   0.1924501   0.2886751  -0.4811252), wk =   0.0164609
        k(   34) = (   0.1924501   0.3367877  -0.5292377), wk =   0.0082305
        k(   35) = (   0.2405626   0.2405626  -0.4811252), wk =   0.0082305
        k(   36) = (   0.2405626   0.2886751  -0.5292377), wk =   0.0164609
        k(   37) = (   0.2886751   0.2886751  -0.5773503), wk =   0.0027435
        k(   38) = (   0.0962250   0.0962250  -0.0962250), wk =   0.0027435
        k(   39) = (   0.0962250   0.1443376  -0.1443376), wk =   0.0082305
        k(   40) = (   0.0962250   0.1924501  -0.1924501), wk =   0.0082305
        k(   41) = (   0.0962250   0.2405626  -0.2405626), wk =   0.0082305
        k(   42) = (   0.0962250   0.2886751  -0.2886751), wk =   0.0082305
        k(   43) = (   0.0962250   0.3367877  -0.3367877), wk =   0.0082305
        k(   44) = (   0.0962250   0.3849002  -0.3849002), wk =   0.0082305
        k(   45) = (   0.0962250   0.4330127  -0.4330127), wk =   0.0041152
        k(   46) = (   0.0962250  -0.0000000   0.0000000), wk =   0.0020576
        k(   47) = (   0.1443376   0.1443376  -0.1924501), wk =   0.0082305
        k(   48) = (   0.1443376   0.1924501  -0.2405626), wk =   0.0164609
        k(   49) = (   0.1443376   0.2405626  -0.2886751), wk =   0.0164609
        k(   50) = (   0.1443376   0.2886751  -0.3367877), wk =   0.0164609
        k(   51) = (   0.1443376   0.3367877  -0.3849002), wk =   0.0164609
        k(   52) = (   0.1443376   0.3849002  -0.4330127), wk =   0.0164609
        k(   53) = (   0.1443376  -0.0481125   0.0000000), wk =   0.0082305
        k(   54) = (   0.1924501   0.1924501  -0.2886751), wk =   0.0082305
        k(   55) = (   0.1924501   0.2405626  -0.3367877), wk =   0.0164609
        k(   56) = (   0.1924501   0.2886751  -0.3849002), wk =   0.0164609
        k(   57) = (   0.1924501   0.3367877  -0.4330127), wk =   0.0164609
        k(   58) = (   0.1924501   0.3849002  -0.4811252), wk =   0.0082305
        k(   59) = (   0.1924501  -0.0962250   0.0000000), wk =   0.0082305
        k(   60) = (   0.1924501  -0.0481125  -0.0481125), wk =   0.0082305
        k(   61) = (   0.2405626   0.2405626  -0.3849002), wk =   0.0082305
        k(   62) = (   0.2405626   0.2886751  -0.4330127), wk =   0.0164609
        k(   63) = (   0.2405626   0.3367877  -0.4811252), wk =   0.0164609
        k(   64) = (   0.2405626  -0.1443376   0.0000000), wk =   0.0082305
        k(   65) = (   0.2405626  -0.0962250  -0.0481125), wk =   0.0164609
        k(   66) = (   0.2886751   0.2886751  -0.4811252), wk =   0.0082305
        k(   67) = (   0.2886751   0.3367877  -0.5292377), wk =   0.0082305
        k(   68) = (   0.2886751  -0.1924501   0.0000000), wk =   0.0082305
        k(   69) = (   0.2886751  -0.1443376  -0.0481125), wk =   0.0164609
        k(   70) = (   0.2886751  -0.0962250  -0.0962250), wk =   0.0082305
        k(   71) = (   0.3367877  -0.2405626   0.0000000), wk =   0.0082305
        k(   72) = (   0.3367877  -0.1924501  -0.0481125), wk =   0.0164609
        k(   73) = (   0.3367877  -0.1443376  -0.0962250), wk =   0.0164609
        k(   74) = (   0.3849002  -0.2886751  -0.0000000), wk =   0.0082305
        k(   75) = (   0.3849002  -0.2405626  -0.0481125), wk =   0.0164609
        k(   76) = (   0.3849002  -0.1924501  -0.0962250), wk =   0.0164609
        k(   77) = (   0.3849002  -0.1443376  -0.1443376), wk =   0.0082305
        k(   78) = (   0.4330127  -0.3367877   0.0000000), wk =   0.0082305
        k(   79) = (   0.4330127  -0.2886751  -0.0481125), wk =   0.0164609
        k(   80) = (   0.4330127  -0.2405626  -0.0962250), wk =   0.0164609
        k(   81) = (   0.4330127  -0.1924501  -0.1443376), wk =   0.0164609
        k(   82) = (  -0.3849002  -0.3849002   0.8660254), wk =   0.0041152
        k(   83) = (  -0.3849002  -0.3367877   0.8179129), wk =   0.0164609
        k(   84) = (  -0.3849002  -0.2886751   0.7698004), wk =   0.0164609
        k(   85) = (  -0.3849002  -0.2405626   0.7216878), wk =   0.0164609
        k(   86) = (  -0.3849002  -0.1924501   0.6735753), wk =   0.0082305
        k(   87) = (  -0.3367877  -0.3367877   0.7698004), wk =   0.0082305
        k(   88) = (  -0.3367877  -0.2886751   0.7216878), wk =   0.0164609
        k(   89) = (  -0.3367877  -0.2405626   0.6735753), wk =   0.0164609
        k(   90) = (  -0.2886751  -0.2886751   0.6735753), wk =   0.0082305
        k(   91) = (  -0.2886751  -0.2405626   0.6254628), wk =   0.0082305
        k(   92) = (   0.1924501   0.1924501  -0.1924501), wk =   0.0027435
        k(   93) = (   0.1924501   0.2405626  -0.2405626), wk =   0.0082305
        k(   94) = (   0.1924501   0.2886751  -0.2886751), wk =   0.0082305
        k(   95) = (   0.1924501   0.3367877  -0.3367877), wk =   0.0082305
        k(   96) = (   0.1924501   0.3849002  -0.3849002), wk =   0.0082305
        k(   97) = (   0.1924501   0.4330127  -0.4330127), wk =   0.0041152
        k(   98) = (   0.1924501  -0.0000000   0.0000000), wk =   0.0020576
        k(   99) = (   0.2405626   0.2405626  -0.2886751), wk =   0.0082305
        k(  100) = (   0.2405626   0.2886751  -0.3367877), wk =   0.0164609
        k(  101) = (   0.2405626   0.3367877  -0.3849002), wk =   0.0164609
        k(  102) = (   0.2405626   0.3849002  -0.4330127), wk =   0.0164609
        k(  103) = (   0.2405626  -0.0481125   0.0000000), wk =   0.0082305
        k(  104) = (   0.2886751   0.2886751  -0.3849002), wk =   0.0082305
        k(  105) = (   0.2886751   0.3367877  -0.4330127), wk =   0.0164609
        k(  106) = (   0.2886751   0.3849002  -0.4811252), wk =   0.0082305
        k(  107) = (   0.2886751  -0.0962250   0.0000000), wk =   0.0082305
        k(  108) = (   0.2886751  -0.0481125  -0.0481125), wk =   0.0082305
        k(  109) = (   0.3367877   0.3367877  -0.4811252), wk =   0.0082305
        k(  110) = (   0.3367877  -0.1443376   0.0000000), wk =   0.0082305
        k(  111) = (   0.3367877  -0.0962250  -0.0481125), wk =   0.0164609
        k(  112) = (   0.3849002  -0.1924501   0.0000000), wk =   0.0082305
        k(  113) = (   0.3849002  -0.1443376  -0.0481125), wk =   0.0164609
        k(  114) = (   0.3849002  -0.0962250  -0.0962250), wk =   0.0082305
        k(  115) = (   0.4330127  -0.2405626  -0.0000000), wk =   0.0082305
        k(  116) = (   0.4330127  -0.1924501  -0.0481125), wk =   0.0164609
        k(  117) = (   0.4330127  -0.1443376  -0.0962250), wk =   0.0164609
        k(  118) = (   0.4811252  -0.2886751   0.0000000), wk =   0.0082305
        k(  119) = (   0.4811252  -0.2405626  -0.0481125), wk =   0.0164609
        k(  120) = (   0.4811252  -0.1924501  -0.0962250), wk =   0.0164609
        k(  121) = (   0.4811252  -0.1443376  -0.1443376), wk =   0.0082305
        k(  122) = (  -0.3367877  -0.3367877   0.8660254), wk =   0.0041152
        k(  123) = (  -0.3367877  -0.2886751   0.8179129), wk =   0.0164609
        k(  124) = (  -0.3367877  -0.2405626   0.7698004), wk =   0.0164609
        k(  125) = (  -0.3367877  -0.1924501   0.7216878), wk =   0.0164609
        k(  126) = (  -0.2886751  -0.2886751   0.7698004), wk =   0.0082305
        k(  127) = (  -0.2886751  -0.2405626   0.7216878), wk =   0.0164609
        k(  128) = (  -0.2886751  -0.1924501   0.6735753), wk =   0.0082305
        k(  129) = (  -0.2405626  -0.2405626   0.6735753), wk =   0.0082305
        k(  130) = (   0.2886751   0.2886751  -0.2886751), wk =   0.0027435
        k(  131) = (   0.2886751   0.3367877  -0.3367877), wk =   0.0082305
        k(  132) = (   0.2886751   0.3849002  -0.3849002), wk =   0.0082305
        k(  133) = (   0.2886751   0.4330127  -0.4330127), wk =   0.0041152
        k(  134) = (   0.2886751   0.0000000   0.0000000), wk =   0.0020576
        k(  135) = (   0.3367877   0.3367877  -0.3849002), wk =   0.0082305
        k(  136) = (   0.3367877   0.3849002  -0.4330127), wk =   0.0164609
        k(  137) = (   0.3367877  -0.0481125   0.0000000), wk =   0.0082305
        k(  138) = (   0.3849002   0.3849002  -0.4811252), wk =   0.0027435
        k(  139) = (   0.3849002  -0.0962250   0.0000000), wk =   0.0082305
        k(  140) = (   0.3849002  -0.0481125  -0.0481125), wk =   0.0082305
        k(  141) = (   0.4330127  -0.1443376   0.0000000), wk =   0.0082305
        k(  142) = (   0.4330127  -0.0962250  -0.0481125), wk =   0.0164609
        k(  143) = (   0.4811252  -0.1924501  -0.0000000), wk =   0.0082305
        k(  144) = (   0.4811252  -0.1443376  -0.0481125), wk =   0.0164609
        k(  145) = (   0.4811252  -0.0962250  -0.0962250), wk =   0.0082305
        k(  146) = (   0.5292377  -0.2405626   0.0000000), wk =   0.0082305
        k(  147) = (   0.5292377  -0.1924501  -0.0481125), wk =   0.0164609
        k(  148) = (   0.5292377  -0.1443376  -0.0962250), wk =   0.0164609
        k(  149) = (  -0.2886751  -0.2886751   0.8660254), wk =   0.0041152
        k(  150) = (  -0.2886751  -0.2405626   0.8179129), wk =   0.0164609
        k(  151) = (  -0.2886751  -0.1924501   0.7698004), wk =   0.0164609
        k(  152) = (  -0.2886751  -0.1443376   0.7216878), wk =   0.0082305
        k(  153) = (  -0.2405626  -0.2405626   0.7698004), wk =   0.0082305
        k(  154) = (  -0.2405626  -0.1924501   0.7216878), wk =   0.0164609
        k(  155) = (  -0.1924501  -0.1924501   0.6735753), wk =   0.0027435
        k(  156) = (   0.3849002   0.3849002  -0.3849002), wk =   0.0027435
        k(  157) = (   0.3849002   0.4330127  -0.4330127), wk =   0.0041152
        k(  158) = (   0.3849002   0.0000000   0.0000000), wk =   0.0020576
        k(  159) = (   0.4330127  -0.0481125   0.0000000), wk =   0.0082305
        k(  160) = (   0.4811252  -0.0962250   0.0000000), wk =   0.0082305
        k(  161) = (   0.4811252  -0.0481125  -0.0481125), wk =   0.0082305
        k(  162) = (   0.5292377  -0.1443376  -0.0000000), wk =   0.0082305
        k(  163) = (   0.5292377  -0.0962250  -0.0481125), wk =   0.0164609
        k(  164) = (   0.5773503  -0.1924501   0.0000000), wk =   0.0082305
        k(  165) = (   0.5773503  -0.1443376  -0.0481125), wk =   0.0164609
        k(  166) = (   0.5773503  -0.0962250  -0.0962250), wk =   0.0082305
        k(  167) = (  -0.2405626  -0.2405626   0.8660254), wk =   0.0041152
        k(  168) = (  -0.2405626  -0.1924501   0.8179129), wk =   0.0164609
        k(  169) = (  -0.2405626  -0.1443376   0.7698004), wk =   0.0164609
        k(  170) = (  -0.1924501  -0.1924501   0.7698004), wk =   0.0082305
        k(  171) = (  -0.1924501  -0.1443376   0.7216878), wk =   0.0082305
        k(  172) = (   0.4811252   0.0000000   0.0000000), wk =   0.0020576
        k(  173) = (   0.5292377  -0.0481125   0.0000000), wk =   0.0082305
        k(  174) = (   0.5773503  -0.0962250  -0.0000000), wk =   0.0082305
        k(  175) = (   0.5773503  -0.0481125  -0.0481125), wk =   0.0082305
        k(  176) = (   0.6254628  -0.1443376   0.0000000), wk =   0.0082305
        k(  177) = (   0.6254628  -0.0962250  -0.0481125), wk =   0.0164609
        k(  178) = (  -0.1924501  -0.1924501   0.8660254), wk =   0.0041152
        k(  179) = (  -0.1924501  -0.1443376   0.8179129), wk =   0.0164609
        k(  180) = (  -0.1924501  -0.0962250   0.7698004), wk =   0.0082305
        k(  181) = (  -0.1443376  -0.1443376   0.7698004), wk =   0.0082305
        k(  182) = (   0.5773503  -0.0000000   0.0000000), wk =   0.0020576
        k(  183) = (   0.6254628  -0.0481125  -0.0000000), wk =   0.0082305
        k(  184) = (   0.6735753  -0.0962250   0.0000000), wk =   0.0082305
        k(  185) = (   0.6735753  -0.0481125  -0.0481125), wk =   0.0082305
        k(  186) = (  -0.1443376  -0.1443376   0.8660254), wk =   0.0041152
        k(  187) = (  -0.1443376  -0.0962250   0.8179129), wk =   0.0164609
        k(  188) = (  -0.0962250  -0.0962250   0.7698004), wk =   0.0027435
        k(  189) = (   0.6735753   0.0000000  -0.0000000), wk =   0.0020576
        k(  190) = (   0.7216878  -0.0481125   0.0000000), wk =   0.0082305
        k(  191) = (  -0.0962250  -0.0962250   0.8660254), wk =   0.0041152
        k(  192) = (  -0.0962250  -0.0481125   0.8179129), wk =   0.0082305
        k(  193) = (   0.7698004   0.0000000   0.0000000), wk =   0.0020576
        k(  194) = (  -0.0481125  -0.0481125   0.8660254), wk =   0.0041152
        k(  195) = (  -0.8660254  -0.8660254   0.8660254), wk =   0.0003429

                       cryst. coord.
        k(    1) = (   0.0000000   0.0000000   0.0000000), wk =   0.0003429
        k(    2) = (   0.0000000   0.0000000   0.0555556), wk =   0.0041152
        k(    3) = (   0.0000000   0.0000000   0.1111111), wk =   0.0041152
        k(    4) = (   0.0000000   0.0000000   0.1666667), wk =   0.0041152
        k(    5) = (   0.0000000   0.0000000   0.2222222), wk =   0.0041152
        k(    6) = (   0.0000000   0.0000000   0.2777778), wk =   0.0041152
        k(    7) = (   0.0000000   0.0000000   0.3333333), wk =   0.0041152
        k(    8) = (   0.0000000   0.0000000   0.3888889), wk =   0.0041152
        k(    9) = (   0.0000000   0.0000000   0.4444444), wk =   0.0041152
        k(   10) = (   0.0000000   0.0000000  -0.5000000), wk =   0.0020576
        k(   11) = (   0.0000000   0.0555556   0.0555556), wk =   0.0082305
        k(   12) = (   0.0000000   0.0555556   0.1111111), wk =   0.0164609
        k(   13) = (   0.0000000   0.0555556   0.1666667), wk =   0.0164609
        k(   14) = (   0.0000000   0.0555556   0.2222222), wk =   0.0164609
        k(   15) = (   0.0000000   0.0555556   0.2777778), wk =   0.0164609
        k(   16) = (   0.0000000   0.0555556   0.3333333), wk =   0.0164609
        k(   17) = (   0.0000000   0.0555556   0.3888889), wk =   0.0164609
        k(   18) = (   0.0000000   0.0555556   0.4444444), wk =   0.0164609
        k(   19) = (   0.0000000   0.1111111   0.1111111), wk =   0.0082305
        k(   20) = (   0.0000000   0.1111111   0.1666667), wk =   0.0164609
        k(   21) = (   0.0000000   0.1111111   0.2222222), wk =   0.0164609
        k(   22) = (  -0.0000000   0.1111111   0.2777778), wk =   0.0164609
        k(   23) = (   0.0000000   0.1111111   0.3333333), wk =   0.0164609
        k(   24) = (  -0.0000000   0.1111111   0.3888889), wk =   0.0164609
        k(   25) = (   0.0000000   0.1111111   0.4444444), wk =   0.0082305
        k(   26) = (   0.0000000   0.1666667   0.1666667), wk =   0.0082305
        k(   27) = (   0.0000000   0.1666667   0.2222222), wk =   0.0164609
        k(   28) = (   0.0000000   0.1666667   0.2777778), wk =   0.0164609
        k(   29) = (   0.0000000   0.1666667   0.3333333), wk =   0.0164609
        k(   30) = (   0.0000000   0.1666667   0.3888889), wk =   0.0164609
        k(   31) = (   0.0000000   0.2222222   0.2222222), wk =   0.0082305
        k(   32) = (   0.0000000   0.2222222   0.2777778), wk =   0.0164609
        k(   33) = (   0.0000000   0.2222222   0.3333333), wk =   0.0164609
        k(   34) = (   0.0000000   0.2222222   0.3888889), wk =   0.0082305
        k(   35) = (   0.0000000   0.2777778   0.2777778), wk =   0.0082305
        k(   36) = (   0.0000000   0.2777778   0.3333333), wk =   0.0164609
        k(   37) = (   0.0000000   0.3333333   0.3333333), wk =   0.0027435
        k(   38) = (   0.0555556   0.0555556   0.0555556), wk =   0.0027435
        k(   39) = (   0.0555556   0.0555556   0.1111111), wk =   0.0082305
        k(   40) = (   0.0555556   0.0555556   0.1666667), wk =   0.0082305
        k(   41) = (   0.0555556   0.0555556   0.2222222), wk =   0.0082305
        k(   42) = (   0.0555556   0.0555556   0.2777778), wk =   0.0082305
        k(   43) = (   0.0555556   0.0555556   0.3333333), wk =   0.0082305
        k(   44) = (   0.0555556   0.0555556   0.3888889), wk =   0.0082305
        k(   45) = (   0.0555556   0.0555556   0.4444444), wk =   0.0041152
        k(   46) = (   0.0555556   0.0555556  -0.0555556), wk =   0.0020576
        k(   47) = (   0.0555556   0.1111111   0.1111111), wk =   0.0082305
        k(   48) = (   0.0555556   0.1111111   0.1666667), wk =   0.0164609
        k(   49) = (   0.0555556   0.1111111   0.2222222), wk =   0.0164609
        k(   50) = (   0.0555556   0.1111111   0.2777778), wk =   0.0164609
        k(   51) = (   0.0555556   0.1111111   0.3333333), wk =   0.0164609
        k(   52) = (   0.0555556   0.1111111   0.3888889), wk =   0.0164609
        k(   53) = (   0.0555556   0.1111111  -0.1111111), wk =   0.0082305
        k(   54) = (   0.0555556   0.1666667   0.1666667), wk =   0.0082305
        k(   55) = (   0.0555556   0.1666667   0.2222222), wk =   0.0164609
        k(   56) = (   0.0555556   0.1666667   0.2777778), wk =   0.0164609
        k(   57) = (   0.0555556   0.1666667   0.3333333), wk =   0.0164609
        k(   58) = (   0.0555556   0.1666667   0.3888889), wk =   0.0082305
        k(   59) = (   0.0555556   0.1666667  -0.1666667), wk =   0.0082305
        k(   60) = (   0.0555556   0.1666667  -0.1111111), wk =   0.0082305
        k(   61) = (   0.0555556   0.2222222   0.2222222), wk =   0.0082305
        k(   62) = (   0.0555556   0.2222222   0.2777778), wk =   0.0164609
        k(   63) = (   0.0555556   0.2222222   0.3333333), wk =   0.0164609
        k(   64) = (   0.0555556   0.2222222  -0.2222222), wk =   0.0082305
        k(   65) = (   0.0555556   0.2222222  -0.1666667), wk =   0.0164609
        k(   66) = (   0.0555556   0.2777778   0.2777778), wk =   0.0082305
        k(   67) = (   0.0555556   0.2777778   0.3333333), wk =   0.0082305
        k(   68) = (   0.0555556   0.2777778  -0.2777778), wk =   0.0082305
        k(   69) = (   0.0555556   0.2777778  -0.2222222), wk =   0.0164609
        k(   70) = (   0.0555556   0.2777778  -0.1666667), wk =   0.0082305
        k(   71) = (   0.0555556   0.3333333  -0.3333333), wk =   0.0082305
        k(   72) = (   0.0555556   0.3333333  -0.2777778), wk =   0.0164609
        k(   73) = (   0.0555556   0.3333333  -0.2222222), wk =   0.0164609
        k(   74) = (   0.0555556   0.3888889  -0.3888889), wk =   0.0082305
        k(   75) = (   0.0555556   0.3888889  -0.3333333), wk =   0.0164609
        k(   76) = (   0.0555556   0.3888889  -0.2777778), wk =   0.0164609
        k(   77) = (   0.0555556   0.3888889  -0.2222222), wk =   0.0082305
        k(   78) = (   0.0555556   0.4444444  -0.4444444), wk =   0.0082305
        k(   79) = (   0.0555556   0.4444444  -0.3888889), wk =   0.0164609
        k(   80) = (   0.0555556   0.4444444  -0.3333333), wk =   0.0164609
        k(   81) = (   0.0555556   0.4444444  -0.2777778), wk =   0.0164609
        k(   82) = (   0.0555556  -0.5000000  -0.5000000), wk =   0.0041152
        k(   83) = (   0.0555556  -0.5000000  -0.4444444), wk =   0.0164609
        k(   84) = (   0.0555556  -0.5000000  -0.3888889), wk =   0.0164609
        k(   85) = (   0.0555556  -0.5000000  -0.3333333), wk =   0.0164609
        k(   86) = (   0.0555556  -0.5000000  -0.2777778), wk =   0.0082305
        k(   87) = (   0.0555556  -0.4444444  -0.4444444), wk =   0.0082305
        k(   88) = (   0.0555556  -0.4444444  -0.3888889), wk =   0.0164609
        k(   89) = (   0.0555556  -0.4444444  -0.3333333), wk =   0.0164609
        k(   90) = (   0.0555556  -0.3888889  -0.3888889), wk =   0.0082305
        k(   91) = (   0.0555556  -0.3888889  -0.3333333), wk =   0.0082305
        k(   92) = (   0.1111111   0.1111111   0.1111111), wk =   0.0027435
        k(   93) = (   0.1111111   0.1111111   0.1666667), wk =   0.0082305
        k(   94) = (   0.1111111   0.1111111   0.2222222), wk =   0.0082305
        k(   95) = (   0.1111111   0.1111111   0.2777778), wk =   0.0082305
        k(   96) = (   0.1111111   0.1111111   0.3333333), wk =   0.0082305
        k(   97) = (   0.1111111   0.1111111   0.3888889), wk =   0.0041152
        k(   98) = (   0.1111111   0.1111111  -0.1111111), wk =   0.0020576
        k(   99) = (   0.1111111   0.1666667   0.1666667), wk =   0.0082305
        k(  100) = (   0.1111111   0.1666667   0.2222222), wk =   0.0164609
        k(  101) = (   0.1111111   0.1666667   0.2777778), wk =   0.0164609
        k(  102) = (   0.1111111   0.1666667   0.3333333), wk =   0.0164609
        k(  103) = (   0.1111111   0.1666667  -0.1666667), wk =   0.0082305
        k(  104) = (   0.1111111   0.2222222   0.2222222), wk =   0.0082305
        k(  105) = (   0.1111111   0.2222222   0.2777778), wk =   0.0164609
        k(  106) = (   0.1111111   0.2222222   0.3333333), wk =   0.0082305
        k(  107) = (   0.1111111   0.2222222  -0.2222222), wk =   0.0082305
        k(  108) = (   0.1111111   0.2222222  -0.1666667), wk =   0.0082305
        k(  109) = (   0.1111111   0.2777778   0.2777778), wk =   0.0082305
        k(  110) = (   0.1111111   0.2777778  -0.2777778), wk =   0.0082305
        k(  111) = (   0.1111111   0.2777778  -0.2222222), wk =   0.0164609
        k(  112) = (   0.1111111   0.3333333  -0.3333333), wk =   0.0082305
        k(  113) = (   0.1111111   0.3333333  -0.2777778), wk =   0.0164609
        k(  114) = (   0.1111111   0.3333333  -0.2222222), wk =   0.0082305
        k(  115) = (   0.1111111   0.3888889  -0.3888889), wk =   0.0082305
        k(  116) = (   0.1111111   0.3888889  -0.3333333), wk =   0.0164609
        k(  117) = (   0.1111111   0.3888889  -0.2777778), wk =   0.0164609
        k(  118) = (   0.1111111   0.4444444  -0.4444444), wk =   0.0082305
        k(  119) = (   0.1111111   0.4444444  -0.3888889), wk =   0.0164609
        k(  120) = (   0.1111111   0.4444444  -0.3333333), wk =   0.0164609
        k(  121) = (   0.1111111   0.4444444  -0.2777778), wk =   0.0082305
        k(  122) = (   0.1111111  -0.5000000  -0.5000000), wk =   0.0041152
        k(  123) = (   0.1111111  -0.5000000  -0.4444444), wk =   0.0164609
        k(  124) = (   0.1111111  -0.5000000  -0.3888889), wk =   0.0164609
        k(  125) = (   0.1111111  -0.5000000  -0.3333333), wk =   0.0164609
        k(  126) = (   0.1111111  -0.4444444  -0.4444444), wk =   0.0082305
        k(  127) = (   0.1111111  -0.4444444  -0.3888889), wk =   0.0164609
        k(  128) = (   0.1111111  -0.4444444  -0.3333333), wk =   0.0082305
        k(  129) = (   0.1111111  -0.3888889  -0.3888889), wk =   0.0082305
        k(  130) = (   0.1666667   0.1666667   0.1666667), wk =   0.0027435
        k(  131) = (   0.1666667   0.1666667   0.2222222), wk =   0.0082305
        k(  132) = (   0.1666667   0.1666667   0.2777778), wk =   0.0082305
        k(  133) = (   0.1666667   0.1666667   0.3333333), wk =   0.0041152
        k(  134) = (   0.1666667   0.1666667  -0.1666667), wk =   0.0020576
        k(  135) = (   0.1666667   0.2222222   0.2222222), wk =   0.0082305
        k(  136) = (   0.1666667   0.2222222   0.2777778), wk =   0.0164609
        k(  137) = (   0.1666667   0.2222222  -0.2222222), wk =   0.0082305
        k(  138) = (   0.1666667   0.2777778   0.2777778), wk =   0.0027435
        k(  139) = (   0.1666667   0.2777778  -0.2777778), wk =   0.0082305
        k(  140) = (   0.1666667   0.2777778  -0.2222222), wk =   0.0082305
        k(  141) = (   0.1666667   0.3333333  -0.3333333), wk =   0.0082305
        k(  142) = (   0.1666667   0.3333333  -0.2777778), wk =   0.0164609
        k(  143) = (   0.1666667   0.3888889  -0.3888889), wk =   0.0082305
        k(  144) = (   0.1666667   0.3888889  -0.3333333), wk =   0.0164609
        k(  145) = (   0.1666667   0.3888889  -0.2777778), wk =   0.0082305
        k(  146) = (   0.1666667   0.4444444  -0.4444444), wk =   0.0082305
        k(  147) = (   0.1666667   0.4444444  -0.3888889), wk =   0.0164609
        k(  148) = (   0.1666667   0.4444444  -0.3333333), wk =   0.0164609
        k(  149) = (   0.1666667  -0.5000000  -0.5000000), wk =   0.0041152
        k(  150) = (   0.1666667  -0.5000000  -0.4444444), wk =   0.0164609
        k(  151) = (   0.1666667  -0.5000000  -0.3888889), wk =   0.0164609
        k(  152) = (   0.1666667  -0.5000000  -0.3333333), wk =   0.0082305
        k(  153) = (   0.1666667  -0.4444444  -0.4444444), wk =   0.0082305
        k(  154) = (   0.1666667  -0.4444444  -0.3888889), wk =   0.0164609
        k(  155) = (   0.1666667  -0.3888889  -0.3888889), wk =   0.0027435
        k(  156) = (   0.2222222   0.2222222   0.2222222), wk =   0.0027435
        k(  157) = (   0.2222222   0.2222222   0.2777778), wk =   0.0041152
        k(  158) = (   0.2222222   0.2222222  -0.2222222), wk =   0.0020576
        k(  159) = (   0.2222222   0.2777778  -0.2777778), wk =   0.0082305
        k(  160) = (   0.2222222   0.3333333  -0.3333333), wk =   0.0082305
        k(  161) = (   0.2222222   0.3333333  -0.2777778), wk =   0.0082305
        k(  162) = (   0.2222222   0.3888889  -0.3888889), wk =   0.0082305
        k(  163) = (   0.2222222   0.3888889  -0.3333333), wk =   0.0164609
        k(  164) = (   0.2222222   0.4444444  -0.4444444), wk =   0.0082305
        k(  165) = (   0.2222222   0.4444444  -0.3888889), wk =   0.0164609
        k(  166) = (   0.2222222   0.4444444  -0.3333333), wk =   0.0082305
        k(  167) = (   0.2222222  -0.5000000  -0.5000000), wk =   0.0041152
        k(  168) = (   0.2222222  -0.5000000  -0.4444444), wk =   0.0164609
        k(  169) = (   0.2222222  -0.5000000  -0.3888889), wk =   0.0164609
        k(  170) = (   0.2222222  -0.4444444  -0.4444444), wk =   0.0082305
        k(  171) = (   0.2222222  -0.4444444  -0.3888889), wk =   0.0082305
        k(  172) = (   0.2777778   0.2777778  -0.2777778), wk =   0.0020576
        k(  173) = (   0.2777778   0.3333333  -0.3333333), wk =   0.0082305
        k(  174) = (   0.2777778   0.3888889  -0.3888889), wk =   0.0082305
        k(  175) = (   0.2777778   0.3888889  -0.3333333), wk =   0.0082305
        k(  176) = (   0.2777778   0.4444444  -0.4444444), wk =   0.0082305
        k(  177) = (   0.2777778   0.4444444  -0.3888889), wk =   0.0164609
        k(  178) = (   0.2777778  -0.5000000  -0.5000000), wk =   0.0041152
        k(  179) = (   0.2777778  -0.5000000  -0.4444444), wk =   0.0164609
        k(  180) = (   0.2777778  -0.5000000  -0.3888889), wk =   0.0082305
        k(  181) = (   0.2777778  -0.4444444  -0.4444444), wk =   0.0082305
        k(  182) = (   0.3333333   0.3333333  -0.3333333), wk =   0.0020576
        k(  183) = (   0.3333333   0.3888889  -0.3888889), wk =   0.0082305
        k(  184) = (   0.3333333   0.4444444  -0.4444444), wk =   0.0082305
        k(  185) = (   0.3333333   0.4444444  -0.3888889), wk =   0.0082305
        k(  186) = (   0.3333333  -0.5000000  -0.5000000), wk =   0.0041152
        k(  187) = (   0.3333333  -0.5000000  -0.4444444), wk =   0.0164609
        k(  188) = (   0.3333333  -0.4444444  -0.4444444), wk =   0.0027435
        k(  189) = (   0.3888889   0.3888889  -0.3888889), wk =   0.0020576
        k(  190) = (   0.3888889   0.4444444  -0.4444444), wk =   0.0082305
        k(  191) = (   0.3888889  -0.5000000  -0.5000000), wk =   0.0041152
        k(  192) = (   0.3888889  -0.5000000  -0.4444444), wk =   0.0082305
        k(  193) = (   0.4444444   0.4444444  -0.4444444), wk =   0.0020576
        k(  194) = (   0.4444444  -0.5000000  -0.5000000), wk =   0.0041152
        k(  195) = (  -0.5000000  -0.5000000  -0.5000000), wk =   0.0003429

     Dense  grid:     2491 G-vectors     FFT dimensions: (  20,  20,  20)

     Dynamical RAM for                 wfc:       0.01 MB

     Dynamical RAM for     wfc (w. buffer):       2.80 MB

     Dynamical RAM for           str. fact:       0.02 MB

     Dynamical RAM for           local pot:       0.00 MB

     Dynamical RAM for          nlocal pot:       0.02 MB

     Dynamical RAM for                qrad:       0.21 MB

     Dynamical RAM for          rho,v,vnew:       0.15 MB

     Dynamical RAM for               rhoin:       0.05 MB

     Dynamical RAM for            rho*nmix:       0.30 MB

     Dynamical RAM for           G-vectors:       0.08 MB

     Dynamical RAM for          h,s,v(r/c):       0.03 MB

     Dynamical RAM for          <psi|beta>:       0.00 MB

     Dynamical RAM for                 psi:       0.06 MB

     Dynamical RAM for                hpsi:       0.06 MB

     Dynamical RAM for                spsi:       0.06 MB

     Dynamical RAM for      wfcinit/wfcrot:       0.03 MB

     Dynamical RAM for           addusdens:       1.16 MB

     Estimated static dynamical RAM per process >       3.82 MB

     Estimated max dynamical RAM per process >       4.98 MB

     Estimated total dynamical RAM >       9.97 MB

     Initial potential from superposition of free atoms

     starting charge    2.99753, renormalised to    3.00000
     Starting wfc are    4 randomized atomic wfcs +    2 random wfc

     total cpu time spent up to now is        0.4 secs

     Self-consistent Calculation

     iteration #  1     ecut=    30.00 Ry     beta= 0.70
     Davidson diagonalization with overlap
     ethr =  1.00E-02,  avg # of iterations =  4.7

     Threshold (ethr) on eigenvalues was too large:
     Diagonalizing with lowered threshold

     Davidson diagonalization with overlap
     ethr =  1.91E-04,  avg # of iterations =  1.5

     total cpu time spent up to now is        1.6 secs

     total energy              =      -6.70065284 Ry
     Harris-Foulkes estimate   =      -6.70271046 Ry
     estimated scf accuracy    <       0.00571024 Ry

     iteration #  2     ecut=    30.00 Ry     beta= 0.70
     Davidson diagonalization with overlap
     ethr =  1.90E-04,  avg # of iterations =  1.0

     total cpu time spent up to now is        2.1 secs

     total energy              =      -6.70069150 Ry
     Harris-Foulkes estimate   =      -6.70079633 Ry
     estimated scf accuracy    <       0.00030490 Ry

     iteration #  3     ecut=    30.00 Ry     beta= 0.70
     Davidson diagonalization with overlap
     ethr =  1.02E-05,  avg # of iterations =  1.6

     total cpu time spent up to now is        2.7 secs

     End of self-consistent calculation

          k = 0.0000 0.0000 0.0000 (   321 PWs)   bands (ev):

    -3.2975  20.9698  20.9699  22.0561  22.0561  22.0561

     occupation numbers 
     1.0000   0.0000   0.0000   0.0000   0.0000   0.0000

          k = 0.0000 0.0481-0.0481 (   321 PWs)   bands (ev):

    -3.2093  19.7489  20.1995  20.6052  21.7444  22.6123

     occupation numbers 
     1.0000   0.0000   0.0000   0.0000   0.0000   0.0000

          k = 0.0000 0.0962-0.0962 (   321 PWs)   bands (ev):

    -2.9449  17.6457  19.1942  19.7994  21.0215  22.1758

     occupation numbers 
     1.0000   0.0000   0.0000   0.0000   0.0000   0.0000

          k = 0.0000 0.1443-0.1443 (   325 PWs)   bands (ev):

    -2.5052  15.3768  18.2974  18.9041  20.2051  21.4119

     occupation numbers 
     1.0000   0.0000   0.0000   0.0000   0.0000   0.0000

          k = 0.0000 0.1925-0.1925 (   315 PWs)   bands (ev):

    -1.8916  13.1366  17.5339  18.0717  19.4462  20.7301

     occupation numbers 
     1.0000   0.0000   0.0000   0.0000   0.0000   0.0000

          k = 0.0000 0.2406-0.2406 (   314 PWs)   bands (ev):

    -1.1059  10.9901  16.9083  17.3600  18.7990  20.1380

     occupation numbers 
     1.0000   0.0000   0.0000   0.0000   0.0000   0.0000

          k = 0.0000 0.2887-0.2887 (   306 PWs)   bands (ev):

    -0.1508   8.9642  16.4218  16.7936  18.2852  19.6536

     occupation numbers 
     1.0000   0.0000   0.0000   0.0000   0.0000   0.0000

          k = 0.0000 0.3368-0.3368 (   316 PWs)   bands (ev):

     0.9699   7.0735  16.0744  16.3837  17.9141  19.2946

     occupation numbers 
     1.0000   1.0000   0.0000   0.0000   0.0000   0.0000

          k = 0.0000 0.3849-0.3849 (   312 PWs)   bands (ev):

     2.2485   5.3312  15.8661  16.1360  17.6901  19.0741

     occupation numbers 
     1.0000   1.0000   0.0000   0.0000   0.0000   0.0000

          k = 0.0000-0.4330 0.4330 (   312 PWs)   bands (ev):

     3.4822   3.9427  15.7967  16.0531  17.6153  18.9997

     occupation numbers 
     1.0000   1.0000   0.0000   0.0000   0.0000   0.0000

          k = 0.0481 0.0481-0.0962 (   321 PWs)   bands (ev):

    -3.0330  18.7271  18.7552  19.9243  21.7281  22.4940

     occupation numbers 
     1.0000   0.0000   0.0000   0.0000   0.0000   0.0000

          k = 0.0481 0.0962-0.1443 (   323 PWs)   bands (ev):

    -2.6810  16.5572  17.7564  19.0474  21.2066  22.0581

     occupation numbers 
     1.0000   0.0000   0.0000   0.0000   0.0000   0.0000

          k = 0.0481 0.1443-0.1925 (   318 PWs)   bands (ev):

    -2.1543  14.2997  16.8801  18.2094  20.4383  21.6488

     occupation numbers 
     1.0000   0.0000   0.0000   0.0000   0.0000   0.0000

          k = 0.0481 0.1925-0.2406 (   318 PWs)   bands (ev):

    -1.4546  12.1058  16.1337  17.4819  19.7312  21.1503

     occupation numbers 
     1.0000   0.0000   0.0000   0.0000   0.0000   0.0000

          k = 0.0481 0.2406-0.2887 (   316 PWs)   bands (ev):

    -0.5842  10.0199  15.5279  16.8898  19.1420  20.6771

     occupation numbers 
     1.0000   0.0000   0.0000   0.0000   0.0000   0.0000

          k = 0.0481 0.2887-0.3368 (   310 PWs)   bands (ev):

     0.4539   8.0619  15.0689  16.4420  18.6902  20.2904

     occupation numbers 
     1.0000   0.0003   0.0000   0.0000   0.0000   0.0000

          k = 0.0481 0.3368-0.3849 (   312 PWs)   bands (ev):

     1.6546   6.2446  14.7609  16.1423  18.3853  20.0206

     occupation numbers 
     1.0000   1.0000   0.0000   0.0000   0.0000   0.0000

          k = 0.0481 0.3849-0.4330 (   315 PWs)   bands (ev):

     2.9987   4.5914  14.6063  15.9922  18.2318  19.8825

     occupation numbers 
     1.0000   1.0000   0.0000   0.0000   0.0000   0.0000

          k = 0.0962 0.0962-0.1925 (   323 PWs)   bands (ev):

    -2.2420  15.4516  15.7109  18.2293  21.4858  21.5894

     occupation numbers 
     1.0000   0.0000   0.0000   0.0000   0.0000   0.0000

          k = 0.0962 0.1443-0.2406 (   318 PWs)   bands (ev):

    -1.6292  13.3446  14.7619  17.4693  20.8494  21.8624

     occupation numbers 
     1.0000   0.0000   0.0000   0.0000   0.0000   0.0000

          k = 0.0962 0.1925-0.2887 (   317 PWs)   bands (ev):

    -0.8448  11.2178  14.0562  16.8209  20.2213  22.0745

     occupation numbers 
     1.0000   0.0000   0.0000   0.0000   0.0000   0.0000

          k = 0.0962 0.2406-0.3368 (   314 PWs)   bands (ev):

     0.1087   9.2022  13.5053  16.3061  19.7099  22.0257

     occupation numbers 
     1.0000   0.0000   0.0000   0.0000   0.0000   0.0000

          k = 0.0962 0.2887-0.3849 (   310 PWs)   bands (ev):

     1.2274   7.3182  13.1100  15.9341  19.3362  21.8537

     occupation numbers 
     1.0000   1.0002   0.0000   0.0000   0.0000   0.0000

          k = 0.0962 0.3368-0.4330 (   310 PWs)   bands (ev):

     2.5034   5.5810  12.8721  15.7094  19.1091  21.7126

     occupation numbers 
     1.0000   1.0000   0.0000   0.0000   0.0000   0.0000

          k = 0.0962 0.3849-0.4811 (   313 PWs)   bands (ev):

     3.7308   4.1996  12.7927  15.6343  19.0329  21.6608

     occupation numbers 
     1.0000   1.0000   0.0000   0.0000   0.0000   0.0000

          k = 0.1443 0.1443-0.2887 (   314 PWs)   bands (ev):

    -0.9318  12.3483  12.8143  16.7832  21.2989  21.4684

     occupation numbers 
     1.0000   0.0000   0.0000   0.0000   0.0000   0.0000

          k = 0.1443 0.1925-0.3368 (   316 PWs)   bands (ev):

    -0.0642  10.4665  11.9932  16.2074  20.8497  22.0413

     occupation numbers 
     1.0000   0.0000   0.0000   0.0000   0.0000   0.0000

          k = 0.1443 0.2406-0.3849 (   309 PWs)   bands (ev):

     0.9703   8.5387  11.4950  15.7650  20.4298  22.7123

     occupation numbers 
     1.0000   0.0000   0.0000   0.0000   0.0000   0.0000

          k = 0.1443 0.2887-0.4330 (   312 PWs)   bands (ev):

     2.1664   6.7364  11.1679  15.4662  20.1396  23.2243

     occupation numbers 
     1.0000   1.0000   0.0000   0.0000   0.0000   0.0000

          k = 0.1443 0.3368-0.4811 (   310 PWs)   bands (ev):

     3.5037   5.0940  11.0048  15.3159  19.9925  23.4300

     occupation numbers 
     1.0000   1.0000   0.0000   0.0000   0.0000   0.0000

          k = 0.1925 0.1925-0.3849 (   317 PWs)   bands (ev):

     0.8844   9.6636  10.2340  15.7039  21.5175  21.7812

     occupation numbers 
     1.0000   0.0000   0.0000   0.0000   0.0000   0.0000

          k = 0.1925 0.2406-0.4330 (   312 PWs)   bands (ev):

     1.9969   8.0187   9.6026  15.3348  21.3061  22.5778

     occupation numbers 
     1.0000   0.0015   0.0000   0.0000   0.0000   0.0000

          k = 0.1925 0.2887-0.4811 (   311 PWs)   bands (ev):

     3.2644   6.3174   9.3343  15.1105  21.1049  23.5610

     occupation numbers 
     1.0000   1.0000   0.0000   0.0000   0.0000   0.0000

          k = 0.1925 0.3368-0.5292 (   310 PWs)   bands (ev):

     4.4759   4.9577   9.2481  15.0353  21.0355  24.3093

     occupation numbers 
     1.0000   1.0000   0.0000   0.0000   0.0000   0.0000

          k = 0.2406 0.2406-0.4811 (   314 PWs)   bands (ev):

     3.1824   7.4474   8.0559  15.0403  22.2236  22.4692

     occupation numbers 
     1.0000   1.0106   0.0004   0.0000   0.0000   0.0000

          k = 0.2406 0.2887-0.5292 (   313 PWs)   bands (ev):

     4.5040   6.0547   7.6586  14.8912  22.2135  23.4987

     occupation numbers 
     1.0000   1.0000   1.0079   0.0000   0.0000   0.0000

          k = 0.2887 0.2887-0.5774 (   309 PWs)   bands (ev):

     5.7159   5.7159   6.5517  14.8173  23.4050  23.5352

     occupation numbers 
     1.0000   1.0000   1.0000   0.0000   0.0000   0.0000

          k = 0.0962 0.0962-0.0962 (   321 PWs)   bands (ev):

    -2.7689  17.7867  17.7868  17.8130  22.7963  22.7963

     occupation numbers 
     1.0000   0.0000   0.0000   0.0000   0.0000   0.0000

          k = 0.0962 0.1443-0.1443 (   321 PWs)   bands (ev):

    -2.3297  15.5221  16.8234  16.9253  22.3144  22.8535

     occupation numbers 
     1.0000   0.0000   0.0000   0.0000   0.0000   0.0000

          k = 0.0962 0.1925-0.1925 (   321 PWs)   bands (ev):

    -1.7166  13.2870  15.9688  16.1514  21.7100  22.2488

     occupation numbers 
     1.0000   0.0000   0.0000   0.0000   0.0000   0.0000

          k = 0.0962 0.2406-0.2406 (   312 PWs)   bands (ev):

    -0.9318  11.1459  15.2541  15.5057  21.1276  21.7110

     occupation numbers 
     1.0000   0.0000   0.0000   0.0000   0.0000   0.0000

          k = 0.0962 0.2887-0.2887 (   314 PWs)   bands (ev):

     0.0223   9.1244  14.6916  14.9973  20.6398  21.2672

     occupation numbers 
     1.0000   0.0000   0.0000   0.0000   0.0000   0.0000

          k = 0.0962 0.3368-0.3368 (   309 PWs)   bands (ev):

     1.1417   7.2373  14.2871  14.6313  20.2788  20.9374

     occupation numbers 
     1.0000   1.0000   0.0000   0.0000   0.0000   0.0000

          k = 0.0962 0.3849-0.3849 (   312 PWs)   bands (ev):

     2.4185   5.4981  14.0435  14.4105  20.0582  20.7346

     occupation numbers 
     1.0000   1.0000   0.0000   0.0000   0.0000   0.0000

          k = 0.0962 0.4330-0.4330 (   312 PWs)   bands (ev):

     3.6479   4.1142  13.9621  14.3368  19.9841  20.6663

     occupation numbers 
     1.0000   1.0000   0.0000   0.0000   0.0000   0.0000

          k = 0.0962-0.0000 0.0000 (   321 PWs)   bands (ev):

    -3.1211  19.2861  19.2862  21.0994  21.1410  21.9225

     occupation numbers 
     1.0000   0.0000   0.0000   0.0000   0.0000   0.0000

          k = 0.1443 0.1443-0.1925 (   317 PWs)   bands (ev):

    -1.8041  14.4498  14.7732  16.0397  22.8404  23.1435

     occupation numbers 
     1.0000   0.0000   0.0000   0.0000   0.0000   0.0000

          k = 0.1443 0.1925-0.2406 (   315 PWs)   bands (ev):

    -1.1059  12.3988  13.8638  15.3026  22.4698  23.1794

     occupation numbers 
     1.0000   0.0000   0.0000   0.0000   0.0000   0.0000

          k = 0.1443 0.2406-0.2887 (   313 PWs)   bands (ev):

    -0.2373  10.3316  13.2233  14.7010  21.9713  23.0272

     occupation numbers 
     1.0000   0.0000   0.0000   0.0000   0.0000   0.0000

          k = 0.1443 0.2887-0.3368 (   313 PWs)   bands (ev):

     0.7984   8.3841  12.7430  14.2444  21.5660  22.7778

     occupation numbers 
     1.0000   0.0000   0.0000   0.0000   0.0000   0.0000

          k = 0.1443 0.3368-0.3849 (   316 PWs)   bands (ev):

     1.9960   6.5743  12.4220  13.9378  21.2859  22.5709

     occupation numbers 
     1.0000   1.0000   0.0000   0.0000   0.0000   0.0000

          k = 0.1443 0.3849-0.4330 (   314 PWs)   bands (ev):

     3.3357   4.9274  12.2611  13.7840  21.1437  22.4589

     occupation numbers 
     1.0000   1.0000   0.0000   0.0000   0.0000   0.0000

          k = 0.1443-0.0481 0.0000 (   323 PWs)   bands (ev):

    -2.8569  17.6060  18.2354  20.4145  20.7917  21.1006

     occupation numbers 
     1.0000   0.0000   0.0000   0.0000   0.0000   0.0000

          k = 0.1925 0.1925-0.2887 (   314 PWs)   bands (ev):

    -0.3239  11.4638  11.9653  14.6312  23.0655  23.1413

     occupation numbers 
     1.0000   0.0000   0.0000   0.0000   0.0000   0.0000

          k = 0.1925 0.2406-0.3368 (   313 PWs)   bands (ev):

     0.6264   9.6560  11.2052  14.0986  22.7228  23.7215

     occupation numbers 
     1.0000   0.0000   0.0000   0.0000   0.0000   0.0000

          k = 0.1925 0.2887-0.3849 (   316 PWs)   bands (ev):

     1.7410   7.8001  10.7819  13.7138  22.4040  24.1698

     occupation numbers 
     1.0000   0.3362   0.0000   0.0000   0.0000   0.0000

          k = 0.1925 0.3368-0.4330 (   314 PWs)   bands (ev):

     3.0116   6.0765  10.5332  13.4813  22.2029  24.3380

     occupation numbers 
     1.0000   1.0000   0.0000   0.0000   0.0000   0.0000

          k = 0.1925 0.3849-0.4811 (   314 PWs)   bands (ev):

     4.2277   4.7085  10.4506  13.4036  22.1346  24.3656

     occupation numbers 
     1.0000   1.0000   0.0000   0.0000   0.0000   0.0000

          k = 0.1925-0.0962 0.0000 (   322 PWs)   bands (ev):

    -2.4174  15.4206  17.2905  19.5359  20.0288  21.0338

     occupation numbers 
     1.0000   0.0000   0.0000   0.0000   0.0000   0.0000

          k = 0.1925-0.0481-0.0481 (   321 PWs)   bands (ev):

    -2.5052  16.5031  16.6308  19.8664  20.1549  20.7300

     occupation numbers 
     1.0000   0.0000   0.0000   0.0000   0.0000   0.0000

          k = 0.2406 0.2406-0.3849 (   316 PWs)   bands (ev):

     1.6558   8.9288   9.5120  13.6390  23.5634  23.5787

     occupation numbers 
     1.0000   0.0000   0.0000   0.0000   0.0000   0.0000

          k = 0.2406 0.2887-0.4330 (   314 PWs)   bands (ev):

     2.8453   7.3619   8.9555  13.3293  23.3589  24.4875

     occupation numbers 
     1.0000   1.0008   0.0000   0.0000   0.0000   0.0000

          k = 0.2406 0.3368-0.4811 (   310 PWs)   bands (ev):

     4.1733   5.7517   8.7692  13.1736  23.2392  25.3282

     occupation numbers 
     1.0000   1.0000   0.0000   0.0000   0.0000   0.0000

          k = 0.2406-0.1443 0.0000 (   322 PWs)   bands (ev):

    -1.8041  13.2027  16.4770  18.7287  19.2693  20.9653

     occupation numbers 
     1.0000   0.0000   0.0000   0.0000   0.0000   0.0000

          k = 0.2406-0.0962-0.0481 (   319 PWs)   bands (ev):

    -1.9791  14.4058  15.6713  19.0936  19.8026  20.5594

     occupation numbers 
     1.0000   0.0000   0.0000   0.0000   0.0000   0.0000

          k = 0.2887 0.2887-0.4811 (   313 PWs)   bands (ev):

     4.1007   6.8718   7.4894  13.0966  24.4129  24.4339

     occupation numbers 
     1.0000   1.0000   1.0265   0.0000   0.0000   0.0000

          k = 0.2887 0.3368-0.5292 (   310 PWs)   bands (ev):

     5.3032   5.7314   7.1931  13.0187  24.3822  25.4247

     occupation numbers 
     1.0000   1.0000   1.0000   0.0000   0.0000   0.0000

          k = 0.2887-0.1925 0.0000 (   313 PWs)   bands (ev):

    -1.0188  11.0648  15.8042  18.0514  18.6136  20.7089

     occupation numbers 
     1.0000   0.0000   0.0000   0.0000   0.0000   0.0000

          k = 0.2887-0.1443-0.0481 (   319 PWs)   bands (ev):

    -1.2801  12.2452  14.9047  18.3613  19.2209  20.8435

     occupation numbers 
     1.0000   0.0000   0.0000   0.0000   0.0000   0.0000

          k = 0.2887-0.0962-0.0962 (   319 PWs)   bands (ev):

    -1.3673  13.3711  13.7501  18.7636  19.5454  20.1995

     occupation numbers 
     1.0000   0.0000   0.0000   0.0000   0.0000   0.0000

          k = 0.3368-0.2406 0.0000 (   312 PWs)   bands (ev):

    -0.0642   9.0431  15.2770  17.5164  18.0912  20.3793

     occupation numbers 
     1.0000   0.0000   0.0000   0.0000   0.0000   0.0000

          k = 0.3368-0.1925-0.0481 (   314 PWs)   bands (ev):

    -0.4106  10.1729  14.2872  17.7668  18.6635  21.1411

     occupation numbers 
     1.0000   0.0000   0.0000   0.0000   0.0000   0.0000

          k = 0.3368-0.1443-0.0962 (   317 PWs)   bands (ev):

    -0.5841  11.4232  12.8910  18.1963  19.2014  20.4595

     occupation numbers 
     1.0000   0.0000   0.0000   0.0000   0.0000   0.0000

          k = 0.3849-0.2887-0.0000 (   313 PWs)   bands (ev):

     1.0558   7.1550  14.8986  17.1304  17.7140  20.0945

     occupation numbers 
     1.0000   1.0000   0.0000   0.0000   0.0000   0.0000

          k = 0.3849-0.2406-0.0481 (   309 PWs)   bands (ev):

     0.6262   8.2219  13.8215  17.3176  18.2206  21.2189

     occupation numbers 
     1.0000   0.0000   0.0000   0.0000   0.0000   0.0000

          k = 0.3849-0.1925-0.0962 (   311 PWs)   bands (ev):

     0.3678   9.4326  12.3239  17.7091  18.7413  21.1095

     occupation numbers 
     1.0000   0.0000   0.0000   0.0000   0.0000   0.0000

          k = 0.3849-0.1443-0.1443 (   314 PWs)   bands (ev):

     0.2815  10.5551  11.0858  17.7597  19.5599  20.1784

     occupation numbers 
     1.0000   0.0000   0.0000   0.0000   0.0000   0.0000

          k = 0.4330-0.3368 0.0000 (   314 PWs)   bands (ev):

     2.3335   5.4145  14.6707  16.8973  17.4866  19.9091

     occupation numbers 
     1.0000   1.0000   0.0000   0.0000   0.0000   0.0000

          k = 0.4330-0.2887-0.0481 (   310 PWs)   bands (ev):

     1.8254   6.4091  13.5098  17.0167  17.9180  21.1471

     occupation numbers 
     1.0000   1.0000   0.0000   0.0000   0.0000   0.0000

          k = 0.4330-0.2406-0.0962 (   312 PWs)   bands (ev):

     1.4844   7.5597  11.9220  17.3527  18.3773  21.8393

     occupation numbers 
     1.0000   1.0713   0.0000   0.0000   0.0000   0.0000

          k = 0.4330-0.1925-0.1443 (   312 PWs)   bands (ev):

     1.3135   8.8342  10.3924  17.3624  19.3783  20.7671

     occupation numbers 
     1.0000   0.0000   0.0000   0.0000   0.0000   0.0000

          k =-0.3849-0.3849 0.8660 (   312 PWs)   bands (ev):

     3.5650   4.0284  14.5947  16.8193  17.4106  19.8453

     occupation numbers 
     1.0000   1.0000   0.0000   0.0000   0.0000   0.0000

          k =-0.3849-0.3368 0.8179 (   312 PWs)   bands (ev):

     3.1673   4.7594  13.3537  16.8659  17.7648  21.0788

     occupation numbers 
     1.0000   1.0000   0.0000   0.0000   0.0000   0.0000

          k =-0.3849-0.2887 0.7698 (   307 PWs)   bands (ev):

     2.7577   5.8291  11.6810  17.1371  18.1505  22.4134

     occupation numbers 
     1.0000   1.0000   0.0000   0.0000   0.0000   0.0000

          k =-0.3849-0.2406 0.7217 (   311 PWs)   bands (ev):

     2.5063   7.0569  10.0467  17.0838  19.1162  21.7136

     occupation numbers 
     1.0000   1.0000   0.0000   0.0000   0.0000   0.0000

          k =-0.3849-0.1925 0.6736 (   311 PWs)   bands (ev):

     2.4221   8.1851   8.7787  17.0424  20.0958  20.6450

     occupation numbers 
     1.0000   0.0000   0.0000   0.0000   0.0000   0.0000

          k =-0.3368-0.3368 0.7698 (   309 PWs)   bands (ev):

     3.9791   4.4546  11.6006  17.0649  18.0738  22.6075

     occupation numbers 
     1.0000   1.0000   0.0000   0.0000   0.0000   0.0000

          k =-0.3368-0.2887 0.7217 (   307 PWs)   bands (ev):

     3.8390   5.4251   9.8786  16.9420  18.9743  22.7687

     occupation numbers 
     1.0000   1.0000   0.0000   0.0000   0.0000   0.0000

          k =-0.3368-0.2406 0.6736 (   308 PWs)   bands (ev):

     3.6843   6.7026   8.3006  16.8377  20.1101  21.5077

     occupation numbers 
     1.0000   1.0000   0.0000   0.0000   0.0000   0.0000

          k =-0.2887-0.2887 0.6736 (   305 PWs)   bands (ev):

     4.8892   5.3645   8.2001  16.7680  20.0565  22.7663

     occupation numbers 
     1.0000   1.0000   0.0000   0.0000   0.0000   0.0000

          k =-0.2887-0.2406 0.6255 (   310 PWs)   bands (ev):

     4.9906   6.2928   6.9391  16.7053  21.1280  21.5096

     occupation numbers 
     1.0000   1.0000   1.0000   0.0000   0.0000   0.0000

          k = 0.1925 0.1925-0.1925 (   315 PWs)   bands (ev):

    -1.1930  13.5763  13.5763  14.2228  24.1858  24.1858

     occupation numbers 
     1.0000   0.0000   0.0000   0.0000   0.0000   0.0000

          k = 0.1925 0.2406-0.2406 (   313 PWs)   bands (ev):

    -0.4106  11.5836  12.8518  13.4165  23.9954  24.2251

     occupation numbers 
     1.0000   0.0000   0.0000   0.0000   0.0000   0.0000

          k = 0.1925 0.2887-0.2887 (   313 PWs)   bands (ev):

     0.5402   9.5942  12.2842  12.8638  23.6960  23.9199

     occupation numbers 
     1.0000   0.0000   0.0000   0.0000   0.0000   0.0000

          k = 0.1925 0.3368-0.3368 (   320 PWs)   bands (ev):

     1.6556   7.7235  11.8770  12.4723  23.4244  23.6664

     occupation numbers 
     1.0000   0.7426   0.0000   0.0000   0.0000   0.0000

          k = 0.1925 0.3849-0.3849 (   313 PWs)   bands (ev):

     2.9271   5.9954  11.6322  12.2373  23.2447  23.5034

     occupation numbers 
     1.0000   1.0000   0.0000   0.0000   0.0000   0.0000

          k = 0.1925 0.4330-0.4330 (   314 PWs)   bands (ev):

     4.1450   4.6248  11.5505  12.1589  23.1825  23.4473

     occupation numbers 
     1.0000   1.0000   0.0000   0.0000   0.0000   0.0000

          k = 0.1925-0.0000 0.0000 (   325 PWs)   bands (ev):

    -2.5931  17.1404  17.1404  19.3835  19.5007  21.6541

     occupation numbers 
     1.0000   0.0000   0.0000   0.0000   0.0000   0.0000

          k = 0.2406 0.2406-0.2887 (   313 PWs)   bands (ev):

     0.4541  10.7331  11.1961  12.5993  24.7095  24.9185

     occupation numbers 
     1.0000   0.0000   0.0000   0.0000   0.0000   0.0000

          k = 0.2406 0.2887-0.3368 (   316 PWs)   bands (ev):

     1.4848   8.9984  10.5301  12.1059  24.6324  25.2389

     occupation numbers 
     1.0000   0.0000   0.0000   0.0000   0.0000   0.0000

          k = 0.2406 0.3368-0.3849 (   312 PWs)   bands (ev):

     2.6762   7.2217  10.1884  11.7829  24.4431  25.3524

     occupation numbers 
     1.0000   1.0000   0.0000   0.0000   0.0000   0.0000

          k = 0.2406 0.3849-0.4330 (   313 PWs)   bands (ev):

     4.0069   5.5922  10.0211  11.6218  24.3354  25.3557

     occupation numbers 
     1.0000   1.0000   0.0000   0.0000   0.0000   0.0000

          k = 0.2406-0.0481 0.0000 (   317 PWs)   bands (ev):

    -2.1543  15.4967  16.1688  18.4464  19.1370  21.4483

     occupation numbers 
     1.0000   0.0000   0.0000   0.0000   0.0000   0.0000

          k = 0.2887 0.2887-0.3849 (   315 PWs)   bands (ev):

     2.5921   8.3550   8.9259  11.6868  25.4295  25.5948

     occupation numbers 
     1.0000   0.0000   0.0000   0.0000   0.0000   0.0000

          k = 0.2887 0.3368-0.4330 (   314 PWs)   bands (ev):

     3.8527   6.8683   8.4570  11.4413  25.4363  26.3332

     occupation numbers 
     1.0000   1.0000   0.0000   0.0000   0.0000   0.0000

          k = 0.2887 0.3849-0.4811 (   314 PWs)   bands (ev):

     5.0553   5.5320   8.3579  11.3599  25.4009  26.7464

     occupation numbers 
     1.0000   1.0000   0.0000   0.0000   0.0000   0.0000

          k = 0.2887-0.0962 0.0000 (   317 PWs)   bands (ev):

    -1.5419  13.3892  15.3377  17.6350  19.4282  20.8205

     occupation numbers 
     1.0000   0.0000   0.0000   0.0000   0.0000   0.0000

          k = 0.2887-0.0481-0.0481 (   315 PWs)   bands (ev):

    -1.6292  14.4695  14.6786  17.9955  18.4309  21.3572

     occupation numbers 
     1.0000   0.0000   0.0000   0.0000   0.0000   0.0000

          k = 0.3368 0.3368-0.4811 (   313 PWs)   bands (ev):

     5.1574   6.4599   7.0986  11.2757  26.3486  26.6197

     occupation numbers 
     1.0000   1.0000   1.0000   0.0000   0.0000   0.0000

          k = 0.3368-0.1443 0.0000 (   313 PWs)   bands (ev):

    -0.7578  11.2851  14.6534  16.9456  19.9292  20.2092

     occupation numbers 
     1.0000   0.0000   0.0000   0.0000   0.0000   0.0000

          k = 0.3368-0.0962-0.0481 (   315 PWs)   bands (ev):

    -0.9317  12.5049  13.8205  17.4166  18.6518  20.8482

     occupation numbers 
     1.0000   0.0000   0.0000   0.0000   0.0000   0.0000

          k = 0.3849-0.1925 0.0000 (   309 PWs)   bands (ev):

     0.1951   9.2783  14.1188  16.3986  19.7070  20.4615

     occupation numbers 
     1.0000   0.0000   0.0000   0.0000   0.0000   0.0000

          k = 0.3849-0.1443-0.0481 (   314 PWs)   bands (ev):

    -0.0641  10.4726  13.1922  16.8208  19.2128  20.4003

     occupation numbers 
     1.0000   0.0000   0.0000   0.0000   0.0000   0.0000

          k = 0.3849-0.0962-0.0962 (   314 PWs)   bands (ev):

    -0.1507  11.5913  12.0368  17.7452  18.1304  20.4490

     occupation numbers 
     1.0000   0.0000   0.0000   0.0000   0.0000   0.0000

          k = 0.4330-0.2406-0.0000 (   308 PWs)   bands (ev):

     1.3132   7.3985  13.7359  16.0029  19.3396  20.8314

     occupation numbers 
     1.0000   1.0028   0.0000   0.0000   0.0000   0.0000

          k = 0.4330-0.1925-0.0481 (   310 PWs)   bands (ev):

     0.9703   8.5393  12.7209  16.3593  19.5454  20.4340

     occupation numbers 
     1.0000   0.0000   0.0000   0.0000   0.0000   0.0000

          k = 0.4330-0.1443-0.0962 (   313 PWs)   bands (ev):

     0.7985   9.8004  11.3024  17.3862  18.6211  20.1078

     occupation numbers 
     1.0000   0.0000   0.0000   0.0000   0.0000   0.0000

          k = 0.4811-0.2887 0.0000 (   314 PWs)   bands (ev):

     2.5882   5.6637  13.5057  15.7636  19.1169  20.9625

     occupation numbers 
     1.0000   1.0000   0.0000   0.0000   0.0000   0.0000

          k = 0.4811-0.2406-0.0481 (   309 PWs)   bands (ev):

     2.1664   6.7365  12.4061  16.0474  19.4125  21.1113

     occupation numbers 
     1.0000   1.0000   0.0000   0.0000   0.0000   0.0000

          k = 0.4811-0.1925-0.0962 (   309 PWs)   bands (ev):

     1.9117   7.9567  10.8853  17.0172  19.0830  20.2195

     occupation numbers 
     1.0000   0.0115   0.0000   0.0000   0.0000   0.0000

          k = 0.4811-0.1443-0.1443 (   311 PWs)   bands (ev):

     1.8266   9.0815   9.6408  18.0961  18.2214  19.8387

     occupation numbers 
     1.0000   0.0000   0.0000   0.0000   0.0000   0.0000

          k =-0.3368-0.3368 0.8660 (   312 PWs)   bands (ev):

     3.8135   4.2847  13.4289  15.6836  19.0423  20.9817

     occupation numbers 
     1.0000   1.0000   0.0000   0.0000   0.0000   0.0000

          k =-0.3368-0.2887 0.8179 (   310 PWs)   bands (ev):

     3.5037   5.0941  12.2485  15.8905  19.2956  21.7308

     occupation numbers 
     1.0000   1.0000   0.0000   0.0000   0.0000   0.0000

          k =-0.3368-0.2406 0.7698 (   310 PWs)   bands (ev):

     3.1803   6.2396  10.6394  16.7901  19.1031  21.0403

     occupation numbers 
     1.0000   1.0000   0.0000   0.0000   0.0000   0.0000

          k =-0.3368-0.1925 0.7217 (   311 PWs)   bands (ev):

     3.0144   7.5199   9.0951  17.8677  18.7687  19.9658

     occupation numbers 
     1.0000   1.0446   0.0000   0.0000   0.0000   0.0000

          k =-0.2887-0.2887 0.7698 (   311 PWs)   bands (ev):

     4.3928   4.8766  10.5577  16.7139  19.0702  22.1184

     occupation numbers 
     1.0000   1.0000   0.0000   0.0000   0.0000   0.0000

          k =-0.2887-0.2406 0.7217 (   306 PWs)   bands (ev):

     4.3398   5.9153   8.9109  17.7193  18.9117  20.8016

     occupation numbers 
     1.0000   1.0000   0.0000   0.0000   0.0000   0.0000

          k =-0.2887-0.1925 0.6736 (   305 PWs)   bands (ev):

     4.2675   7.0326   7.6410  18.3581  18.9653  19.9223

     occupation numbers 
     1.0000   1.0000   1.0462   0.0000   0.0000   0.0000

          k =-0.2406-0.2406 0.6736 (   306 PWs)   bands (ev):

     5.4670   5.8949   7.3481  18.3438  19.2565  20.3294

     occupation numbers 
     1.0000   1.0000   1.0005   0.0000   0.0000   0.0000

          k = 0.2887 0.2887-0.2887 (   318 PWs)   bands (ev):

     1.3993  10.1619  10.1619  11.0882  26.1338  26.1338

     occupation numbers 
     1.0000   0.0000   0.0000   0.0000   0.0000   0.0000

          k = 0.2887 0.3368-0.3368 (   313 PWs)   bands (ev):

     2.5075   8.4878   9.7526  10.4997  26.3882  26.4207

     occupation numbers 
     1.0000   0.0000   0.0000   0.0000   0.0000   0.0000

          k = 0.2887 0.3849-0.3849 (   316 PWs)   bands (ev):

     3.7695   6.8051   9.5067  10.2237  26.4041  26.4100

     occupation numbers 
     1.0000   1.0000   0.0000   0.0000   0.0000   0.0000

          k = 0.2887 0.4330-0.4330 (   316 PWs)   bands (ev):

     4.9727   5.4572   9.4246  10.1357  26.3882  26.4031

     occupation numbers 
     1.0000   1.0000   0.0000   0.0000   0.0000   0.0000

          k = 0.2887 0.0000 0.0000 (   317 PWs)   bands (ev):

    -1.7166  15.1814  15.1814  17.1313  17.8533  22.5075

     occupation numbers 
     1.0000   0.0000   0.0000   0.0000   0.0000   0.0000

          k = 0.3368 0.3368-0.3849 (   315 PWs)   bands (ev):

     3.6879   7.9442   8.4401   9.9193  27.2361  27.3900

     occupation numbers 
     1.0000   0.0166   0.0000   0.0000   0.0000   0.0000

          k = 0.3368 0.3849-0.4330 (   319 PWs)   bands (ev):

     5.0032   6.5447   8.0899   9.7235  27.4196  27.8881

     occupation numbers 
     1.0000   1.0000   0.0001   0.0000   0.0000   0.0000

          k = 0.3368-0.0481 0.0000 (   313 PWs)   bands (ev):

    -1.1058  13.6295  14.3404  16.4711  17.4818  22.4354

     occupation numbers 
     1.0000   0.0000   0.0000   0.0000   0.0000   0.0000

          k = 0.3849 0.3849-0.4811 (   318 PWs)   bands (ev):

     6.2125   6.2125   7.0035   9.6174  28.0768  28.5107

     occupation numbers 
     1.0000   1.0000   1.0000   0.0000   0.0000   0.0000

          k = 0.3849-0.0962 0.0000 (   311 PWs)   bands (ev):

    -0.3239  11.6347  13.6496  15.8751  17.8823  21.9396

     occupation numbers 
     1.0000   0.0000   0.0000   0.0000   0.0000   0.0000

          k = 0.3849-0.0481-0.0481 (   312 PWs)   bands (ev):

    -0.4106  12.7210  12.9828  16.1430  16.9301  22.4546

     occupation numbers 
     1.0000   0.0000   0.0000   0.0000   0.0000   0.0000

          k = 0.4330-0.1443 0.0000 (   311 PWs)   bands (ev):

     0.6264   9.6637  13.1110  15.3443  18.6058  21.4724

     occupation numbers 
     1.0000   0.0000   0.0000   0.0000   0.0000   0.0000

          k = 0.4330-0.0962-0.0481 (   311 PWs)   bands (ev):

     0.4541  10.8977  12.2532  15.8085  17.2339  22.0426

     occupation numbers 
     1.0000   0.0000   0.0000   0.0000   0.0000   0.0000

          k = 0.4811-0.1925-0.0000 (   310 PWs)   bands (ev):

     1.7410   7.8011  12.7256  14.9499  19.4931  21.1194

     occupation numbers 
     1.0000   0.3318   0.0000   0.0000   0.0000   0.0000

          k = 0.4811-0.1443-0.0481 (   312 PWs)   bands (ev):

     1.4849   9.0064  11.7737  15.3859  18.0231  21.6480

     occupation numbers 
     1.0000   0.0000   0.0000   0.0000   0.0000   0.0000

          k = 0.4811-0.0962-0.0962 (   312 PWs)   bands (ev):

     1.3993  10.1267  10.6084  16.2539  16.9278  21.6921

     occupation numbers 
     1.0000   0.0000   0.0000   0.0000   0.0000   0.0000

          k = 0.5292-0.2406 0.0000 (   313 PWs)   bands (ev):

     3.0115   6.0768  12.4941  14.7094  20.4594  20.9025

     occupation numbers 
     1.0000   1.0000   0.0000   0.0000   0.0000   0.0000

          k = 0.5292-0.1925-0.0481 (   308 PWs)   bands (ev):

     2.6762   7.2229  11.4556  15.0814  19.0019  21.3500

     occupation numbers 
     1.0000   1.0000   0.0000   0.0000   0.0000   0.0000

          k = 0.5292-0.1443-0.0962 (   309 PWs)   bands (ev):

     2.5075   8.4924  10.0165  16.1298  17.5886  21.3017

     occupation numbers 
     1.0000   0.0000   0.0000   0.0000   0.0000   0.0000

          k =-0.2887-0.2887 0.8660 (   312 PWs)   bands (ev):

     4.2272   4.7092  12.4169  14.6287  20.8299  21.1542

     occupation numbers 
     1.0000   1.0000   0.0000   0.0000   0.0000   0.0000

          k =-0.2887-0.2406 0.8179 (   310 PWs)   bands (ev):

     4.0067   5.5928  11.2966  14.9258  20.0519  21.0642

     occupation numbers 
     1.0000   1.0000   0.0000   0.0000   0.0000   0.0000

          k =-0.2887-0.1925 0.7698 (   307 PWs)   bands (ev):

     3.7694   6.8064   9.7566  15.9289  18.6311  20.7749

     occupation numbers 
     1.0000   1.0000   0.0000   0.0000   0.0000   0.0000

          k =-0.2887-0.1443 0.7217 (   304 PWs)   bands (ev):

     3.6878   7.9322   8.5054  16.9456  17.4739  20.6893

     occupation numbers 
     1.0000   0.0231   0.0000   0.0000   0.0000   0.0000

          k =-0.2406-0.2406 0.7698 (   309 PWs)   bands (ev):

     4.9711   5.4595   9.6723  15.8568  19.7139  19.8461

     occupation numbers 
     1.0000   1.0000   0.0000   0.0000   0.0000   0.0000

          k =-0.2406-0.1925 0.7217 (   308 PWs)   bands (ev):

     5.0025   6.5453   8.1232  17.0134  18.4026  19.6194

     occupation numbers 
     1.0000   1.0000   0.0000   0.0000   0.0000   0.0000

          k =-0.1925-0.1925 0.6736 (   306 PWs)   bands (ev):

     6.2081   6.2081   7.0300  18.1501  18.1501  18.5867

     occupation numbers 
     1.0000   1.0000   1.0000   0.0000   0.0000   0.0000

          k = 0.3849 0.3849-0.3849 (   312 PWs)   bands (ev):

     4.9313   7.6974   7.6974   8.7196  28.6412  28.6413

     occupation numbers 
     1.0000   0.8697   0.8697   0.0000   0.0000   0.0000

          k = 0.3849 0.4330-0.4330 (   312 PWs)   bands (ev):

     6.1300   6.5136   7.6151   8.4711  28.9255  29.1474

     occupation numbers 
     1.0000   1.0000   1.0769   0.0000   0.0000   0.0000

          k = 0.3849 0.0000 0.0000 (   309 PWs)   bands (ev):

    -0.4973  13.4931  13.4931  15.2126  16.3074  23.6982

     occupation numbers 
     1.0000   0.0000   0.0000   0.0000   0.0000   0.0000

          k = 0.4330-0.0481 0.0000 (   312 PWs)   bands (ev):

     0.2816  12.0499  12.7983  14.7752  16.0177  23.7443

     occupation numbers 
     1.0000   0.0000   0.0000   0.0000   0.0000   0.0000

          k = 0.4811-0.0962 0.0000 (   312 PWs)   bands (ev):

     1.2280  10.1827  12.2570  14.3810  16.5377  23.3729

     occupation numbers 
     1.0000   0.0000   0.0000   0.0000   0.0000   0.0000

          k = 0.4811-0.0481-0.0481 (   309 PWs)   bands (ev):

     1.1423  11.2784  11.5755  14.6211  15.5984  23.6559

     occupation numbers 
     1.0000   0.0000   0.0000   0.0000   0.0000   0.0000

          k = 0.5292-0.1443-0.0000 (   308 PWs)   bands (ev):

     2.3377   8.3558  11.8700  14.0165  17.4293  22.4970

     occupation numbers 
     1.0000   0.0000   0.0000   0.0000   0.0000   0.0000

          k = 0.5292-0.0962-0.0481 (   310 PWs)   bands (ev):

     2.1679   9.6012  10.9872  14.4870  16.0236  22.3849

     occupation numbers 
     1.0000   0.0000   0.0000   0.0000   0.0000   0.0000

          k = 0.5774-0.1925 0.0000 (   310 PWs)   bands (ev):

     3.6018   6.6498  11.6376  13.7831  18.5168  21.0925

     occupation numbers 
     1.0000   1.0000   0.0000   0.0000   0.0000   0.0000

          k = 0.5774-0.1443-0.0481 (   310 PWs)   bands (ev):

     3.3527   7.8600  10.6620  14.2349  16.9705  20.9058

     occupation numbers 
     1.0000   0.1239   0.0000   0.0000   0.0000   0.0000

          k = 0.5774-0.0962-0.0962 (   312 PWs)   bands (ev):

     3.2692   8.9836   9.4848  15.0886  15.8804  20.8382

     occupation numbers 
     1.0000   0.0000   0.0000   0.0000   0.0000   0.0000

          k =-0.2406-0.2406 0.8660 (   312 PWs)   bands (ev):

     4.8057   5.2972  11.5601  13.7038  19.6844  19.8158

     occupation numbers 
     1.0000   1.0000   0.0000   0.0000   0.0000   0.0000

          k =-0.2406-0.1925 0.8179 (   312 PWs)   bands (ev):

     4.6740   6.2503  10.5010  14.0905  18.1243  19.4913

     occupation numbers 
     1.0000   1.0000   0.0000   0.0000   0.0000   0.0000

          k =-0.2406-0.1443 0.7698 (   310 PWs)   bands (ev):

     4.5217   7.5111   9.0472  15.1493  16.6710  19.3456

     occupation numbers 
     1.0000   1.0389   0.0000   0.0000   0.0000   0.0000

          k =-0.1925-0.1925 0.7698 (   309 PWs)   bands (ev):

     5.7129   6.1913   8.9524  15.1030  17.6588  18.1905

     occupation numbers 
     1.0000   1.0000   0.0000   0.0000   0.0000   0.0000

          k =-0.1925-0.1443 0.7217 (   311 PWs)   bands (ev):

     5.8166   7.1099   7.7222  16.1199  16.6436  17.9523

     occupation numbers 
     1.0000   1.0000   0.7494   0.0000   0.0000   0.0000

          k = 0.4811 0.0000 0.0000 (   317 PWs)   bands (ev):

     1.0565  12.1007  12.1007  13.6380  14.9464  24.0191

     occupation numbers 
     1.0000   0.0000   0.0000   0.0000   0.0000   0.0000

          k = 0.5292-0.0481 0.0000 (   315 PWs)   bands (ev):

     1.9977  10.7750  11.5577  13.4052  14.7796  22.3692

     occupation numbers 
     1.0000   0.0000   0.0000   0.0000   0.0000   0.0000

          k = 0.5774-0.0962-0.0000 (   315 PWs)   bands (ev):

     3.1009   9.0458  11.1696  13.1937  15.4425  20.7451

     occupation numbers 
     1.0000   0.0000   0.0000   0.0000   0.0000   0.0000

          k = 0.5774-0.0481-0.0481 (   313 PWs)   bands (ev):

     3.0167  10.1508  10.4712  13.4362  14.4990  20.6814

     occupation numbers 
     1.0000   0.0000   0.0000   0.0000   0.0000   0.0000

          k = 0.6255-0.1443 0.0000 (   314 PWs)   bands (ev):

     4.3562   7.3749  10.9366  12.9947  16.4855  19.2210

     occupation numbers 
     1.0000   1.0013   0.0000   0.0000   0.0000   0.0000

          k = 0.6255-0.0962-0.0481 (   314 PWs)   bands (ev):

     4.1926   8.6249  10.0319  13.4810  15.0634  19.0775

     occupation numbers 
     1.0000   0.0000   0.0000   0.0000   0.0000   0.0000

          k =-0.1925-0.1925 0.8660 (   306 PWs)   bands (ev):

     5.5478   6.0411  10.8590  12.9219  17.4947  18.0595

     occupation numbers 
     1.0000   1.0000   0.0000   0.0000   0.0000   0.0000

          k =-0.1925-0.1443 0.8179 (   311 PWs)   bands (ev):

     5.5021   7.0564   9.8648  13.3896  16.1192  17.6408

     occupation numbers 
     1.0000   1.0000   0.0000   0.0000   0.0000   0.0000

          k =-0.1925-0.0962 0.7698 (   309 PWs)   bands (ev):

     5.4315   8.1653   8.6844  14.2546  15.0363  17.5475

     occupation numbers 
     1.0000   0.0000   0.0000   0.0000   0.0000   0.0000

          k =-0.1443-0.1443 0.7698 (   309 PWs)   bands (ev):

     6.6160   7.0352   8.4231  14.4468  15.6235  16.5225

     occupation numbers 
     1.0000   1.0000   0.0000   0.0000   0.0000   0.0000

          k = 0.5774-0.0000 0.0000 (   321 PWs)   bands (ev):

     2.9323  11.0135  11.0135  12.4114  13.8231  20.6193

     occupation numbers 
     1.0000   0.0000   0.0000   0.0000   0.0000   0.0000

          k = 0.6255-0.0481-0.0000 (   315 PWs)   bands (ev):

     4.0267   9.8137  10.6247  12.3719  13.7975  18.9346

     occupation numbers 
     1.0000   0.0000   0.0000   0.0000   0.0000   0.0000

          k = 0.6736-0.0962 0.0000 (   313 PWs)   bands (ev):

     5.2705   8.2345  10.3913  12.3272  14.5977  17.3888

     occupation numbers 
     1.0000   0.0000   0.0000   0.0000   0.0000   0.0000

          k = 0.6736-0.0481-0.0481 (   313 PWs)   bands (ev):

     5.1907   9.3427   9.6789  12.5899  13.6444  17.3070

     occupation numbers 
     1.0000   0.0000   0.0000   0.0000   0.0000   0.0000

          k =-0.1443-0.1443 0.8660 (   308 PWs)   bands (ev):

     6.4513   6.9271  10.3135  12.2806  15.4579  16.3250

     occupation numbers 
     1.0000   1.0000   0.0000   0.0000   0.0000   0.0000

          k =-0.1443-0.0962 0.8179 (   310 PWs)   bands (ev):

     6.4838   7.9853   9.3954  12.7897  14.2721  15.9143

     occupation numbers 
     1.0000   0.0048   0.0000   0.0000   0.0000   0.0000

          k =-0.0962-0.0962 0.7698 (   306 PWs)   bands (ev):

     7.6737   7.6737   8.3732  13.7538  13.7538  15.1543

     occupation numbers 
     0.9626   0.9626   0.0000   0.0000   0.0000   0.0000

          k = 0.6736 0.0000-0.0000 (   310 PWs)   bands (ev):

     5.1095  10.2354  10.2354  11.5346  12.9542  17.2269

     occupation numbers 
     1.0000   0.0000   0.0000   0.0000   0.0000   0.0000

          k = 0.7217-0.0481 0.0000 (   313 PWs)   bands (ev):

     6.3368   9.1722  10.0018  11.6756  13.0358  15.6997

     occupation numbers 
     1.0000   0.0000   0.0000   0.0000   0.0000   0.0000

          k =-0.0962-0.0962 0.8660 (   310 PWs)   bands (ev):

     7.5097   7.9273   9.9239  11.7513  13.5868  14.7634

     occupation numbers 
     1.0381   0.0263   0.0000   0.0000   0.0000   0.0000

          k =-0.0962-0.0481 0.8179 (   312 PWs)   bands (ev):

     7.6007   8.8569   9.2127  12.0823  12.7990  14.4501

     occupation numbers 
     1.0828   0.0000   0.0000   0.0000   0.0000   0.0000

          k = 0.7698 0.0000 0.0000 (   310 PWs)   bands (ev):

     7.5371   9.7680   9.7680  11.0083  12.1850  14.2737

     occupation numbers 
     1.0564   0.0000   0.0000   0.0000   0.0000   0.0000

          k =-0.0481-0.0481 0.8660 (   298 PWs)   bands (ev):

     8.6948   8.9627   9.6901  11.2426  11.9131  13.5749

     occupation numbers 
     0.0000   0.0000   0.0000   0.0000   0.0000   0.0000

          k =-0.8660-0.8660 0.8660 (   298 PWs)   bands (ev):

     9.6121   9.6121   9.6121  10.8328  10.8328  13.1137

     occupation numbers 
     0.0000   0.0000   0.0000   0.0000   0.0000   0.0000

     the Fermi energy is     7.7868 ev

!    total energy              =      -6.70070586 Ry
     Harris-Foulkes estimate   =      -6.70070583 Ry
     estimated scf accuracy    <       0.00000079 Ry

     The total energy is the sum of the following terms:

     one-electron contribution =       2.96224119 Ry
     hartree contribution      =       0.00558524 Ry
     xc contribution           =      -4.28673540 Ry
     ewald contribution        =      -5.38183348 Ry
     smearing contrib. (-TS)   =       0.00003658 Ry

     convergence has been achieved in   3 iterations
 
     init_run     :      2.35s CPU      0.32s WALL (       1 calls)
     electrons    :      9.14s CPU      2.30s WALL (       1 calls)

     Called by init_run:
     wfcinit      :      2.29s CPU      0.23s WALL (       1 calls)
     wfcinit:atom :      0.05s CPU      0.01s WALL (     195 calls)
     wfcinit:wfcr :      2.11s CPU      0.21s WALL (     195 calls)
     potinit      :      0.00s CPU      0.00s WALL (       1 calls)

     Called by electrons:
     c_bands      :      8.47s CPU      2.03s WALL (       4 calls)
     sum_band     :      0.58s CPU      0.25s WALL (       4 calls)
     v_of_rho     :      0.01s CPU      0.01s WALL (       4 calls)
     v_h          :      0.00s CPU      0.00s WALL (       4 calls)
     v_xc         :      0.01s CPU      0.01s WALL (       4 calls)
     newd         :      0.02s CPU      0.00s WALL (       4 calls)
     mix_rho      :      0.00s CPU      0.00s WALL (       4 calls)

     Called by c_bands:
     init_us_2    :      0.24s CPU      0.06s WALL (    1755 calls)
     cegterg      :      7.32s CPU      1.68s WALL (     780 calls)

     Called by sum_band:
     sum_band:bec :      0.01s CPU      0.00s WALL (     780 calls)
     addusdens    :      0.01s CPU      0.00s WALL (       4 calls)

     Called by *egterg:
     h_psi        :      7.80s CPU      1.55s WALL (    2696 calls)
     s_psi        :      0.08s CPU      0.02s WALL (    2696 calls)
     g_psi        :      0.03s CPU      0.01s WALL (    1721 calls)
     cdiaghg      :      0.78s CPU      0.18s WALL (    2306 calls)
     cegterg:over :      0.09s CPU      0.02s WALL (    1721 calls)
     cegterg:upda :      0.06s CPU      0.02s WALL (    1721 calls)
     cegterg:last :      0.03s CPU      0.01s WALL (     882 calls)

     Called by h_psi:
     h_psi:pot    :      7.73s CPU      1.53s WALL (    2696 calls)
     h_psi:calbec :      0.16s CPU      0.03s WALL (    2696 calls)
     vloc_psi     :      7.35s CPU      1.46s WALL (    2696 calls)
     add_vuspsi   :      0.11s CPU      0.02s WALL (    2696 calls)

     General routines
     calbec       :      0.12s CPU      0.03s WALL (    3476 calls)
     fft          :      0.01s CPU      0.02s WALL (      54 calls)
     fftw         :      7.14s CPU      1.54s WALL (   31396 calls)
 
     Parallel routines
     fft_scatt_xy :      0.77s CPU      0.15s WALL (   31450 calls)
     fft_scatt_yz :      1.44s CPU      0.31s WALL (   31450 calls)
 
     PWSCF        :    11.56s CPU         2.69s WALL

 
   This run was terminated on:  22:11:50  30Jan2019            

=------------------------------------------------------------------------------=
   JOB DONE.
=------------------------------------------------------------------------------=
