
     Program PWSCF v.6.2 (svn rev. 14038) starts on 30Jan2019 at 19:10: 2 

     This program is part of the open-source Quantum ESPRESSO suite
     for quantum simulation of materials; please cite
         "P. Giannozzi et al., J. Phys.:Condens. Matter 21 395502 (2009);
         "P. Giannozzi et al., J. Phys.:Condens. Matter 29 465901 (2017);
          URL http://www.quantum-espresso.org", 
     in publications or presentations arising from this work. More details at
     http://www.quantum-espresso.org/quote

     Parallel version (MPI), running on     1 processors

     MPI processes distributed on     1 nodes
     Reading input from ./Alkpoint10.in
Warning: card &IONS ignored
Warning: card / ignored
Warning: card &CELL ignored
Warning: card / ignored

     Current dimensions of program PWSCF are:
     Max number of different atomic species (ntypx) = 10
     Max number of k-points (npk) =  40000
     Max angular momentum in pseudopotentials (lmaxx) =  3
     Message from routine iosys:
     minimal I/O required, wf_collect reset to FALSE

     Subspace diagonalization in iterative solution of the eigenvalue problem:
     a serial algorithm will be used

 
     G-vector sticks info
     --------------------
     sticks:   dense  smooth     PW     G-vecs:    dense   smooth      PW
     Sum         283     283    129                 3103     3103     887
 


     bravais-lattice index     =            0
     lattice parameter (alat)  =       5.2705  a.u.
     unit-cell volume          =     112.7033 (a.u.)^3
     number of atoms/cell      =            1
     number of atomic types    =            1
     number of electrons       =         3.00
     number of Kohn-Sham states=            6
     kinetic-energy cutoff     =      35.0000  Ry
     charge density cutoff     =     140.0000  Ry
     convergence threshold     =      1.0E-06
     mixing beta               =       0.7000
     number of iterations used =            8  plain     mixing
     Exchange-correlation      = SLA  PW   PBE  PBE ( 1  4  3  4 0 0)

     celldm(1)=   5.270512  celldm(2)=   0.000000  celldm(3)=   0.000000
     celldm(4)=   0.000000  celldm(5)=   0.000000  celldm(6)=   0.000000

     crystal axes: (cart. coord. in units of alat)
               a(1) = (   0.577350   0.577350   0.577350 )  
               a(2) = (   0.577350  -0.577350  -0.577350 )  
               a(3) = (  -0.577350   0.577350  -0.577350 )  

     reciprocal axes: (cart. coord. in units 2 pi/alat)
               b(1) = (  0.866025  0.866025  0.000000 )  
               b(2) = (  0.866025  0.000000 -0.866025 )  
               b(3) = (  0.000000  0.866025 -0.866025 )  


     PseudoPot. # 1 for Al read from file:
     ./al_pbe_v1.uspp.F.UPF
     MD5 check sum: 0a6289f5291fc8f409219462bc851e1f
     Pseudo is Ultrasoft + core correction, Zval =  3.0
     Generated by new atomic code, or converted to UPF format
     Using radial grid of  893 points,  3 beta functions with: 
                l(1) =   0
                l(2) =   1
                l(3) =   2
     Q(r) pseudized with  8 coefficients,  rinner =    0.900   0.900   0.900
                                                       0.900   0.900

     atomic species   valence    mass     pseudopotential
        Al             3.00    26.98150     Al( 1.00)

     48 Sym. Ops., with inversion, found


                                    s                        frac. trans.

      isym =  1     identity                                     

 cryst.   s( 1) = (     1          0          0      )
                  (     0          1          0      )
                  (     0          0          1      )

 cart.    s( 1) = (  1.0000000  0.0000000  0.0000000 )
                  (  0.0000000  1.0000000  0.0000000 )
                  (  0.0000000  0.0000000  1.0000000 )


      isym =  2     180 deg rotation - cart. axis [0,0,1]        

 cryst.   s( 2) = (    -1         -1         -1      )
                  (     0          0          1      )
                  (     0          1          0      )

 cart.    s( 2) = ( -1.0000000  0.0000000  0.0000000 )
                  (  0.0000000 -1.0000000  0.0000000 )
                  (  0.0000000  0.0000000  1.0000000 )


      isym =  3     180 deg rotation - cart. axis [0,1,0]        

 cryst.   s( 3) = (     0          0          1      )
                  (    -1         -1         -1      )
                  (     1          0          0      )

 cart.    s( 3) = ( -1.0000000  0.0000000  0.0000000 )
                  (  0.0000000  1.0000000  0.0000000 )
                  (  0.0000000  0.0000000 -1.0000000 )


      isym =  4     180 deg rotation - cart. axis [1,0,0]        

 cryst.   s( 4) = (     0          1          0      )
                  (     1          0          0      )
                  (    -1         -1         -1      )

 cart.    s( 4) = (  1.0000000  0.0000000  0.0000000 )
                  (  0.0000000 -1.0000000  0.0000000 )
                  (  0.0000000  0.0000000 -1.0000000 )


      isym =  5     180 deg rotation - cart. axis [1,1,0]        

 cryst.   s( 5) = (     1          1          1      )
                  (     0         -1          0      )
                  (     0          0         -1      )

 cart.    s( 5) = (  0.0000000  1.0000000  0.0000000 )
                  (  1.0000000  0.0000000  0.0000000 )
                  (  0.0000000  0.0000000 -1.0000000 )


      isym =  6     180 deg rotation - cart. axis [1,-1,0]       

 cryst.   s( 6) = (    -1          0          0      )
                  (     0          0         -1      )
                  (     0         -1          0      )

 cart.    s( 6) = (  0.0000000 -1.0000000  0.0000000 )
                  ( -1.0000000  0.0000000  0.0000000 )
                  (  0.0000000  0.0000000 -1.0000000 )


      isym =  7      90 deg rotation - cart. axis [0,0,-1]       

 cryst.   s( 7) = (     0          0         -1      )
                  (    -1          0          0      )
                  (     1          1          1      )

 cart.    s( 7) = (  0.0000000  1.0000000  0.0000000 )
                  ( -1.0000000  0.0000000  0.0000000 )
                  (  0.0000000  0.0000000  1.0000000 )


      isym =  8      90 deg rotation - cart. axis [0,0,1]        

 cryst.   s( 8) = (     0         -1          0      )
                  (     1          1          1      )
                  (    -1          0          0      )

 cart.    s( 8) = (  0.0000000 -1.0000000  0.0000000 )
                  (  1.0000000  0.0000000  0.0000000 )
                  (  0.0000000  0.0000000  1.0000000 )


      isym =  9     180 deg rotation - cart. axis [1,0,1]        

 cryst.   s( 9) = (     0          0         -1      )
                  (     0         -1          0      )
                  (    -1          0          0      )

 cart.    s( 9) = (  0.0000000  0.0000000  1.0000000 )
                  (  0.0000000 -1.0000000  0.0000000 )
                  (  1.0000000  0.0000000  0.0000000 )


      isym = 10     180 deg rotation - cart. axis [-1,0,1]       

 cryst.   s(10) = (    -1          0          0      )
                  (     1          1          1      )
                  (     0          0         -1      )

 cart.    s(10) = (  0.0000000  0.0000000 -1.0000000 )
                  (  0.0000000 -1.0000000  0.0000000 )
                  ( -1.0000000  0.0000000  0.0000000 )


      isym = 11      90 deg rotation - cart. axis [0,1,0]        

 cryst.   s(11) = (     1          1          1      )
                  (    -1          0          0      )
                  (     0         -1          0      )

 cart.    s(11) = (  0.0000000  0.0000000  1.0000000 )
                  (  0.0000000  1.0000000  0.0000000 )
                  ( -1.0000000  0.0000000  0.0000000 )


      isym = 12      90 deg rotation - cart. axis [0,-1,0]       

 cryst.   s(12) = (     0         -1          0      )
                  (     0          0         -1      )
                  (     1          1          1      )

 cart.    s(12) = (  0.0000000  0.0000000 -1.0000000 )
                  (  0.0000000  1.0000000  0.0000000 )
                  (  1.0000000  0.0000000  0.0000000 )


      isym = 13     180 deg rotation - cart. axis [0,1,1]        

 cryst.   s(13) = (     0         -1          0      )
                  (    -1          0          0      )
                  (     0          0         -1      )

 cart.    s(13) = ( -1.0000000  0.0000000  0.0000000 )
                  (  0.0000000  0.0000000  1.0000000 )
                  (  0.0000000  1.0000000  0.0000000 )


      isym = 14     180 deg rotation - cart. axis [0,1,-1]       

 cryst.   s(14) = (    -1          0          0      )
                  (     0         -1          0      )
                  (     1          1          1      )

 cart.    s(14) = ( -1.0000000  0.0000000  0.0000000 )
                  (  0.0000000  0.0000000 -1.0000000 )
                  (  0.0000000 -1.0000000  0.0000000 )


      isym = 15      90 deg rotation - cart. axis [-1,0,0]       

 cryst.   s(15) = (     1          1          1      )
                  (     0          0         -1      )
                  (    -1          0          0      )

 cart.    s(15) = (  1.0000000  0.0000000  0.0000000 )
                  (  0.0000000  0.0000000  1.0000000 )
                  (  0.0000000 -1.0000000  0.0000000 )


      isym = 16      90 deg rotation - cart. axis [1,0,0]        

 cryst.   s(16) = (     0          0         -1      )
                  (     1          1          1      )
                  (     0         -1          0      )

 cart.    s(16) = (  1.0000000  0.0000000  0.0000000 )
                  (  0.0000000  0.0000000 -1.0000000 )
                  (  0.0000000  1.0000000  0.0000000 )


      isym = 17     120 deg rotation - cart. axis [-1,-1,-1]     

 cryst.   s(17) = (     1          0          0      )
                  (    -1         -1         -1      )
                  (     0          1          0      )

 cart.    s(17) = (  0.0000000  1.0000000  0.0000000 )
                  (  0.0000000  0.0000000  1.0000000 )
                  (  1.0000000  0.0000000  0.0000000 )


      isym = 18     120 deg rotation - cart. axis [-1,1,1]       

 cryst.   s(18) = (     0          0          1      )
                  (     0          1          0      )
                  (    -1         -1         -1      )

 cart.    s(18) = (  0.0000000 -1.0000000  0.0000000 )
                  (  0.0000000  0.0000000  1.0000000 )
                  ( -1.0000000  0.0000000  0.0000000 )


      isym = 19     120 deg rotation - cart. axis [1,1,-1]       

 cryst.   s(19) = (     0          1          0      )
                  (     0          0          1      )
                  (     1          0          0      )

 cart.    s(19) = (  0.0000000  1.0000000  0.0000000 )
                  (  0.0000000  0.0000000 -1.0000000 )
                  ( -1.0000000  0.0000000  0.0000000 )


      isym = 20     120 deg rotation - cart. axis [1,-1,1]       

 cryst.   s(20) = (    -1         -1         -1      )
                  (     1          0          0      )
                  (     0          0          1      )

 cart.    s(20) = (  0.0000000 -1.0000000  0.0000000 )
                  (  0.0000000  0.0000000 -1.0000000 )
                  (  1.0000000  0.0000000  0.0000000 )


      isym = 21     120 deg rotation - cart. axis [1,1,1]        

 cryst.   s(21) = (     1          0          0      )
                  (     0          0          1      )
                  (    -1         -1         -1      )

 cart.    s(21) = (  0.0000000  0.0000000  1.0000000 )
                  (  1.0000000  0.0000000  0.0000000 )
                  (  0.0000000  1.0000000  0.0000000 )


      isym = 22     120 deg rotation - cart. axis [-1,1,-1]      

 cryst.   s(22) = (     0          1          0      )
                  (    -1         -1         -1      )
                  (     0          0          1      )

 cart.    s(22) = (  0.0000000  0.0000000  1.0000000 )
                  ( -1.0000000  0.0000000  0.0000000 )
                  (  0.0000000 -1.0000000  0.0000000 )


      isym = 23     120 deg rotation - cart. axis [1,-1,-1]      

 cryst.   s(23) = (    -1         -1         -1      )
                  (     0          1          0      )
                  (     1          0          0      )

 cart.    s(23) = (  0.0000000  0.0000000 -1.0000000 )
                  ( -1.0000000  0.0000000  0.0000000 )
                  (  0.0000000  1.0000000  0.0000000 )


      isym = 24     120 deg rotation - cart. axis [-1,-1,1]      

 cryst.   s(24) = (     0          0          1      )
                  (     1          0          0      )
                  (     0          1          0      )

 cart.    s(24) = (  0.0000000  0.0000000 -1.0000000 )
                  (  1.0000000  0.0000000  0.0000000 )
                  (  0.0000000 -1.0000000  0.0000000 )


      isym = 25     inversion                                    

 cryst.   s(25) = (    -1          0          0      )
                  (     0         -1          0      )
                  (     0          0         -1      )

 cart.    s(25) = ( -1.0000000  0.0000000  0.0000000 )
                  (  0.0000000 -1.0000000  0.0000000 )
                  (  0.0000000  0.0000000 -1.0000000 )


      isym = 26     inv. 180 deg rotation - cart. axis [0,0,1]   

 cryst.   s(26) = (     1          1          1      )
                  (     0          0         -1      )
                  (     0         -1          0      )

 cart.    s(26) = (  1.0000000  0.0000000  0.0000000 )
                  (  0.0000000  1.0000000  0.0000000 )
                  (  0.0000000  0.0000000 -1.0000000 )


      isym = 27     inv. 180 deg rotation - cart. axis [0,1,0]   

 cryst.   s(27) = (     0          0         -1      )
                  (     1          1          1      )
                  (    -1          0          0      )

 cart.    s(27) = (  1.0000000  0.0000000  0.0000000 )
                  (  0.0000000 -1.0000000  0.0000000 )
                  (  0.0000000  0.0000000  1.0000000 )


      isym = 28     inv. 180 deg rotation - cart. axis [1,0,0]   

 cryst.   s(28) = (     0         -1          0      )
                  (    -1          0          0      )
                  (     1          1          1      )

 cart.    s(28) = ( -1.0000000  0.0000000  0.0000000 )
                  (  0.0000000  1.0000000  0.0000000 )
                  (  0.0000000  0.0000000  1.0000000 )


      isym = 29     inv. 180 deg rotation - cart. axis [1,1,0]   

 cryst.   s(29) = (    -1         -1         -1      )
                  (     0          1          0      )
                  (     0          0          1      )

 cart.    s(29) = (  0.0000000 -1.0000000  0.0000000 )
                  ( -1.0000000  0.0000000  0.0000000 )
                  (  0.0000000  0.0000000  1.0000000 )


      isym = 30     inv. 180 deg rotation - cart. axis [1,-1,0]  

 cryst.   s(30) = (     1          0          0      )
                  (     0          0          1      )
                  (     0          1          0      )

 cart.    s(30) = (  0.0000000  1.0000000  0.0000000 )
                  (  1.0000000  0.0000000  0.0000000 )
                  (  0.0000000  0.0000000  1.0000000 )


      isym = 31     inv.  90 deg rotation - cart. axis [0,0,-1]  

 cryst.   s(31) = (     0          0          1      )
                  (     1          0          0      )
                  (    -1         -1         -1      )

 cart.    s(31) = (  0.0000000 -1.0000000  0.0000000 )
                  (  1.0000000  0.0000000  0.0000000 )
                  (  0.0000000  0.0000000 -1.0000000 )


      isym = 32     inv.  90 deg rotation - cart. axis [0,0,1]   

 cryst.   s(32) = (     0          1          0      )
                  (    -1         -1         -1      )
                  (     1          0          0      )

 cart.    s(32) = (  0.0000000  1.0000000  0.0000000 )
                  ( -1.0000000  0.0000000  0.0000000 )
                  (  0.0000000  0.0000000 -1.0000000 )


      isym = 33     inv. 180 deg rotation - cart. axis [1,0,1]   

 cryst.   s(33) = (     0          0          1      )
                  (     0          1          0      )
                  (     1          0          0      )

 cart.    s(33) = (  0.0000000  0.0000000 -1.0000000 )
                  (  0.0000000  1.0000000  0.0000000 )
                  ( -1.0000000  0.0000000  0.0000000 )


      isym = 34     inv. 180 deg rotation - cart. axis [-1,0,1]  

 cryst.   s(34) = (     1          0          0      )
                  (    -1         -1         -1      )
                  (     0          0          1      )

 cart.    s(34) = (  0.0000000  0.0000000  1.0000000 )
                  (  0.0000000  1.0000000  0.0000000 )
                  (  1.0000000  0.0000000  0.0000000 )


      isym = 35     inv.  90 deg rotation - cart. axis [0,1,0]   

 cryst.   s(35) = (    -1         -1         -1      )
                  (     1          0          0      )
                  (     0          1          0      )

 cart.    s(35) = (  0.0000000  0.0000000 -1.0000000 )
                  (  0.0000000 -1.0000000  0.0000000 )
                  (  1.0000000  0.0000000  0.0000000 )


      isym = 36     inv.  90 deg rotation - cart. axis [0,-1,0]  

 cryst.   s(36) = (     0          1          0      )
                  (     0          0          1      )
                  (    -1         -1         -1      )

 cart.    s(36) = (  0.0000000  0.0000000  1.0000000 )
                  (  0.0000000 -1.0000000  0.0000000 )
                  ( -1.0000000  0.0000000  0.0000000 )


      isym = 37     inv. 180 deg rotation - cart. axis [0,1,1]   

 cryst.   s(37) = (     0          1          0      )
                  (     1          0          0      )
                  (     0          0          1      )

 cart.    s(37) = (  1.0000000  0.0000000  0.0000000 )
                  (  0.0000000  0.0000000 -1.0000000 )
                  (  0.0000000 -1.0000000  0.0000000 )


      isym = 38     inv. 180 deg rotation - cart. axis [0,1,-1]  

 cryst.   s(38) = (     1          0          0      )
                  (     0          1          0      )
                  (    -1         -1         -1      )

 cart.    s(38) = (  1.0000000  0.0000000  0.0000000 )
                  (  0.0000000  0.0000000  1.0000000 )
                  (  0.0000000  1.0000000  0.0000000 )


      isym = 39     inv.  90 deg rotation - cart. axis [-1,0,0]  

 cryst.   s(39) = (    -1         -1         -1      )
                  (     0          0          1      )
                  (     1          0          0      )

 cart.    s(39) = ( -1.0000000  0.0000000  0.0000000 )
                  (  0.0000000  0.0000000 -1.0000000 )
                  (  0.0000000  1.0000000  0.0000000 )


      isym = 40     inv.  90 deg rotation - cart. axis [1,0,0]   

 cryst.   s(40) = (     0          0          1      )
                  (    -1         -1         -1      )
                  (     0          1          0      )

 cart.    s(40) = ( -1.0000000  0.0000000  0.0000000 )
                  (  0.0000000  0.0000000  1.0000000 )
                  (  0.0000000 -1.0000000  0.0000000 )


      isym = 41     inv. 120 deg rotation - cart. axis [-1,-1,-1]

 cryst.   s(41) = (    -1          0          0      )
                  (     1          1          1      )
                  (     0         -1          0      )

 cart.    s(41) = (  0.0000000 -1.0000000  0.0000000 )
                  (  0.0000000  0.0000000 -1.0000000 )
                  ( -1.0000000  0.0000000  0.0000000 )


      isym = 42     inv. 120 deg rotation - cart. axis [-1,1,1]  

 cryst.   s(42) = (     0          0         -1      )
                  (     0         -1          0      )
                  (     1          1          1      )

 cart.    s(42) = (  0.0000000  1.0000000  0.0000000 )
                  (  0.0000000  0.0000000 -1.0000000 )
                  (  1.0000000  0.0000000  0.0000000 )


      isym = 43     inv. 120 deg rotation - cart. axis [1,1,-1]  

 cryst.   s(43) = (     0         -1          0      )
                  (     0          0         -1      )
                  (    -1          0          0      )

 cart.    s(43) = (  0.0000000 -1.0000000  0.0000000 )
                  (  0.0000000  0.0000000  1.0000000 )
                  (  1.0000000  0.0000000  0.0000000 )


      isym = 44     inv. 120 deg rotation - cart. axis [1,-1,1]  

 cryst.   s(44) = (     1          1          1      )
                  (    -1          0          0      )
                  (     0          0         -1      )

 cart.    s(44) = (  0.0000000  1.0000000  0.0000000 )
                  (  0.0000000  0.0000000  1.0000000 )
                  ( -1.0000000  0.0000000  0.0000000 )


      isym = 45     inv. 120 deg rotation - cart. axis [1,1,1]   

 cryst.   s(45) = (    -1          0          0      )
                  (     0          0         -1      )
                  (     1          1          1      )

 cart.    s(45) = (  0.0000000  0.0000000 -1.0000000 )
                  ( -1.0000000  0.0000000  0.0000000 )
                  (  0.0000000 -1.0000000  0.0000000 )


      isym = 46     inv. 120 deg rotation - cart. axis [-1,1,-1] 

 cryst.   s(46) = (     0         -1          0      )
                  (     1          1          1      )
                  (     0          0         -1      )

 cart.    s(46) = (  0.0000000  0.0000000 -1.0000000 )
                  (  1.0000000  0.0000000  0.0000000 )
                  (  0.0000000  1.0000000  0.0000000 )


      isym = 47     inv. 120 deg rotation - cart. axis [1,-1,-1] 

 cryst.   s(47) = (     1          1          1      )
                  (     0         -1          0      )
                  (    -1          0          0      )

 cart.    s(47) = (  0.0000000  0.0000000  1.0000000 )
                  (  1.0000000  0.0000000  0.0000000 )
                  (  0.0000000 -1.0000000  0.0000000 )


      isym = 48     inv. 120 deg rotation - cart. axis [-1,-1,1] 

 cryst.   s(48) = (     0          0         -1      )
                  (    -1          0          0      )
                  (     0         -1          0      )

 cart.    s(48) = (  0.0000000  0.0000000  1.0000000 )
                  ( -1.0000000  0.0000000  0.0000000 )
                  (  0.0000000  1.0000000  0.0000000 )


   Cartesian axes

     site n.     atom                  positions (alat units)
         1           Al  tau(   1) = (   0.0000000   0.0000000   0.0000000  )

   Crystallographic axes

     site n.     atom                  positions (cryst. coord.)
         1           Al  tau(   1) = (  0.0000000  0.0000000  0.0000000  )

     number of k points=    47  Marzari-Vanderbilt smearing, width (Ry)=  0.0100
                       cart. coord. in units 2pi/alat
        k(    1) = (   0.0000000   0.0000000   0.0000000), wk =   0.0020000
        k(    2) = (   0.0000000   0.0866025  -0.0866025), wk =   0.0240000
        k(    3) = (   0.0000000   0.1732051  -0.1732051), wk =   0.0240000
        k(    4) = (   0.0000000   0.2598076  -0.2598076), wk =   0.0240000
        k(    5) = (   0.0000000   0.3464102  -0.3464102), wk =   0.0240000
        k(    6) = (   0.0000000  -0.4330127   0.4330127), wk =   0.0120000
        k(    7) = (   0.0866025   0.0866025  -0.1732051), wk =   0.0480000
        k(    8) = (   0.0866025   0.1732051  -0.2598076), wk =   0.0960000
        k(    9) = (   0.0866025   0.2598076  -0.3464102), wk =   0.0960000
        k(   10) = (   0.0866025   0.3464102  -0.4330127), wk =   0.0960000
        k(   11) = (   0.1732051   0.1732051  -0.3464102), wk =   0.0480000
        k(   12) = (   0.1732051   0.2598076  -0.4330127), wk =   0.0960000
        k(   13) = (   0.1732051   0.3464102  -0.5196152), wk =   0.0480000
        k(   14) = (   0.2598076   0.2598076  -0.5196152), wk =   0.0480000
        k(   15) = (   0.1732051   0.1732051  -0.1732051), wk =   0.0160000
        k(   16) = (   0.1732051   0.2598076  -0.2598076), wk =   0.0480000
        k(   17) = (   0.1732051   0.3464102  -0.3464102), wk =   0.0480000
        k(   18) = (   0.1732051   0.4330127  -0.4330127), wk =   0.0240000
        k(   19) = (   0.1732051   0.0000000  -0.0000000), wk =   0.0120000
        k(   20) = (   0.2598076   0.2598076  -0.3464102), wk =   0.0480000
        k(   21) = (   0.2598076   0.3464102  -0.4330127), wk =   0.0960000
        k(   22) = (   0.2598076  -0.0866025  -0.0000000), wk =   0.0480000
        k(   23) = (   0.3464102   0.3464102  -0.5196152), wk =   0.0160000
        k(   24) = (   0.3464102  -0.1732051   0.0000000), wk =   0.0480000
        k(   25) = (   0.3464102  -0.0866025  -0.0866025), wk =   0.0480000
        k(   26) = (   0.4330127  -0.2598076   0.0000000), wk =   0.0480000
        k(   27) = (   0.4330127  -0.1732051  -0.0866025), wk =   0.0960000
        k(   28) = (  -0.3464102  -0.3464102   0.8660254), wk =   0.0240000
        k(   29) = (  -0.3464102  -0.2598076   0.7794229), wk =   0.0960000
        k(   30) = (  -0.3464102  -0.1732051   0.6928203), wk =   0.0480000
        k(   31) = (  -0.2598076  -0.2598076   0.6928203), wk =   0.0480000
        k(   32) = (   0.3464102   0.3464102  -0.3464102), wk =   0.0160000
        k(   33) = (   0.3464102   0.4330127  -0.4330127), wk =   0.0240000
        k(   34) = (   0.3464102   0.0000000  -0.0000000), wk =   0.0120000
        k(   35) = (   0.4330127  -0.0866025   0.0000000), wk =   0.0480000
        k(   36) = (   0.5196152  -0.1732051   0.0000000), wk =   0.0480000
        k(   37) = (   0.5196152  -0.0866025  -0.0866025), wk =   0.0480000
        k(   38) = (  -0.2598076  -0.2598076   0.8660254), wk =   0.0240000
        k(   39) = (  -0.2598076  -0.1732051   0.7794229), wk =   0.0960000
        k(   40) = (  -0.1732051  -0.1732051   0.6928203), wk =   0.0160000
        k(   41) = (   0.5196152   0.0000000   0.0000000), wk =   0.0120000
        k(   42) = (   0.6062178  -0.0866025   0.0000000), wk =   0.0480000
        k(   43) = (  -0.1732051  -0.1732051   0.8660254), wk =   0.0240000
        k(   44) = (  -0.1732051  -0.0866025   0.7794229), wk =   0.0480000
        k(   45) = (   0.6928203   0.0000000   0.0000000), wk =   0.0120000
        k(   46) = (  -0.0866025  -0.0866025   0.8660254), wk =   0.0240000
        k(   47) = (  -0.8660254  -0.8660254   0.8660254), wk =   0.0020000

                       cryst. coord.
        k(    1) = (   0.0000000   0.0000000   0.0000000), wk =   0.0020000
        k(    2) = (   0.0000000   0.0000000   0.1000000), wk =   0.0240000
        k(    3) = (   0.0000000   0.0000000   0.2000000), wk =   0.0240000
        k(    4) = (   0.0000000   0.0000000   0.3000000), wk =   0.0240000
        k(    5) = (   0.0000000   0.0000000   0.4000000), wk =   0.0240000
        k(    6) = (   0.0000000   0.0000000  -0.5000000), wk =   0.0120000
        k(    7) = (   0.0000000   0.1000000   0.1000000), wk =   0.0480000
        k(    8) = (   0.0000000   0.1000000   0.2000000), wk =   0.0960000
        k(    9) = (   0.0000000   0.1000000   0.3000000), wk =   0.0960000
        k(   10) = (  -0.0000000   0.1000000   0.4000000), wk =   0.0960000
        k(   11) = (   0.0000000   0.2000000   0.2000000), wk =   0.0480000
        k(   12) = (  -0.0000000   0.2000000   0.3000000), wk =   0.0960000
        k(   13) = (   0.0000000   0.2000000   0.4000000), wk =   0.0480000
        k(   14) = (   0.0000000   0.3000000   0.3000000), wk =   0.0480000
        k(   15) = (   0.1000000   0.1000000   0.1000000), wk =   0.0160000
        k(   16) = (   0.1000000   0.1000000   0.2000000), wk =   0.0480000
        k(   17) = (   0.1000000   0.1000000   0.3000000), wk =   0.0480000
        k(   18) = (   0.1000000   0.1000000   0.4000000), wk =   0.0240000
        k(   19) = (   0.1000000   0.1000000  -0.1000000), wk =   0.0120000
        k(   20) = (   0.1000000   0.2000000   0.2000000), wk =   0.0480000
        k(   21) = (   0.1000000   0.2000000   0.3000000), wk =   0.0960000
        k(   22) = (   0.1000000   0.2000000  -0.2000000), wk =   0.0480000
        k(   23) = (   0.1000000   0.3000000   0.3000000), wk =   0.0160000
        k(   24) = (   0.1000000   0.3000000  -0.3000000), wk =   0.0480000
        k(   25) = (   0.1000000   0.3000000  -0.2000000), wk =   0.0480000
        k(   26) = (   0.1000000   0.4000000  -0.4000000), wk =   0.0480000
        k(   27) = (   0.1000000   0.4000000  -0.3000000), wk =   0.0960000
        k(   28) = (   0.1000000  -0.5000000  -0.5000000), wk =   0.0240000
        k(   29) = (   0.1000000  -0.5000000  -0.4000000), wk =   0.0960000
        k(   30) = (   0.1000000  -0.5000000  -0.3000000), wk =   0.0480000
        k(   31) = (   0.1000000  -0.4000000  -0.4000000), wk =   0.0480000
        k(   32) = (   0.2000000   0.2000000   0.2000000), wk =   0.0160000
        k(   33) = (   0.2000000   0.2000000   0.3000000), wk =   0.0240000
        k(   34) = (   0.2000000   0.2000000  -0.2000000), wk =   0.0120000
        k(   35) = (   0.2000000   0.3000000  -0.3000000), wk =   0.0480000
        k(   36) = (   0.2000000   0.4000000  -0.4000000), wk =   0.0480000
        k(   37) = (   0.2000000   0.4000000  -0.3000000), wk =   0.0480000
        k(   38) = (   0.2000000  -0.5000000  -0.5000000), wk =   0.0240000
        k(   39) = (   0.2000000  -0.5000000  -0.4000000), wk =   0.0960000
        k(   40) = (   0.2000000  -0.4000000  -0.4000000), wk =   0.0160000
        k(   41) = (   0.3000000   0.3000000  -0.3000000), wk =   0.0120000
        k(   42) = (   0.3000000   0.4000000  -0.4000000), wk =   0.0480000
        k(   43) = (   0.3000000  -0.5000000  -0.5000000), wk =   0.0240000
        k(   44) = (   0.3000000  -0.5000000  -0.4000000), wk =   0.0480000
        k(   45) = (   0.4000000   0.4000000  -0.4000000), wk =   0.0120000
        k(   46) = (   0.4000000  -0.5000000  -0.5000000), wk =   0.0240000
        k(   47) = (  -0.5000000  -0.5000000  -0.5000000), wk =   0.0020000

     Dense  grid:     3103 G-vectors     FFT dimensions: (  20,  20,  20)

     Dynamical RAM for                 wfc:       0.04 MB

     Dynamical RAM for     wfc (w. buffer):       1.73 MB

     Dynamical RAM for           str. fact:       0.05 MB

     Dynamical RAM for           local pot:       0.00 MB

     Dynamical RAM for          nlocal pot:       0.05 MB

     Dynamical RAM for                qrad:       0.23 MB

     Dynamical RAM for          rho,v,vnew:       0.33 MB

     Dynamical RAM for               rhoin:       0.11 MB

     Dynamical RAM for            rho*nmix:       0.76 MB

     Dynamical RAM for           G-vectors:       0.20 MB

     Dynamical RAM for          h,s,v(r/c):       0.03 MB

     Dynamical RAM for          <psi|beta>:       0.00 MB

     Dynamical RAM for                 psi:       0.14 MB

     Dynamical RAM for                hpsi:       0.14 MB

     Dynamical RAM for                spsi:       0.14 MB

     Dynamical RAM for      wfcinit/wfcrot:       0.07 MB

     Dynamical RAM for           addusdens:       2.89 MB

     Estimated static dynamical RAM per process >       3.85 MB

     Estimated max dynamical RAM per process >       6.74 MB

     Initial potential from superposition of free atoms

     starting charge    2.99753, renormalised to    3.00000
     Starting wfc are    4 randomized atomic wfcs +    2 random wfc

     total cpu time spent up to now is        0.5 secs

     Self-consistent Calculation

     iteration #  1     ecut=    35.00 Ry     beta= 0.70
     Davidson diagonalization with overlap
     ethr =  1.00E-02,  avg # of iterations =  4.8

     Threshold (ethr) on eigenvalues was too large:
     Diagonalizing with lowered threshold

     Davidson diagonalization with overlap
     ethr =  1.85E-04,  avg # of iterations =  1.5

     total cpu time spent up to now is        1.5 secs

     total energy              =      -6.70168177 Ry
     Harris-Foulkes estimate   =      -6.70368375 Ry
     estimated scf accuracy    <       0.00553236 Ry

     iteration #  2     ecut=    35.00 Ry     beta= 0.70
     Davidson diagonalization with overlap
     ethr =  1.84E-04,  avg # of iterations =  1.0

     total cpu time spent up to now is        1.8 secs

     total energy              =      -6.70171731 Ry
     Harris-Foulkes estimate   =      -6.70182008 Ry
     estimated scf accuracy    <       0.00029806 Ry

     iteration #  3     ecut=    35.00 Ry     beta= 0.70
     Davidson diagonalization with overlap
     ethr =  9.94E-06,  avg # of iterations =  1.5

     total cpu time spent up to now is        2.2 secs

     End of self-consistent calculation

          k = 0.0000 0.0000 0.0000 (   381 PWs)   bands (ev):

    -3.2973  20.9707  20.9710  22.0582  22.0582  22.0582

     occupation numbers 
     1.0000   0.0000   0.0000   0.0000   0.0000   0.0000

          k = 0.0000 0.0866-0.0866 (   388 PWs)   bands (ev):

    -3.0117  18.0911  19.3895  19.9761  21.1826  22.3385

     occupation numbers 
     1.0000   0.0000   0.0000   0.0000   0.0000   0.0000

          k = 0.0000 0.1732-0.1732 (   384 PWs)   bands (ev):

    -2.1576  14.0244  17.8241  18.3927  19.7391  20.9938

     occupation numbers 
     1.0000   0.0000   0.0000   0.0000   0.0000   0.0000

          k = 0.0000 0.2598-0.2598 (   392 PWs)   bands (ev):

    -0.7438  10.1647  16.6983  17.1155  18.5774  19.9312

     occupation numbers 
     1.0000   0.0000   0.0000   0.0000   0.0000   0.0000

          k = 0.0000 0.3464-0.3464 (   402 PWs)   bands (ev):

     1.2137   6.7130  16.0229  16.3213  17.8579  19.2400

     occupation numbers 
     1.0000   1.0000   0.0000   0.0000   0.0000   0.0000

          k = 0.0000-0.4330 0.4330 (   392 PWs)   bands (ev):

     3.4823   3.9432  15.7979  16.0534  17.6157  19.0006

     occupation numbers 
     1.0000   1.0000   0.0000   0.0000   0.0000   0.0000

          k = 0.0866 0.0866-0.1732 (   391 PWs)   bands (ev):

    -2.4418  16.1110  16.3164  18.5564  21.5215  21.7142

     occupation numbers 
     1.0000   0.0000   0.0000   0.0000   0.0000   0.0000

          k = 0.0866 0.1732-0.2598 (   389 PWs)   bands (ev):

    -1.3078  12.2296  14.7454  17.2033  20.3603  21.9664

     occupation numbers 
     1.0000   0.0000   0.0000   0.0000   0.0000   0.0000

          k = 0.0866 0.2598-0.3464 (   387 PWs)   bands (ev):

     0.3783   8.5776  13.7331  16.2517  19.4133  21.6643

     occupation numbers 
     1.0000   0.0000   0.0000   0.0000   0.0000   0.0000

          k = 0.0866 0.3464-0.4330 (   396 PWs)   bands (ev):

     2.5906   5.3694  13.2224  15.7678  18.9228  21.3284

     occupation numbers 
     1.0000   1.0000   0.0000   0.0000   0.0000   0.0000

          k = 0.1732 0.1732-0.3464 (   388 PWs)   bands (ev):

     0.0986  10.6831  11.2227  16.0887  21.3709  21.6133

     occupation numbers 
     1.0000   0.0000   0.0000   0.0000   0.0000   0.0000

          k = 0.1732 0.2598-0.4330 (   395 PWs)   bands (ev):

     2.0446   7.4976  10.2044  15.3729  20.8282  23.0145

     occupation numbers 
     1.0000   1.0425   0.0000   0.0000   0.0000   0.0000

          k = 0.1732 0.3464-0.5196 (   393 PWs)   bands (ev):

     4.2873   4.7686   9.9319  15.1297  20.5982  24.1442

     occupation numbers 
     1.0000   1.0000   0.0000   0.0000   0.0000   0.0000

          k = 0.2598 0.2598-0.5196 (   389 PWs)   bands (ev):

     4.2218   6.6963   7.3194  14.8983  22.6407  22.8467

     occupation numbers 
     1.0000   1.0000   1.0004   0.0000   0.0000   0.0000

          k = 0.1732 0.1732-0.1732 (   390 PWs)   bands (ev):

    -1.5906  14.3660  14.3660  14.9175  23.8636  23.8636

     occupation numbers 
     1.0000   0.0000   0.0000   0.0000   0.0000   0.0000

          k = 0.1732 0.2598-0.2598 (   392 PWs)   bands (ev):

    -0.1817  10.6657  13.0661  13.5891  23.3070  23.5815

     occupation numbers 
     1.0000   0.0000   0.0000   0.0000   0.0000   0.0000

          k = 0.1732 0.3464-0.3464 (   396 PWs)   bands (ev):

     1.7683   7.2432  12.2765  12.8414  22.7412  23.0578

     occupation numbers 
     1.0000   1.0000   0.0000   0.0000   0.0000   0.0000

          k = 0.1732 0.4330-0.4330 (   394 PWs)   bands (ev):

     4.0192   4.4966  12.0122  12.5908  22.5300  22.8675

     occupation numbers 
     1.0000   1.0000   0.0000   0.0000   0.0000   0.0000

          k = 0.1732 0.0000-0.0000 (   385 PWs)   bands (ev):

    -2.7265  17.5604  17.5605  19.8330  19.8712  21.5249

     occupation numbers 
     1.0000   0.0000   0.0000   0.0000   0.0000   0.0000

          k = 0.2598 0.2598-0.3464 (   394 PWs)   bands (ev):

     1.4919   9.3637   9.9141  12.3766  24.7583  24.9086

     occupation numbers 
     1.0000   0.0000   0.0000   0.0000   0.0000   0.0000

          k = 0.2598 0.3464-0.4330 (   391 PWs)   bands (ev):

     3.6843   6.4317   9.1497  11.8555  24.5757  25.9562

     occupation numbers 
     1.0000   1.0000   0.0000   0.0000   0.0000   0.0000

          k = 0.2598-0.0866-0.0000 (   385 PWs)   bands (ev):

    -1.8739  14.2066  15.8697  18.1713  19.6809  20.7712

     occupation numbers 
     1.0000   0.0000   0.0000   0.0000   0.0000   0.0000

          k = 0.3464 0.3464-0.5196 (   393 PWs)   bands (ev):

     5.8952   5.8952   6.7263  11.5902  26.2563  26.6936

     occupation numbers 
     1.0000   1.0000   1.0000   0.0000   0.0000   0.0000

          k = 0.3464-0.1732 0.0000 (   385 PWs)   bands (ev):

    -0.4624  10.4117  14.6415  16.9303  19.6609  20.4481

     occupation numbers 
     1.0000   0.0000   0.0000   0.0000   0.0000   0.0000

          k = 0.3464-0.0866-0.0866 (   391 PWs)   bands (ev):

    -0.7437  12.4866  12.8844  18.0920  18.4027  20.4336

     occupation numbers 
     1.0000   0.0000   0.0000   0.0000   0.0000   0.0000

          k = 0.4330-0.2598 0.0000 (   396 PWs)   bands (ev):

     1.4913   6.9778  13.8989  16.1657  18.9462  20.8116

     occupation numbers 
     1.0000   1.0000   0.0000   0.0000   0.0000   0.0000

          k = 0.4330-0.1732-0.0866 (   392 PWs)   bands (ev):

     0.9362   9.0818  11.6866  17.2622  19.0425  20.1399

     occupation numbers 
     1.0000   0.0000   0.0000   0.0000   0.0000   0.0000

          k =-0.3464-0.3464 0.8660 (   394 PWs)   bands (ev):

     3.7506   4.2204  13.6506  15.9078  18.7042  20.7864

     occupation numbers 
     1.0000   1.0000   0.0000   0.0000   0.0000   0.0000

          k =-0.3464-0.2598 0.7794 (   398 PWs)   bands (ev):

     3.1388   5.9055  11.1621  16.7696  18.8508  21.6186

     occupation numbers 
     1.0000   1.0000   0.0000   0.0000   0.0000   0.0000

          k =-0.3464-0.1732 0.6928 (   394 PWs)   bands (ev):

     2.8696   8.0254   8.6140  18.1996  18.7856  19.8050

     occupation numbers 
     1.0000   0.0006   0.0000   0.0000   0.0000   0.0000

          k =-0.2598-0.2598 0.6928 (   396 PWs)   bands (ev):

     5.0906   5.5631   8.1050  18.0408  19.0252  21.1182

     occupation numbers 
     1.0000   1.0000   0.0000   0.0000   0.0000   0.0000

          k = 0.3464 0.3464-0.3464 (   387 PWs)   bands (ev):

     3.4167   8.5667   8.5667   9.5566  27.6001  27.6002

     occupation numbers 
     1.0000   0.0000   0.0000   0.0000   0.0000   0.0000

          k = 0.3464 0.4330-0.4330 (   390 PWs)   bands (ev):

     5.6277   6.0845   8.3005   9.0726  28.0361  28.1437

     occupation numbers 
     1.0000   1.0000   0.0000   0.0000   0.0000   0.0000

          k = 0.3464 0.0000-0.0000 (   390 PWs)   bands (ev):

    -1.0255  14.1345  14.1345  15.9388  16.9088  23.1825

     occupation numbers 
     1.0000   0.0000   0.0000   0.0000   0.0000   0.0000

          k = 0.4330-0.0866 0.0000 (   398 PWs)   bands (ev):

     0.3785  11.1128  12.8866  15.0404  16.9157  22.8496

     occupation numbers 
     1.0000   0.0000   0.0000   0.0000   0.0000   0.0000

          k = 0.5196-0.1732 0.0000 (   403 PWs)   bands (ev):

     2.3206   7.7624  12.1355  14.3156  18.4650  22.2063

     occupation numbers 
     1.0000   0.4282   0.0000   0.0000   0.0000   0.0000

          k = 0.5196-0.0866-0.0866 (   406 PWs)   bands (ev):

     2.0455   9.8564  10.3234  15.4006  16.1893  22.3880

     occupation numbers 
     1.0000   0.0000   0.0000   0.0000   0.0000   0.0000

          k =-0.2598-0.2598 0.8660 (   400 PWs)   bands (ev):

     4.5547   5.0434  11.8849  14.0574  20.4547  20.6008

     occupation numbers 
     1.0000   1.0000   0.0000   0.0000   0.0000   0.0000

          k =-0.2598-0.1732 0.7794 (   400 PWs)   bands (ev):

     4.2272   6.9571   9.6042  15.2254  17.7331  20.0825

     occupation numbers 
     1.0000   1.0000   0.0000   0.0000   0.0000   0.0000

          k =-0.1732-0.1732 0.6928 (   406 PWs)   bands (ev):

     6.4246   6.4246   7.2385  17.1945  17.1945  17.9616

     occupation numbers 
     1.0000   1.0000   1.0000   0.0000   0.0000   0.0000

          k = 0.5196 0.0000 0.0000 (   410 PWs)   bands (ev):

     1.7693  11.6296  11.6296  13.1051  14.4677  22.6915

     occupation numbers 
     1.0000   0.0000   0.0000   0.0000   0.0000   0.0000

          k = 0.6062-0.0866 0.0000 (   400 PWs)   bands (ev):

     3.6909   9.0153  10.8746  12.8438  14.8921  19.6961

     occupation numbers 
     1.0000   0.0000   0.0000   0.0000   0.0000   0.0000

          k =-0.1732-0.1732 0.8660 (   398 PWs)   bands (ev):

     5.8902   6.3801  10.6228  12.6496  16.6611  17.3548

     occupation numbers 
     1.0000   1.0000   0.0000   0.0000   0.0000   0.0000

          k =-0.1732-0.0866 0.7794 (   398 PWs)   bands (ev):

     5.8345   8.2691   8.7694  13.7763  14.5761  16.8614

     occupation numbers 
     1.0000   0.0000   0.0000   0.0000   0.0000   0.0000

          k = 0.6928 0.0000 0.0000 (   394 PWs)   bands (ev):

     5.5782  10.1177  10.1177  11.4009  12.8069  16.5824

     occupation numbers 
     1.0000   0.0000   0.0000   0.0000   0.0000   0.0000

          k =-0.0866-0.0866 0.8660 (   390 PWs)   bands (ev):

     7.7388   8.1367   9.8653  11.6524  13.2344  14.4880

     occupation numbers 
     0.5550   0.0000   0.0000   0.0000   0.0000   0.0000

          k =-0.8660-0.8660 0.8660 (   370 PWs)   bands (ev):

     9.6127   9.6127   9.6127  10.8325  10.8325  13.1156

     occupation numbers 
     0.0000   0.0000   0.0000   0.0000   0.0000   0.0000

     the Fermi energy is     7.7678 ev

!    total energy              =      -6.70173127 Ry
     Harris-Foulkes estimate   =      -6.70173124 Ry
     estimated scf accuracy    <       0.00000076 Ry

     The total energy is the sum of the following terms:

     one-electron contribution =       2.96163647 Ry
     hartree contribution      =       0.00559666 Ry
     xc contribution           =      -4.28710747 Ry
     ewald contribution        =      -5.38183349 Ry
     smearing contrib. (-TS)   =      -0.00002343 Ry

     convergence has been achieved in   3 iterations
 
     init_run     :      2.95s CPU      0.34s WALL (       1 calls)
     electrons    :     31.48s CPU      1.68s WALL (       1 calls)

     Called by init_run:
     wfcinit      :      2.66s CPU      0.15s WALL (       1 calls)
     wfcinit:atom :      0.06s CPU      0.00s WALL (      47 calls)
     wfcinit:wfcr :      2.44s CPU      0.14s WALL (      47 calls)
     potinit      :      0.01s CPU      0.01s WALL (       1 calls)

     Called by electrons:
     c_bands      :     26.55s CPU      1.42s WALL (       4 calls)
     sum_band     :      4.41s CPU      0.23s WALL (       4 calls)
     v_of_rho     :      0.21s CPU      0.01s WALL (       4 calls)
     v_h          :      0.01s CPU      0.00s WALL (       4 calls)
     v_xc         :      0.20s CPU      0.01s WALL (       4 calls)
     newd         :      0.25s CPU      0.02s WALL (       4 calls)
     mix_rho      :      0.03s CPU      0.00s WALL (       4 calls)

     Called by c_bands:
     init_us_2    :      0.81s CPU      0.04s WALL (     423 calls)
     cegterg      :     24.94s CPU      1.33s WALL (     188 calls)

     Called by sum_band:
     sum_band:bec :      0.06s CPU      0.00s WALL (     188 calls)
     addusdens    :      0.17s CPU      0.01s WALL (       4 calls)

     Called by *egterg:
     h_psi        :     22.59s CPU      1.21s WALL (     650 calls)
     s_psi        :      0.26s CPU      0.01s WALL (     650 calls)
     g_psi        :      0.18s CPU      0.01s WALL (     415 calls)
     cdiaghg      :      1.14s CPU      0.06s WALL (     556 calls)
     cegterg:over :      0.52s CPU      0.03s WALL (     415 calls)
     cegterg:upda :      0.34s CPU      0.02s WALL (     415 calls)
     cegterg:last :      0.20s CPU      0.01s WALL (     210 calls)

     Called by h_psi:
     h_psi:pot    :     22.25s CPU      1.19s WALL (     650 calls)
     h_psi:calbec :      0.86s CPU      0.05s WALL (     650 calls)
     vloc_psi     :     20.52s CPU      1.09s WALL (     650 calls)
     add_vuspsi   :      0.35s CPU      0.02s WALL (     650 calls)

     General routines
     calbec       :      0.74s CPU      0.04s WALL (     838 calls)
     fft          :      0.08s CPU      0.04s WALL (      54 calls)
     fftw         :     20.72s CPU      1.10s WALL (    7552 calls)
 
     Parallel routines
 
     PWSCF        :    34.55s CPU         2.18s WALL

 
   This run was terminated on:  19:10: 5  30Jan2019            

=------------------------------------------------------------------------------=
   JOB DONE.
=------------------------------------------------------------------------------=
