
     Program PWSCF v.6.2 (svn rev. 14038) starts on 29Jan2019 at  2:53:35 

     This program is part of the open-source Quantum ESPRESSO suite
     for quantum simulation of materials; please cite
         "P. Giannozzi et al., J. Phys.:Condens. Matter 21 395502 (2009);
         "P. Giannozzi et al., J. Phys.:Condens. Matter 29 465901 (2017);
          URL http://www.quantum-espresso.org", 
     in publications or presentations arising from this work. More details at
     http://www.quantum-espresso.org/quote

     Parallel version (MPI), running on     1 processors

     MPI processes distributed on     1 nodes
     Reading input from ./8d310b2447ab.in
Warning: card &CELL ignored
Warning: card / ignored

     Current dimensions of program PWSCF are:
     Max number of different atomic species (ntypx) = 10
     Max number of k-points (npk) =  40000
     Max angular momentum in pseudopotentials (lmaxx) =  3
     Message from routine iosys:
     minimal I/O required, wf_collect reset to FALSE

     Subspace diagonalization in iterative solution of the eigenvalue problem:
     a serial algorithm will be used

 
     G-vector sticks info
     --------------------
     sticks:   dense  smooth     PW     G-vecs:    dense   smooth      PW
     Sum         349     349    121                 4279     4279     869
 


     bravais-lattice index     =            0
     lattice parameter (alat)  =       5.2813  a.u.
     unit-cell volume          =     104.1629 (a.u.)^3
     number of atoms/cell      =            1
     number of atomic types    =            1
     number of electrons       =         3.00
     number of Kohn-Sham states=            6
     kinetic-energy cutoff     =      45.0000  Ry
     charge density cutoff     =     180.0000  Ry
     convergence threshold     =      1.0E-06
     mixing beta               =       0.7000
     number of iterations used =            8  plain     mixing
     Exchange-correlation      = SLA  PW   PBE  PBE ( 1  4  3  4 0 0)
     nstep                     =           50


     celldm(1)=   5.281322  celldm(2)=   0.000000  celldm(3)=   0.000000
     celldm(4)=   0.000000  celldm(5)=   0.000000  celldm(6)=   0.000000

     crystal axes: (cart. coord. in units of alat)
               a(1) = (   0.866025   0.000000   0.500000 )  
               a(2) = (   0.288675   0.816496   0.500000 )  
               a(3) = (   0.000000   0.000000   1.000000 )  

     reciprocal axes: (cart. coord. in units 2 pi/alat)
               b(1) = (  1.154701 -0.408248  0.000000 )  
               b(2) = (  0.000000  1.224745  0.000000 )  
               b(3) = ( -0.577350 -0.408248  1.000000 )  


     PseudoPot. # 1 for Al read from file:
     ./al_pbe_v1.uspp.F.UPF
     MD5 check sum: 0a6289f5291fc8f409219462bc851e1f
     Pseudo is Ultrasoft + core correction, Zval =  3.0
     Generated by new atomic code, or converted to UPF format
     Using radial grid of  893 points,  3 beta functions with: 
                l(1) =   0
                l(2) =   1
                l(3) =   2
     Q(r) pseudized with  8 coefficients,  rinner =    0.900   0.900   0.900
                                                       0.900   0.900

     atomic species   valence    mass     pseudopotential
        Al             3.00    26.98150     Al( 1.00)

      4 Sym. Ops., with inversion, found


                                    s                        frac. trans.

      isym =  1     identity                                     

 cryst.   s( 1) = (     1          0          0      )
                  (     0          1          0      )
                  (     0          0          1      )

 cart.    s( 1) = (  1.0000000 -0.0000000  0.0000000 )
                  (  0.0000000  1.0000000  0.0000000 )
                  (  0.0000000  0.0000000  1.0000000 )


      isym =  2     180 deg rotation - cart. axis [0,0,1]        

 cryst.   s( 2) = (    -1          0          1      )
                  (     0         -1          1      )
                  (     0          0          1      )

 cart.    s( 2) = ( -1.0000000  0.0000000  0.0000000 )
                  (  0.0000000 -1.0000000  0.0000000 )
                  (  0.0000000  0.0000000  1.0000000 )


      isym =  3     inversion                                    

 cryst.   s( 3) = (    -1          0          0      )
                  (     0         -1          0      )
                  (     0          0         -1      )

 cart.    s( 3) = ( -1.0000000  0.0000000  0.0000000 )
                  (  0.0000000 -1.0000000  0.0000000 )
                  (  0.0000000 -0.0000000 -1.0000000 )


      isym =  4     inv. 180 deg rotation - cart. axis [0,0,1]   

 cryst.   s( 4) = (     1          0         -1      )
                  (     0          1         -1      )
                  (     0          0         -1      )

 cart.    s( 4) = (  1.0000000 -0.0000000  0.0000000 )
                  (  0.0000000  1.0000000  0.0000000 )
                  (  0.0000000 -0.0000000 -1.0000000 )


   Cartesian axes

     site n.     atom                  positions (alat units)
         1           Al  tau(   1) = (   0.0000000   0.0000000   0.0000000  )

   Crystallographic axes

     site n.     atom                  positions (cryst. coord.)
         1           Al  tau(   1) = (  0.0000000  0.0000000  0.0000000  )

     number of k points=  2112  Marzari-Vanderbilt smearing, width (Ry)=  0.0100
                       cart. coord. in units 2pi/alat
        k(    1) = (   0.0000000   0.0000000   0.0000000), wk =   0.0002500
        k(    2) = (  -0.0288675  -0.0204124   0.0500000), wk =   0.0010000
        k(    3) = (  -0.0577350  -0.0408248   0.1000000), wk =   0.0010000
        k(    4) = (  -0.0866025  -0.0612373   0.1500000), wk =   0.0010000
        k(    5) = (  -0.1154701  -0.0816497   0.2000000), wk =   0.0010000
        k(    6) = (  -0.1443376  -0.1020621   0.2499999), wk =   0.0010000
        k(    7) = (  -0.1732051  -0.1224745   0.2999999), wk =   0.0010000
        k(    8) = (  -0.2020726  -0.1428869   0.3499999), wk =   0.0010000
        k(    9) = (  -0.2309401  -0.1632994   0.3999999), wk =   0.0010000
        k(   10) = (  -0.2598076  -0.1837118   0.4499999), wk =   0.0010000
        k(   11) = (   0.2886752   0.2041242  -0.4999999), wk =   0.0005000
        k(   12) = (   0.0000000   0.0612372   0.0000000), wk =   0.0005000
        k(   13) = (  -0.0288675   0.0408248   0.0500000), wk =   0.0010000
        k(   14) = (  -0.0577350   0.0204124   0.1000000), wk =   0.0010000
        k(   15) = (  -0.0866025  -0.0000000   0.1500000), wk =   0.0010000
        k(   16) = (  -0.1154701  -0.0204124   0.2000000), wk =   0.0010000
        k(   17) = (  -0.1443376  -0.0408249   0.2499999), wk =   0.0010000
        k(   18) = (  -0.1732051  -0.0612373   0.2999999), wk =   0.0010000
        k(   19) = (  -0.2020726  -0.0816497   0.3499999), wk =   0.0010000
        k(   20) = (  -0.2309401  -0.1020621   0.3999999), wk =   0.0010000
        k(   21) = (  -0.2598076  -0.1224745   0.4499999), wk =   0.0010000
        k(   22) = (   0.2886752   0.2653615  -0.4999999), wk =   0.0010000
        k(   23) = (   0.2598076   0.2449490  -0.4499999), wk =   0.0010000
        k(   24) = (   0.2309401   0.2245366  -0.3999999), wk =   0.0010000
        k(   25) = (   0.2020726   0.2041242  -0.3499999), wk =   0.0010000
        k(   26) = (   0.1732051   0.1837118  -0.2999999), wk =   0.0010000
        k(   27) = (   0.1443376   0.1632994  -0.2499999), wk =   0.0010000
        k(   28) = (   0.1154701   0.1428869  -0.2000000), wk =   0.0010000
        k(   29) = (   0.0866025   0.1224745  -0.1500000), wk =   0.0010000
        k(   30) = (   0.0577350   0.1020621  -0.1000000), wk =   0.0010000
        k(   31) = (   0.0288675   0.0816497  -0.0500000), wk =   0.0010000
        k(   32) = (   0.0000000   0.1224745   0.0000000), wk =   0.0005000
        k(   33) = (  -0.0288675   0.1020621   0.0500000), wk =   0.0010000
        k(   34) = (  -0.0577350   0.0816497   0.1000000), wk =   0.0010000
        k(   35) = (  -0.0866025   0.0612372   0.1500000), wk =   0.0010000
        k(   36) = (  -0.1154701   0.0408248   0.2000000), wk =   0.0010000
        k(   37) = (  -0.1443376   0.0204124   0.2499999), wk =   0.0010000
        k(   38) = (  -0.1732051  -0.0000000   0.2999999), wk =   0.0010000
        k(   39) = (  -0.2020726  -0.0204124   0.3499999), wk =   0.0010000
        k(   40) = (  -0.2309401  -0.0408249   0.3999999), wk =   0.0010000
        k(   41) = (  -0.2598076  -0.0612373   0.4499999), wk =   0.0010000
        k(   42) = (   0.2886752   0.3265987  -0.4999999), wk =   0.0010000
        k(   43) = (   0.2598076   0.3061863  -0.4499999), wk =   0.0010000
        k(   44) = (   0.2309401   0.2857739  -0.3999999), wk =   0.0010000
        k(   45) = (   0.2020726   0.2653614  -0.3499999), wk =   0.0010000
        k(   46) = (   0.1732051   0.2449490  -0.2999999), wk =   0.0010000
        k(   47) = (   0.1443376   0.2245366  -0.2499999), wk =   0.0010000
        k(   48) = (   0.1154701   0.2041242  -0.2000000), wk =   0.0010000
        k(   49) = (   0.0866025   0.1837118  -0.1500000), wk =   0.0010000
        k(   50) = (   0.0577350   0.1632993  -0.1000000), wk =   0.0010000
        k(   51) = (   0.0288675   0.1428869  -0.0500000), wk =   0.0010000
        k(   52) = (   0.0000000   0.1837117   0.0000000), wk =   0.0005000
        k(   53) = (  -0.0288675   0.1632993   0.0500000), wk =   0.0010000
        k(   54) = (  -0.0577350   0.1428869   0.1000000), wk =   0.0010000
        k(   55) = (  -0.0866025   0.1224745   0.1500000), wk =   0.0010000
        k(   56) = (  -0.1154701   0.1020621   0.2000000), wk =   0.0010000
        k(   57) = (  -0.1443376   0.0816496   0.2499999), wk =   0.0010000
        k(   58) = (  -0.1732051   0.0612372   0.2999999), wk =   0.0010000
        k(   59) = (  -0.2020726   0.0408248   0.3499999), wk =   0.0010000
        k(   60) = (  -0.2309401   0.0204124   0.3999999), wk =   0.0010000
        k(   61) = (  -0.2598076  -0.0000000   0.4499999), wk =   0.0010000
        k(   62) = (   0.2886752   0.3878360  -0.4999999), wk =   0.0010000
        k(   63) = (   0.2598076   0.3674235  -0.4499999), wk =   0.0010000
        k(   64) = (   0.2309401   0.3470111  -0.3999999), wk =   0.0010000
        k(   65) = (   0.2020726   0.3265987  -0.3499999), wk =   0.0010000
        k(   66) = (   0.1732051   0.3061863  -0.2999999), wk =   0.0010000
        k(   67) = (   0.1443376   0.2857739  -0.2499999), wk =   0.0010000
        k(   68) = (   0.1154701   0.2653614  -0.2000000), wk =   0.0010000
        k(   69) = (   0.0866025   0.2449490  -0.1500000), wk =   0.0010000
        k(   70) = (   0.0577350   0.2245366  -0.1000000), wk =   0.0010000
        k(   71) = (   0.0288675   0.2041242  -0.0500000), wk =   0.0010000
        k(   72) = (   0.0000000   0.2449490   0.0000000), wk =   0.0005000
        k(   73) = (  -0.0288675   0.2245366   0.0500000), wk =   0.0010000
        k(   74) = (  -0.0577350   0.2041242   0.1000000), wk =   0.0010000
        k(   75) = (  -0.0866025   0.1837117   0.1500000), wk =   0.0010000
        k(   76) = (  -0.1154701   0.1632993   0.2000000), wk =   0.0010000
        k(   77) = (  -0.1443376   0.1428869   0.2499999), wk =   0.0010000
        k(   78) = (  -0.1732051   0.1224745   0.2999999), wk =   0.0010000
        k(   79) = (  -0.2020726   0.1020621   0.3499999), wk =   0.0010000
        k(   80) = (  -0.2309401   0.0816496   0.3999999), wk =   0.0010000
        k(   81) = (  -0.2598076   0.0612372   0.4499999), wk =   0.0010000
        k(   82) = (   0.2886752   0.4490732  -0.4999999), wk =   0.0010000
        k(   83) = (   0.2598076   0.4286608  -0.4499999), wk =   0.0010000
        k(   84) = (   0.2309401   0.4082484  -0.3999999), wk =   0.0010000
        k(   85) = (   0.2020726   0.3878359  -0.3499999), wk =   0.0010000
        k(   86) = (   0.1732051   0.3674235  -0.2999999), wk =   0.0010000
        k(   87) = (   0.1443376   0.3470111  -0.2499999), wk =   0.0010000
        k(   88) = (   0.1154701   0.3265987  -0.2000000), wk =   0.0010000
        k(   89) = (   0.0866025   0.3061863  -0.1500000), wk =   0.0010000
        k(   90) = (   0.0577350   0.2857738  -0.1000000), wk =   0.0010000
        k(   91) = (   0.0288675   0.2653614  -0.0500000), wk =   0.0010000
        k(   92) = (   0.0000000   0.3061862   0.0000000), wk =   0.0005000
        k(   93) = (  -0.0288675   0.2857738   0.0500000), wk =   0.0010000
        k(   94) = (  -0.0577350   0.2653614   0.1000000), wk =   0.0010000
        k(   95) = (  -0.0866025   0.2449490   0.1500000), wk =   0.0010000
        k(   96) = (  -0.1154701   0.2245366   0.2000000), wk =   0.0010000
        k(   97) = (  -0.1443376   0.2041241   0.2499999), wk =   0.0010000
        k(   98) = (  -0.1732051   0.1837117   0.2999999), wk =   0.0010000
        k(   99) = (  -0.2020726   0.1632993   0.3499999), wk =   0.0010000
        k(  100) = (  -0.2309401   0.1428869   0.3999999), wk =   0.0010000
        k(  101) = (  -0.2598076   0.1224745   0.4499999), wk =   0.0010000
        k(  102) = (   0.2886752   0.5103105  -0.4999999), wk =   0.0010000
        k(  103) = (   0.2598076   0.4898980  -0.4499999), wk =   0.0010000
        k(  104) = (   0.2309401   0.4694856  -0.3999999), wk =   0.0010000
        k(  105) = (   0.2020726   0.4490732  -0.3499999), wk =   0.0010000
        k(  106) = (   0.1732051   0.4286608  -0.2999999), wk =   0.0010000
        k(  107) = (   0.1443376   0.4082484  -0.2499999), wk =   0.0010000
        k(  108) = (   0.1154701   0.3878359  -0.2000000), wk =   0.0010000
        k(  109) = (   0.0866025   0.3674235  -0.1500000), wk =   0.0010000
        k(  110) = (   0.0577350   0.3470111  -0.1000000), wk =   0.0010000
        k(  111) = (   0.0288675   0.3265987  -0.0500000), wk =   0.0010000
        k(  112) = (   0.0000000   0.3674235   0.0000000), wk =   0.0005000
        k(  113) = (  -0.0288675   0.3470111   0.0500000), wk =   0.0010000
        k(  114) = (  -0.0577350   0.3265987   0.1000000), wk =   0.0010000
        k(  115) = (  -0.0866025   0.3061862   0.1500000), wk =   0.0010000
        k(  116) = (  -0.1154701   0.2857738   0.2000000), wk =   0.0010000
        k(  117) = (  -0.1443376   0.2653614   0.2499999), wk =   0.0010000
        k(  118) = (  -0.1732051   0.2449490   0.2999999), wk =   0.0010000
        k(  119) = (  -0.2020726   0.2245366   0.3499999), wk =   0.0010000
        k(  120) = (  -0.2309401   0.2041241   0.3999999), wk =   0.0010000
        k(  121) = (  -0.2598076   0.1837117   0.4499999), wk =   0.0010000
        k(  122) = (   0.2886752   0.5715477  -0.4999999), wk =   0.0010000
        k(  123) = (   0.2598076   0.5511353  -0.4499999), wk =   0.0010000
        k(  124) = (   0.2309401   0.5307229  -0.3999999), wk =   0.0010000
        k(  125) = (   0.2020726   0.5103104  -0.3499999), wk =   0.0010000
        k(  126) = (   0.1732051   0.4898980  -0.2999999), wk =   0.0010000
        k(  127) = (   0.1443376   0.4694856  -0.2499999), wk =   0.0010000
        k(  128) = (   0.1154701   0.4490732  -0.2000000), wk =   0.0010000
        k(  129) = (   0.0866025   0.4286608  -0.1500000), wk =   0.0010000
        k(  130) = (   0.0577350   0.4082483  -0.1000000), wk =   0.0010000
        k(  131) = (   0.0288675   0.3878359  -0.0500000), wk =   0.0010000
        k(  132) = (   0.0000000   0.4286607   0.0000000), wk =   0.0005000
        k(  133) = (  -0.0288675   0.4082483   0.0500000), wk =   0.0010000
        k(  134) = (  -0.0577350   0.3878359   0.1000000), wk =   0.0010000
        k(  135) = (  -0.0866025   0.3674235   0.1500000), wk =   0.0010000
        k(  136) = (  -0.1154701   0.3470111   0.2000000), wk =   0.0010000
        k(  137) = (  -0.1443376   0.3265986   0.2499999), wk =   0.0010000
        k(  138) = (  -0.1732051   0.3061862   0.2999999), wk =   0.0010000
        k(  139) = (  -0.2020726   0.2857738   0.3499999), wk =   0.0010000
        k(  140) = (  -0.2309401   0.2653614   0.3999999), wk =   0.0010000
        k(  141) = (  -0.2598076   0.2449490   0.4499999), wk =   0.0010000
        k(  142) = (   0.2886752   0.6327850  -0.4999999), wk =   0.0010000
        k(  143) = (   0.2598076   0.6123725  -0.4499999), wk =   0.0010000
        k(  144) = (   0.2309401   0.5919601  -0.3999999), wk =   0.0010000
        k(  145) = (   0.2020726   0.5715477  -0.3499999), wk =   0.0010000
        k(  146) = (   0.1732051   0.5511353  -0.2999999), wk =   0.0010000
        k(  147) = (   0.1443376   0.5307229  -0.2499999), wk =   0.0010000
        k(  148) = (   0.1154701   0.5103104  -0.2000000), wk =   0.0010000
        k(  149) = (   0.0866025   0.4898980  -0.1500000), wk =   0.0010000
        k(  150) = (   0.0577350   0.4694856  -0.1000000), wk =   0.0010000
        k(  151) = (   0.0288675   0.4490732  -0.0500000), wk =   0.0010000
        k(  152) = (   0.0000000   0.4898980   0.0000000), wk =   0.0005000
        k(  153) = (  -0.0288675   0.4694856   0.0500000), wk =   0.0010000
        k(  154) = (  -0.0577350   0.4490732   0.1000000), wk =   0.0010000
        k(  155) = (  -0.0866025   0.4286607   0.1500000), wk =   0.0010000
        k(  156) = (  -0.1154701   0.4082483   0.2000000), wk =   0.0010000
        k(  157) = (  -0.1443376   0.3878359   0.2499999), wk =   0.0010000
        k(  158) = (  -0.1732051   0.3674235   0.2999999), wk =   0.0010000
        k(  159) = (  -0.2020726   0.3470111   0.3499999), wk =   0.0010000
        k(  160) = (  -0.2309401   0.3265986   0.3999999), wk =   0.0010000
        k(  161) = (  -0.2598076   0.3061862   0.4499999), wk =   0.0010000
        k(  162) = (   0.2886752   0.6940222  -0.4999999), wk =   0.0010000
        k(  163) = (   0.2598076   0.6736098  -0.4499999), wk =   0.0010000
        k(  164) = (   0.2309401   0.6531974  -0.3999999), wk =   0.0010000
        k(  165) = (   0.2020726   0.6327849  -0.3499999), wk =   0.0010000
        k(  166) = (   0.1732051   0.6123725  -0.2999999), wk =   0.0010000
        k(  167) = (   0.1443376   0.5919601  -0.2499999), wk =   0.0010000
        k(  168) = (   0.1154701   0.5715477  -0.2000000), wk =   0.0010000
        k(  169) = (   0.0866025   0.5511353  -0.1500000), wk =   0.0010000
        k(  170) = (   0.0577350   0.5307228  -0.1000000), wk =   0.0010000
        k(  171) = (   0.0288675   0.5103104  -0.0500000), wk =   0.0010000
        k(  172) = (   0.0000000   0.5511352   0.0000000), wk =   0.0005000
        k(  173) = (  -0.0288675   0.5307228   0.0500000), wk =   0.0010000
        k(  174) = (  -0.0577350   0.5103104   0.1000000), wk =   0.0010000
        k(  175) = (  -0.0866025   0.4898980   0.1500000), wk =   0.0010000
        k(  176) = (  -0.1154701   0.4694856   0.2000000), wk =   0.0010000
        k(  177) = (  -0.1443376   0.4490731   0.2499999), wk =   0.0010000
        k(  178) = (  -0.1732051   0.4286607   0.2999999), wk =   0.0010000
        k(  179) = (  -0.2020726   0.4082483   0.3499999), wk =   0.0010000
        k(  180) = (  -0.2309401   0.3878359   0.3999999), wk =   0.0010000
        k(  181) = (  -0.2598076   0.3674235   0.4499999), wk =   0.0010000
        k(  182) = (   0.2886752   0.7552595  -0.4999999), wk =   0.0010000
        k(  183) = (   0.2598076   0.7348470  -0.4499999), wk =   0.0010000
        k(  184) = (   0.2309401   0.7144346  -0.3999999), wk =   0.0010000
        k(  185) = (   0.2020726   0.6940222  -0.3499999), wk =   0.0010000
        k(  186) = (   0.1732051   0.6736098  -0.2999999), wk =   0.0010000
        k(  187) = (   0.1443376   0.6531974  -0.2499999), wk =   0.0010000
        k(  188) = (   0.1154701   0.6327849  -0.2000000), wk =   0.0010000
        k(  189) = (   0.0866025   0.6123725  -0.1500000), wk =   0.0010000
        k(  190) = (   0.0577350   0.5919601  -0.1000000), wk =   0.0010000
        k(  191) = (   0.0288675   0.5715477  -0.0500000), wk =   0.0010000
        k(  192) = (   0.0000000  -0.6123725   0.0000000), wk =   0.0002500
        k(  193) = (  -0.0288675  -0.6327849   0.0500000), wk =   0.0010000
        k(  194) = (  -0.0577350  -0.6531973   0.1000000), wk =   0.0010000
        k(  195) = (  -0.0866025  -0.6736098   0.1500000), wk =   0.0010000
        k(  196) = (  -0.1154701  -0.6940222   0.2000000), wk =   0.0010000
        k(  197) = (  -0.1443376  -0.7144346   0.2499999), wk =   0.0010000
        k(  198) = (  -0.1732051  -0.7348470   0.2999999), wk =   0.0010000
        k(  199) = (  -0.2020726  -0.7552594   0.3499999), wk =   0.0010000
        k(  200) = (  -0.2309401  -0.7756719   0.3999999), wk =   0.0010000
        k(  201) = (  -0.2598076  -0.7960843   0.4499999), wk =   0.0010000
        k(  202) = (   0.2886752  -0.4082483  -0.4999999), wk =   0.0005000
        k(  203) = (   0.0577350  -0.0204124   0.0000000), wk =   0.0005000
        k(  204) = (   0.0000000  -0.0612372   0.1000000), wk =   0.0010000
        k(  205) = (  -0.0288675  -0.0816497   0.1500000), wk =   0.0010000
        k(  206) = (  -0.0577350  -0.1020621   0.2000000), wk =   0.0010000
        k(  207) = (  -0.0866025  -0.1224745   0.2499999), wk =   0.0010000
        k(  208) = (  -0.1154701  -0.1428869   0.2999999), wk =   0.0010000
        k(  209) = (  -0.1443376  -0.1632994   0.3499999), wk =   0.0010000
        k(  210) = (  -0.1732051  -0.1837118   0.3999999), wk =   0.0010000
        k(  211) = (  -0.2020726  -0.2041242   0.4499999), wk =   0.0010000
        k(  212) = (   0.3464102   0.1837118  -0.4999999), wk =   0.0010000
        k(  213) = (   0.3175427   0.1632994  -0.4499999), wk =   0.0010000
        k(  214) = (   0.2886752   0.1428870  -0.3999999), wk =   0.0010000
        k(  215) = (   0.2598076   0.1224745  -0.3499999), wk =   0.0010000
        k(  216) = (   0.2309401   0.1020621  -0.2999999), wk =   0.0010000
        k(  217) = (   0.2020726   0.0816497  -0.2499999), wk =   0.0010000
        k(  218) = (   0.1732051   0.0612373  -0.2000000), wk =   0.0010000
        k(  219) = (   0.1443376   0.0408249  -0.1500000), wk =   0.0010000
        k(  220) = (   0.1154701   0.0204124  -0.1000000), wk =   0.0010000
        k(  221) = (   0.0866025   0.0000000  -0.0500000), wk =   0.0010000
        k(  222) = (   0.0577350   0.0408248   0.0000000), wk =   0.0005000
        k(  223) = (   0.0000000   0.0000000   0.1000000), wk =   0.0005000
        k(  224) = (  -0.0288675  -0.0204124   0.1500000), wk =   0.0010000
        k(  225) = (  -0.0577350  -0.0408248   0.2000000), wk =   0.0010000
        k(  226) = (  -0.0866025  -0.0612373   0.2499999), wk =   0.0010000
        k(  227) = (  -0.1154701  -0.0816497   0.2999999), wk =   0.0010000
        k(  228) = (  -0.1443376  -0.1020621   0.3499999), wk =   0.0010000
        k(  229) = (  -0.1732051  -0.1224745   0.3999999), wk =   0.0010000
        k(  230) = (  -0.2020726  -0.1428869   0.4499999), wk =   0.0010000
        k(  231) = (   0.3464102   0.2449490  -0.4999999), wk =   0.0010000
        k(  232) = (   0.3175427   0.2245366  -0.4499999), wk =   0.0010000
        k(  233) = (   0.2886752   0.2041242  -0.3999999), wk =   0.0010000
        k(  234) = (   0.2598076   0.1837118  -0.3499999), wk =   0.0010000
        k(  235) = (   0.2309401   0.1632994  -0.2999999), wk =   0.0010000
        k(  236) = (   0.2020726   0.1428869  -0.2499999), wk =   0.0010000
        k(  237) = (   0.1732051   0.1224745  -0.2000000), wk =   0.0010000
        k(  238) = (   0.1443376   0.1020621  -0.1500000), wk =   0.0010000
        k(  239) = (   0.1154701   0.0816497  -0.1000000), wk =   0.0010000
        k(  240) = (   0.0866025   0.0612373  -0.0500000), wk =   0.0010000
        k(  241) = (   0.0577350   0.1020621   0.0000000), wk =   0.0005000
        k(  242) = (  -0.0288675   0.0408248   0.1500000), wk =   0.0010000
        k(  243) = (  -0.0577350   0.0204124   0.2000000), wk =   0.0010000
        k(  244) = (  -0.0866025  -0.0000000   0.2499999), wk =   0.0010000
        k(  245) = (  -0.1154701  -0.0204124   0.2999999), wk =   0.0010000
        k(  246) = (  -0.1443376  -0.0408249   0.3499999), wk =   0.0010000
        k(  247) = (  -0.1732051  -0.0612373   0.3999999), wk =   0.0010000
        k(  248) = (  -0.2020726  -0.0816497   0.4499999), wk =   0.0010000
        k(  249) = (   0.3464102   0.3061863  -0.4999999), wk =   0.0010000
        k(  250) = (   0.3175427   0.2857739  -0.4499999), wk =   0.0010000
        k(  251) = (   0.2886752   0.2653615  -0.3999999), wk =   0.0010000
        k(  252) = (   0.2598076   0.2449490  -0.3499999), wk =   0.0010000
        k(  253) = (   0.2309401   0.2245366  -0.2999999), wk =   0.0010000
        k(  254) = (   0.2020726   0.2041242  -0.2499999), wk =   0.0010000
        k(  255) = (   0.1732051   0.1837118  -0.2000000), wk =   0.0010000
        k(  256) = (   0.1443376   0.1632994  -0.1500000), wk =   0.0010000
        k(  257) = (   0.1154701   0.1428869  -0.1000000), wk =   0.0010000
        k(  258) = (   0.0866025   0.1224745  -0.0500000), wk =   0.0010000
        k(  259) = (   0.0577350   0.1632993   0.0000000), wk =   0.0005000
        k(  260) = (   0.0000000   0.1224745   0.1000000), wk =   0.0010000
        k(  261) = (  -0.0288675   0.1020621   0.1500000), wk =   0.0010000
        k(  262) = (  -0.0577350   0.0816497   0.2000000), wk =   0.0010000
        k(  263) = (  -0.0866025   0.0612372   0.2499999), wk =   0.0010000
        k(  264) = (  -0.1154701   0.0408248   0.2999999), wk =   0.0010000
        k(  265) = (  -0.1443376   0.0204124   0.3499999), wk =   0.0010000
        k(  266) = (  -0.1732051  -0.0000000   0.3999999), wk =   0.0010000
        k(  267) = (  -0.2020726  -0.0204124   0.4499999), wk =   0.0010000
        k(  268) = (   0.3464102   0.3674235  -0.4999999), wk =   0.0010000
        k(  269) = (   0.3175427   0.3470111  -0.4499999), wk =   0.0010000
        k(  270) = (   0.2886752   0.3265987  -0.3999999), wk =   0.0010000
        k(  271) = (   0.2598076   0.3061863  -0.3499999), wk =   0.0010000
        k(  272) = (   0.2309401   0.2857739  -0.2999999), wk =   0.0010000
        k(  273) = (   0.2020726   0.2653614  -0.2499999), wk =   0.0010000
        k(  274) = (   0.1732051   0.2449490  -0.2000000), wk =   0.0010000
        k(  275) = (   0.1443376   0.2245366  -0.1500000), wk =   0.0010000
        k(  276) = (   0.1154701   0.2041242  -0.1000000), wk =   0.0010000
        k(  277) = (   0.0866025   0.1837118  -0.0500000), wk =   0.0010000
        k(  278) = (   0.0577350   0.2245366   0.0000000), wk =   0.0005000
        k(  279) = (   0.0000000   0.1837117   0.1000000), wk =   0.0010000
        k(  280) = (  -0.0288675   0.1632993   0.1500000), wk =   0.0010000
        k(  281) = (  -0.0577350   0.1428869   0.2000000), wk =   0.0010000
        k(  282) = (  -0.0866025   0.1224745   0.2499999), wk =   0.0010000
        k(  283) = (  -0.1154701   0.1020621   0.2999999), wk =   0.0010000
        k(  284) = (  -0.1443376   0.0816496   0.3499999), wk =   0.0010000
        k(  285) = (  -0.1732051   0.0612372   0.3999999), wk =   0.0010000
        k(  286) = (  -0.2020726   0.0408248   0.4499999), wk =   0.0010000
        k(  287) = (   0.3464102   0.4286608  -0.4999999), wk =   0.0010000
        k(  288) = (   0.3175427   0.4082484  -0.4499999), wk =   0.0010000
        k(  289) = (   0.2886752   0.3878360  -0.3999999), wk =   0.0010000
        k(  290) = (   0.2598076   0.3674235  -0.3499999), wk =   0.0010000
        k(  291) = (   0.2309401   0.3470111  -0.2999999), wk =   0.0010000
        k(  292) = (   0.2020726   0.3265987  -0.2499999), wk =   0.0010000
        k(  293) = (   0.1732051   0.3061863  -0.2000000), wk =   0.0010000
        k(  294) = (   0.1443376   0.2857739  -0.1500000), wk =   0.0010000
        k(  295) = (   0.1154701   0.2653614  -0.1000000), wk =   0.0010000
        k(  296) = (   0.0866025   0.2449490  -0.0500000), wk =   0.0010000
        k(  297) = (   0.0577350   0.2857738   0.0000000), wk =   0.0005000
        k(  298) = (   0.0000000   0.2449490   0.1000000), wk =   0.0010000
        k(  299) = (  -0.0288675   0.2245366   0.1500000), wk =   0.0010000
        k(  300) = (  -0.0577350   0.2041242   0.2000000), wk =   0.0010000
        k(  301) = (  -0.0866025   0.1837117   0.2499999), wk =   0.0010000
        k(  302) = (  -0.1154701   0.1632993   0.2999999), wk =   0.0010000
        k(  303) = (  -0.1443376   0.1428869   0.3499999), wk =   0.0010000
        k(  304) = (  -0.1732051   0.1224745   0.3999999), wk =   0.0010000
        k(  305) = (  -0.2020726   0.1020621   0.4499999), wk =   0.0010000
        k(  306) = (   0.3464102   0.4898980  -0.4999999), wk =   0.0010000
        k(  307) = (   0.3175427   0.4694856  -0.4499999), wk =   0.0010000
        k(  308) = (   0.2886752   0.4490732  -0.3999999), wk =   0.0010000
        k(  309) = (   0.2598076   0.4286608  -0.3499999), wk =   0.0010000
        k(  310) = (   0.2309401   0.4082484  -0.2999999), wk =   0.0010000
        k(  311) = (   0.2020726   0.3878359  -0.2499999), wk =   0.0010000
        k(  312) = (   0.1732051   0.3674235  -0.2000000), wk =   0.0010000
        k(  313) = (   0.1443376   0.3470111  -0.1500000), wk =   0.0010000
        k(  314) = (   0.1154701   0.3265987  -0.1000000), wk =   0.0010000
        k(  315) = (   0.0866025   0.3061863  -0.0500000), wk =   0.0010000
        k(  316) = (   0.0577350   0.3470111   0.0000000), wk =   0.0005000
        k(  317) = (   0.0000000   0.3061862   0.1000000), wk =   0.0010000
        k(  318) = (  -0.0288675   0.2857738   0.1500000), wk =   0.0010000
        k(  319) = (  -0.0577350   0.2653614   0.2000000), wk =   0.0010000
        k(  320) = (  -0.0866025   0.2449490   0.2499999), wk =   0.0010000
        k(  321) = (  -0.1154701   0.2245366   0.2999999), wk =   0.0010000
        k(  322) = (  -0.1443376   0.2041241   0.3499999), wk =   0.0010000
        k(  323) = (  -0.1732051   0.1837117   0.3999999), wk =   0.0010000
        k(  324) = (  -0.2020726   0.1632993   0.4499999), wk =   0.0010000
        k(  325) = (   0.3464102   0.5511353  -0.4999999), wk =   0.0010000
        k(  326) = (   0.3175427   0.5307229  -0.4499999), wk =   0.0010000
        k(  327) = (   0.2886752   0.5103105  -0.3999999), wk =   0.0010000
        k(  328) = (   0.2598076   0.4898980  -0.3499999), wk =   0.0010000
        k(  329) = (   0.2309401   0.4694856  -0.2999999), wk =   0.0010000
        k(  330) = (   0.2020726   0.4490732  -0.2499999), wk =   0.0010000
        k(  331) = (   0.1732051   0.4286608  -0.2000000), wk =   0.0010000
        k(  332) = (   0.1443376   0.4082484  -0.1500000), wk =   0.0010000
        k(  333) = (   0.1154701   0.3878359  -0.1000000), wk =   0.0010000
        k(  334) = (   0.0866025   0.3674235  -0.0500000), wk =   0.0010000
        k(  335) = (   0.0577350   0.4082483   0.0000000), wk =   0.0005000
        k(  336) = (   0.0000000   0.3674235   0.1000000), wk =   0.0010000
        k(  337) = (  -0.0288675   0.3470111   0.1500000), wk =   0.0010000
        k(  338) = (  -0.0577350   0.3265987   0.2000000), wk =   0.0010000
        k(  339) = (  -0.0866025   0.3061862   0.2499999), wk =   0.0010000
        k(  340) = (  -0.1154701   0.2857738   0.2999999), wk =   0.0010000
        k(  341) = (  -0.1443376   0.2653614   0.3499999), wk =   0.0010000
        k(  342) = (  -0.1732051   0.2449490   0.3999999), wk =   0.0010000
        k(  343) = (  -0.2020726   0.2245366   0.4499999), wk =   0.0010000
        k(  344) = (   0.3464102   0.6123725  -0.4999999), wk =   0.0010000
        k(  345) = (   0.3175427   0.5919601  -0.4499999), wk =   0.0010000
        k(  346) = (   0.2886752   0.5715477  -0.3999999), wk =   0.0010000
        k(  347) = (   0.2598076   0.5511353  -0.3499999), wk =   0.0010000
        k(  348) = (   0.2309401   0.5307229  -0.2999999), wk =   0.0010000
        k(  349) = (   0.2020726   0.5103104  -0.2499999), wk =   0.0010000
        k(  350) = (   0.1732051   0.4898980  -0.2000000), wk =   0.0010000
        k(  351) = (   0.1443376   0.4694856  -0.1500000), wk =   0.0010000
        k(  352) = (   0.1154701   0.4490732  -0.1000000), wk =   0.0010000
        k(  353) = (   0.0866025   0.4286608  -0.0500000), wk =   0.0010000
        k(  354) = (   0.0577350   0.4694856   0.0000000), wk =   0.0005000
        k(  355) = (   0.0000000   0.4286607   0.1000000), wk =   0.0010000
        k(  356) = (  -0.0288675   0.4082483   0.1500000), wk =   0.0010000
        k(  357) = (  -0.0577350   0.3878359   0.2000000), wk =   0.0010000
        k(  358) = (  -0.0866025   0.3674235   0.2499999), wk =   0.0010000
        k(  359) = (  -0.1154701   0.3470111   0.2999999), wk =   0.0010000
        k(  360) = (  -0.1443376   0.3265986   0.3499999), wk =   0.0010000
        k(  361) = (  -0.1732051   0.3061862   0.3999999), wk =   0.0010000
        k(  362) = (  -0.2020726   0.2857738   0.4499999), wk =   0.0010000
        k(  363) = (   0.3464102   0.6736098  -0.4999999), wk =   0.0010000
        k(  364) = (   0.3175427   0.6531974  -0.4499999), wk =   0.0010000
        k(  365) = (   0.2886752   0.6327850  -0.3999999), wk =   0.0010000
        k(  366) = (   0.2598076   0.6123725  -0.3499999), wk =   0.0010000
        k(  367) = (   0.2309401   0.5919601  -0.2999999), wk =   0.0010000
        k(  368) = (   0.2020726   0.5715477  -0.2499999), wk =   0.0010000
        k(  369) = (   0.1732051   0.5511353  -0.2000000), wk =   0.0010000
        k(  370) = (   0.1443376   0.5307229  -0.1500000), wk =   0.0010000
        k(  371) = (   0.1154701   0.5103104  -0.1000000), wk =   0.0010000
        k(  372) = (   0.0866025   0.4898980  -0.0500000), wk =   0.0010000
        k(  373) = (   0.0577350   0.5307228   0.0000000), wk =   0.0005000
        k(  374) = (   0.0000000   0.4898980   0.1000000), wk =   0.0010000
        k(  375) = (  -0.0288675   0.4694856   0.1500000), wk =   0.0010000
        k(  376) = (  -0.0577350   0.4490732   0.2000000), wk =   0.0010000
        k(  377) = (  -0.0866025   0.4286607   0.2499999), wk =   0.0010000
        k(  378) = (  -0.1154701   0.4082483   0.2999999), wk =   0.0010000
        k(  379) = (  -0.1443376   0.3878359   0.3499999), wk =   0.0010000
        k(  380) = (  -0.1732051   0.3674235   0.3999999), wk =   0.0010000
        k(  381) = (  -0.2020726   0.3470111   0.4499999), wk =   0.0010000
        k(  382) = (   0.3464102   0.7348470  -0.4999999), wk =   0.0010000
        k(  383) = (   0.3175427   0.7144346  -0.4499999), wk =   0.0010000
        k(  384) = (   0.2886752   0.6940222  -0.3999999), wk =   0.0010000
        k(  385) = (   0.2598076   0.6736098  -0.3499999), wk =   0.0010000
        k(  386) = (   0.2309401   0.6531974  -0.2999999), wk =   0.0010000
        k(  387) = (   0.2020726   0.6327849  -0.2499999), wk =   0.0010000
        k(  388) = (   0.1732051   0.6123725  -0.2000000), wk =   0.0010000
        k(  389) = (   0.1443376   0.5919601  -0.1500000), wk =   0.0010000
        k(  390) = (   0.1154701   0.5715477  -0.1000000), wk =   0.0010000
        k(  391) = (   0.0866025   0.5511353  -0.0500000), wk =   0.0010000
        k(  392) = (   0.0577350  -0.6327849   0.0000000), wk =   0.0005000
        k(  393) = (   0.0000000  -0.6736097   0.1000000), wk =   0.0010000
        k(  394) = (  -0.0288675  -0.6940222   0.1500000), wk =   0.0010000
        k(  395) = (  -0.0577350  -0.7144346   0.2000000), wk =   0.0010000
        k(  396) = (  -0.0866025  -0.7348470   0.2499999), wk =   0.0010000
        k(  397) = (  -0.1154701  -0.7552594   0.2999999), wk =   0.0010000
        k(  398) = (  -0.1443376  -0.7756719   0.3499999), wk =   0.0010000
        k(  399) = (  -0.1732051  -0.7960843   0.3999999), wk =   0.0010000
        k(  400) = (  -0.2020726  -0.8164967   0.4499999), wk =   0.0010000
        k(  401) = (   0.3464102  -0.4286607  -0.4999999), wk =   0.0010000
        k(  402) = (   0.3175427  -0.4490731  -0.4499999), wk =   0.0010000
        k(  403) = (   0.2886752  -0.4694855  -0.3999999), wk =   0.0010000
        k(  404) = (   0.2598076  -0.4898980  -0.3499999), wk =   0.0010000
        k(  405) = (   0.2309401  -0.5103104  -0.2999999), wk =   0.0010000
        k(  406) = (   0.2020726  -0.5307228  -0.2499999), wk =   0.0010000
        k(  407) = (   0.1732051  -0.5511352  -0.2000000), wk =   0.0010000
        k(  408) = (   0.1443376  -0.5715476  -0.1500000), wk =   0.0010000
        k(  409) = (   0.1154701  -0.5919601  -0.1000000), wk =   0.0010000
        k(  410) = (   0.0866025  -0.6123725  -0.0500000), wk =   0.0010000
        k(  411) = (   0.0577350  -0.5715477   0.0000000), wk =   0.0005000
        k(  412) = (   0.0000000  -0.6123725   0.1000000), wk =   0.0005000
        k(  413) = (  -0.0288675  -0.6327849   0.1500000), wk =   0.0010000
        k(  414) = (  -0.0577350  -0.6531973   0.2000000), wk =   0.0010000
        k(  415) = (  -0.0866025  -0.6736098   0.2499999), wk =   0.0010000
        k(  416) = (  -0.1154701  -0.6940222   0.2999999), wk =   0.0010000
        k(  417) = (  -0.1443376  -0.7144346   0.3499999), wk =   0.0010000
        k(  418) = (  -0.1732051  -0.7348470   0.3999999), wk =   0.0010000
        k(  419) = (  -0.2020726  -0.7552594   0.4499999), wk =   0.0010000
        k(  420) = (   0.3464102  -0.3674234  -0.4999999), wk =   0.0010000
        k(  421) = (   0.3175427  -0.3878359  -0.4499999), wk =   0.0010000
        k(  422) = (   0.2886752  -0.4082483  -0.3999999), wk =   0.0010000
        k(  423) = (   0.2598076  -0.4286607  -0.3499999), wk =   0.0010000
        k(  424) = (   0.2309401  -0.4490731  -0.2999999), wk =   0.0010000
        k(  425) = (   0.2020726  -0.4694856  -0.2499999), wk =   0.0010000
        k(  426) = (   0.1732051  -0.4898980  -0.2000000), wk =   0.0010000
        k(  427) = (   0.1443376  -0.5103104  -0.1500000), wk =   0.0010000
        k(  428) = (   0.1154701  -0.5307228  -0.1000000), wk =   0.0010000
        k(  429) = (   0.0866025  -0.5511352  -0.0500000), wk =   0.0010000
        k(  430) = (   0.0577350  -0.5103104   0.0000000), wk =   0.0005000
        k(  431) = (  -0.0288675  -0.5715477   0.1500000), wk =   0.0010000
        k(  432) = (  -0.0577350  -0.5919601   0.2000000), wk =   0.0010000
        k(  433) = (  -0.0866025  -0.6123725   0.2499999), wk =   0.0010000
        k(  434) = (  -0.1154701  -0.6327849   0.2999999), wk =   0.0010000
        k(  435) = (  -0.1443376  -0.6531974   0.3499999), wk =   0.0010000
        k(  436) = (  -0.1732051  -0.6736098   0.3999999), wk =   0.0010000
        k(  437) = (  -0.2020726  -0.6940222   0.4499999), wk =   0.0010000
        k(  438) = (   0.3464102  -0.3061862  -0.4999999), wk =   0.0010000
        k(  439) = (   0.3175427  -0.3265986  -0.4499999), wk =   0.0010000
        k(  440) = (   0.2886752  -0.3470110  -0.3999999), wk =   0.0010000
        k(  441) = (   0.2598076  -0.3674235  -0.3499999), wk =   0.0010000
        k(  442) = (   0.2309401  -0.3878359  -0.2999999), wk =   0.0010000
        k(  443) = (   0.2020726  -0.4082483  -0.2499999), wk =   0.0010000
        k(  444) = (   0.1732051  -0.4286607  -0.2000000), wk =   0.0010000
        k(  445) = (   0.1443376  -0.4490731  -0.1500000), wk =   0.0010000
        k(  446) = (   0.1154701  -0.4694856  -0.1000000), wk =   0.0010000
        k(  447) = (   0.0866025  -0.4898980  -0.0500000), wk =   0.0010000
        k(  448) = (   0.0577350  -0.4490732   0.0000000), wk =   0.0005000
        k(  449) = (  -0.0288675  -0.5103104   0.1500000), wk =   0.0010000
        k(  450) = (  -0.0577350  -0.5307228   0.2000000), wk =   0.0010000
        k(  451) = (  -0.0866025  -0.5511353   0.2499999), wk =   0.0010000
        k(  452) = (  -0.1154701  -0.5715477   0.2999999), wk =   0.0010000
        k(  453) = (  -0.1443376  -0.5919601   0.3499999), wk =   0.0010000
        k(  454) = (  -0.1732051  -0.6123725   0.3999999), wk =   0.0010000
        k(  455) = (  -0.2020726  -0.6327849   0.4499999), wk =   0.0010000
        k(  456) = (   0.3464102  -0.2449489  -0.4999999), wk =   0.0010000
        k(  457) = (   0.3175427  -0.2653614  -0.4499999), wk =   0.0010000
        k(  458) = (   0.2886752  -0.2857738  -0.3999999), wk =   0.0010000
        k(  459) = (   0.2598076  -0.3061862  -0.3499999), wk =   0.0010000
        k(  460) = (   0.2309401  -0.3265986  -0.2999999), wk =   0.0010000
        k(  461) = (   0.2020726  -0.3470111  -0.2499999), wk =   0.0010000
        k(  462) = (   0.1732051  -0.3674235  -0.2000000), wk =   0.0010000
        k(  463) = (   0.1443376  -0.3878359  -0.1500000), wk =   0.0010000
        k(  464) = (   0.1154701  -0.4082483  -0.1000000), wk =   0.0010000
        k(  465) = (   0.0866025  -0.4286607  -0.0500000), wk =   0.0010000
        k(  466) = (   0.0577350  -0.3878359   0.0000000), wk =   0.0005000
        k(  467) = (  -0.0288675  -0.4490732   0.1500000), wk =   0.0010000
        k(  468) = (  -0.0577350  -0.4694856   0.2000000), wk =   0.0010000
        k(  469) = (  -0.0866025  -0.4898980   0.2499999), wk =   0.0010000
        k(  470) = (  -0.1154701  -0.5103104   0.2999999), wk =   0.0010000
        k(  471) = (  -0.1443376  -0.5307229   0.3499999), wk =   0.0010000
        k(  472) = (  -0.1732051  -0.5511353   0.3999999), wk =   0.0010000
        k(  473) = (  -0.2020726  -0.5715477   0.4499999), wk =   0.0010000
        k(  474) = (   0.3464102  -0.1837117  -0.4999999), wk =   0.0010000
        k(  475) = (   0.3175427  -0.2041241  -0.4499999), wk =   0.0010000
        k(  476) = (   0.2886752  -0.2245365  -0.3999999), wk =   0.0010000
        k(  477) = (   0.2598076  -0.2449490  -0.3499999), wk =   0.0010000
        k(  478) = (   0.2309401  -0.2653614  -0.2999999), wk =   0.0010000
        k(  479) = (   0.2020726  -0.2857738  -0.2499999), wk =   0.0010000
        k(  480) = (   0.1732051  -0.3061862  -0.2000000), wk =   0.0010000
        k(  481) = (   0.1443376  -0.3265986  -0.1500000), wk =   0.0010000
        k(  482) = (   0.1154701  -0.3470111  -0.1000000), wk =   0.0010000
        k(  483) = (   0.0866025  -0.3674235  -0.0500000), wk =   0.0010000
        k(  484) = (   0.0577350  -0.3265987   0.0000000), wk =   0.0005000
        k(  485) = (  -0.0288675  -0.3878359   0.1500000), wk =   0.0010000
        k(  486) = (  -0.0577350  -0.4082483   0.2000000), wk =   0.0010000
        k(  487) = (  -0.0866025  -0.4286608   0.2499999), wk =   0.0010000
        k(  488) = (  -0.1154701  -0.4490732   0.2999999), wk =   0.0010000
        k(  489) = (  -0.1443376  -0.4694856   0.3499999), wk =   0.0010000
        k(  490) = (  -0.1732051  -0.4898980   0.3999999), wk =   0.0010000
        k(  491) = (  -0.2020726  -0.5103104   0.4499999), wk =   0.0010000
        k(  492) = (   0.3464102  -0.1224744  -0.4999999), wk =   0.0010000
        k(  493) = (   0.3175427  -0.1428869  -0.4499999), wk =   0.0010000
        k(  494) = (   0.2886752  -0.1632993  -0.3999999), wk =   0.0010000
        k(  495) = (   0.2598076  -0.1837117  -0.3499999), wk =   0.0010000
        k(  496) = (   0.2309401  -0.2041241  -0.2999999), wk =   0.0010000
        k(  497) = (   0.2020726  -0.2245366  -0.2499999), wk =   0.0010000
        k(  498) = (   0.1732051  -0.2449490  -0.2000000), wk =   0.0010000
        k(  499) = (   0.1443376  -0.2653614  -0.1500000), wk =   0.0010000
        k(  500) = (   0.1154701  -0.2857738  -0.1000000), wk =   0.0010000
        k(  501) = (   0.0866025  -0.3061862  -0.0500000), wk =   0.0010000
        k(  502) = (   0.0577350  -0.2653614   0.0000000), wk =   0.0005000
        k(  503) = (  -0.0288675  -0.3265987   0.1500000), wk =   0.0010000
        k(  504) = (  -0.0577350  -0.3470111   0.2000000), wk =   0.0010000
        k(  505) = (  -0.0866025  -0.3674235   0.2499999), wk =   0.0010000
        k(  506) = (  -0.1154701  -0.3878359   0.2999999), wk =   0.0010000
        k(  507) = (  -0.1443376  -0.4082484   0.3499999), wk =   0.0010000
        k(  508) = (  -0.1732051  -0.4286608   0.3999999), wk =   0.0010000
        k(  509) = (  -0.2020726  -0.4490732   0.4499999), wk =   0.0010000
        k(  510) = (   0.3464102  -0.0612372  -0.4999999), wk =   0.0010000
        k(  511) = (   0.3175427  -0.0816496  -0.4499999), wk =   0.0010000
        k(  512) = (   0.2886752  -0.1020620  -0.3999999), wk =   0.0010000
        k(  513) = (   0.2598076  -0.1224745  -0.3499999), wk =   0.0010000
        k(  514) = (   0.2309401  -0.1428869  -0.2999999), wk =   0.0010000
        k(  515) = (   0.2020726  -0.1632993  -0.2499999), wk =   0.0010000
        k(  516) = (   0.1732051  -0.1837117  -0.2000000), wk =   0.0010000
        k(  517) = (   0.1443376  -0.2041241  -0.1500000), wk =   0.0010000
        k(  518) = (   0.1154701  -0.2245366  -0.1000000), wk =   0.0010000
        k(  519) = (   0.0866025  -0.2449490  -0.0500000), wk =   0.0010000
        k(  520) = (   0.0577350  -0.2041242   0.0000000), wk =   0.0005000
        k(  521) = (  -0.0288675  -0.2653614   0.1500000), wk =   0.0010000
        k(  522) = (  -0.0577350  -0.2857738   0.2000000), wk =   0.0010000
        k(  523) = (  -0.0866025  -0.3061863   0.2499999), wk =   0.0010000
        k(  524) = (  -0.1154701  -0.3265987   0.2999999), wk =   0.0010000
        k(  525) = (  -0.1443376  -0.3470111   0.3499999), wk =   0.0010000
        k(  526) = (  -0.1732051  -0.3674235   0.3999999), wk =   0.0010000
        k(  527) = (  -0.2020726  -0.3878359   0.4499999), wk =   0.0010000
        k(  528) = (   0.3464102   0.0000001  -0.4999999), wk =   0.0010000
        k(  529) = (   0.3175427  -0.0204124  -0.4499999), wk =   0.0010000
        k(  530) = (   0.2886752  -0.0408248  -0.3999999), wk =   0.0010000
        k(  531) = (   0.2598076  -0.0612372  -0.3499999), wk =   0.0010000
        k(  532) = (   0.2309401  -0.0816496  -0.2999999), wk =   0.0010000
        k(  533) = (   0.2020726  -0.1020621  -0.2499999), wk =   0.0010000
        k(  534) = (   0.1732051  -0.1224745  -0.2000000), wk =   0.0010000
        k(  535) = (   0.1443376  -0.1428869  -0.1500000), wk =   0.0010000
        k(  536) = (   0.1154701  -0.1632993  -0.1000000), wk =   0.0010000
        k(  537) = (   0.0866025  -0.1837117  -0.0500000), wk =   0.0010000
        k(  538) = (   0.0577350  -0.1428869   0.0000000), wk =   0.0005000
        k(  539) = (  -0.0288675  -0.2041242   0.1500000), wk =   0.0010000
        k(  540) = (  -0.0577350  -0.2245366   0.2000000), wk =   0.0010000
        k(  541) = (  -0.0866025  -0.2449490   0.2499999), wk =   0.0010000
        k(  542) = (  -0.1154701  -0.2653614   0.2999999), wk =   0.0010000
        k(  543) = (  -0.1443376  -0.2857739   0.3499999), wk =   0.0010000
        k(  544) = (  -0.1732051  -0.3061863   0.3999999), wk =   0.0010000
        k(  545) = (  -0.2020726  -0.3265987   0.4499999), wk =   0.0010000
        k(  546) = (   0.3464102   0.0612373  -0.4999999), wk =   0.0010000
        k(  547) = (   0.3175427   0.0408249  -0.4499999), wk =   0.0010000
        k(  548) = (   0.2886752   0.0204125  -0.3999999), wk =   0.0010000
        k(  549) = (   0.2598076   0.0000000  -0.3499999), wk =   0.0010000
        k(  550) = (   0.2309401  -0.0204124  -0.2999999), wk =   0.0010000
        k(  551) = (   0.2020726  -0.0408248  -0.2499999), wk =   0.0010000
        k(  552) = (   0.1732051  -0.0612372  -0.2000000), wk =   0.0010000
        k(  553) = (   0.1443376  -0.0816496  -0.1500000), wk =   0.0010000
        k(  554) = (   0.1154701  -0.1020621  -0.1000000), wk =   0.0010000
        k(  555) = (   0.0866025  -0.1224745  -0.0500000), wk =   0.0010000
        k(  556) = (   0.0577350  -0.0816497   0.0000000), wk =   0.0005000
        k(  557) = (  -0.0288675  -0.1428869   0.1500000), wk =   0.0010000
        k(  558) = (  -0.0577350  -0.1632993   0.2000000), wk =   0.0010000
        k(  559) = (  -0.0866025  -0.1837118   0.2499999), wk =   0.0010000
        k(  560) = (  -0.1154701  -0.2041242   0.2999999), wk =   0.0010000
        k(  561) = (  -0.1443376  -0.2245366   0.3499999), wk =   0.0010000
        k(  562) = (  -0.1732051  -0.2449490   0.3999999), wk =   0.0010000
        k(  563) = (  -0.2020726  -0.2653614   0.4499999), wk =   0.0010000
        k(  564) = (   0.3464102   0.1224745  -0.4999999), wk =   0.0010000
        k(  565) = (   0.3175427   0.1020621  -0.4499999), wk =   0.0010000
        k(  566) = (   0.2886752   0.0816497  -0.3999999), wk =   0.0010000
        k(  567) = (   0.2598076   0.0612373  -0.3499999), wk =   0.0010000
        k(  568) = (   0.2309401   0.0408249  -0.2999999), wk =   0.0010000
        k(  569) = (   0.2020726   0.0204124  -0.2499999), wk =   0.0010000
        k(  570) = (   0.1732051   0.0000000  -0.2000000), wk =   0.0010000
        k(  571) = (   0.1443376  -0.0204124  -0.1500000), wk =   0.0010000
        k(  572) = (   0.1154701  -0.0408248  -0.1000000), wk =   0.0010000
        k(  573) = (   0.0866025  -0.0612372  -0.0500000), wk =   0.0010000
        k(  574) = (   0.1154701  -0.0408248   0.0000000), wk =   0.0005000
        k(  575) = (   0.0000000  -0.1224745   0.2000000), wk =   0.0010000
        k(  576) = (  -0.0288675  -0.1428869   0.2499999), wk =   0.0010000
        k(  577) = (  -0.0577350  -0.1632993   0.2999999), wk =   0.0010000
        k(  578) = (  -0.0866025  -0.1837118   0.3499999), wk =   0.0010000
        k(  579) = (  -0.1154701  -0.2041242   0.3999999), wk =   0.0010000
        k(  580) = (  -0.1443376  -0.2245366   0.4499999), wk =   0.0010000
        k(  581) = (   0.4041452   0.1632994  -0.4999999), wk =   0.0010000
        k(  582) = (   0.3752777   0.1428870  -0.4499999), wk =   0.0010000
        k(  583) = (   0.3464102   0.1224745  -0.3999999), wk =   0.0010000
        k(  584) = (   0.3175427   0.1020621  -0.3499999), wk =   0.0010000
        k(  585) = (   0.2886752   0.0816497  -0.2999999), wk =   0.0010000
        k(  586) = (   0.2598076   0.0612373  -0.2499999), wk =   0.0010000
        k(  587) = (   0.2309401   0.0408249  -0.2000000), wk =   0.0010000
        k(  588) = (   0.2020726   0.0204124  -0.1500000), wk =   0.0010000
        k(  589) = (   0.1732051   0.0000000  -0.1000000), wk =   0.0010000
        k(  590) = (   0.1443376  -0.0204124  -0.0500000), wk =   0.0010000
        k(  591) = (   0.1154701   0.0204124   0.0000000), wk =   0.0005000
        k(  592) = (   0.0000000  -0.0612372   0.2000000), wk =   0.0010000
        k(  593) = (  -0.0288675  -0.0816497   0.2499999), wk =   0.0010000
        k(  594) = (  -0.0577350  -0.1020621   0.2999999), wk =   0.0010000
        k(  595) = (  -0.0866025  -0.1224745   0.3499999), wk =   0.0010000
        k(  596) = (  -0.1154701  -0.1428869   0.3999999), wk =   0.0010000
        k(  597) = (  -0.1443376  -0.1632994   0.4499999), wk =   0.0010000
        k(  598) = (   0.4041452   0.2245366  -0.4999999), wk =   0.0010000
        k(  599) = (   0.3752777   0.2041242  -0.4499999), wk =   0.0010000
        k(  600) = (   0.3464102   0.1837118  -0.3999999), wk =   0.0010000
        k(  601) = (   0.3175427   0.1632994  -0.3499999), wk =   0.0010000
        k(  602) = (   0.2886752   0.1428870  -0.2999999), wk =   0.0010000
        k(  603) = (   0.2598076   0.1224745  -0.2499999), wk =   0.0010000
        k(  604) = (   0.2309401   0.1020621  -0.2000000), wk =   0.0010000
        k(  605) = (   0.2020726   0.0816497  -0.1500000), wk =   0.0010000
        k(  606) = (   0.1732051   0.0612373  -0.1000000), wk =   0.0010000
        k(  607) = (   0.1443376   0.0408249  -0.0500000), wk =   0.0010000
        k(  608) = (   0.1154701   0.0816497   0.0000000), wk =   0.0005000
        k(  609) = (   0.0000000   0.0000000   0.2000000), wk =   0.0005000
        k(  610) = (  -0.0288675  -0.0204124   0.2499999), wk =   0.0010000
        k(  611) = (  -0.0577350  -0.0408248   0.2999999), wk =   0.0010000
        k(  612) = (  -0.0866025  -0.0612373   0.3499999), wk =   0.0010000
        k(  613) = (  -0.1154701  -0.0816497   0.3999999), wk =   0.0010000
        k(  614) = (  -0.1443376  -0.1020621   0.4499999), wk =   0.0010000
        k(  615) = (   0.4041452   0.2857739  -0.4999999), wk =   0.0010000
        k(  616) = (   0.3752777   0.2653615  -0.4499999), wk =   0.0010000
        k(  617) = (   0.3464102   0.2449490  -0.3999999), wk =   0.0010000
        k(  618) = (   0.3175427   0.2245366  -0.3499999), wk =   0.0010000
        k(  619) = (   0.2886752   0.2041242  -0.2999999), wk =   0.0010000
        k(  620) = (   0.2598076   0.1837118  -0.2499999), wk =   0.0010000
        k(  621) = (   0.2309401   0.1632994  -0.2000000), wk =   0.0010000
        k(  622) = (   0.2020726   0.1428869  -0.1500000), wk =   0.0010000
        k(  623) = (   0.1732051   0.1224745  -0.1000000), wk =   0.0010000
        k(  624) = (   0.1443376   0.1020621  -0.0500000), wk =   0.0010000
        k(  625) = (   0.1154701   0.1428869   0.0000000), wk =   0.0005000
        k(  626) = (  -0.0288675   0.0408248   0.2499999), wk =   0.0010000
        k(  627) = (  -0.0577350   0.0204124   0.2999999), wk =   0.0010000
        k(  628) = (  -0.0866025  -0.0000000   0.3499999), wk =   0.0010000
        k(  629) = (  -0.1154701  -0.0204124   0.3999999), wk =   0.0010000
        k(  630) = (  -0.1443376  -0.0408249   0.4499999), wk =   0.0010000
        k(  631) = (   0.4041452   0.3470111  -0.4999999), wk =   0.0010000
        k(  632) = (   0.3752777   0.3265987  -0.4499999), wk =   0.0010000
        k(  633) = (   0.3464102   0.3061863  -0.3999999), wk =   0.0010000
        k(  634) = (   0.3175427   0.2857739  -0.3499999), wk =   0.0010000
        k(  635) = (   0.2886752   0.2653615  -0.2999999), wk =   0.0010000
        k(  636) = (   0.2598076   0.2449490  -0.2499999), wk =   0.0010000
        k(  637) = (   0.2309401   0.2245366  -0.2000000), wk =   0.0010000
        k(  638) = (   0.2020726   0.2041242  -0.1500000), wk =   0.0010000
        k(  639) = (   0.1732051   0.1837118  -0.1000000), wk =   0.0010000
        k(  640) = (   0.1443376   0.1632994  -0.0500000), wk =   0.0010000
        k(  641) = (   0.1154701   0.2041242   0.0000000), wk =   0.0005000
        k(  642) = (  -0.0288675   0.1020621   0.2499999), wk =   0.0010000
        k(  643) = (  -0.0577350   0.0816497   0.2999999), wk =   0.0010000
        k(  644) = (  -0.0866025   0.0612372   0.3499999), wk =   0.0010000
        k(  645) = (  -0.1154701   0.0408248   0.3999999), wk =   0.0010000
        k(  646) = (  -0.1443376   0.0204124   0.4499999), wk =   0.0010000
        k(  647) = (   0.4041452   0.4082484  -0.4999999), wk =   0.0010000
        k(  648) = (   0.3752777   0.3878360  -0.4499999), wk =   0.0010000
        k(  649) = (   0.3464102   0.3674235  -0.3999999), wk =   0.0010000
        k(  650) = (   0.3175427   0.3470111  -0.3499999), wk =   0.0010000
        k(  651) = (   0.2886752   0.3265987  -0.2999999), wk =   0.0010000
        k(  652) = (   0.2598076   0.3061863  -0.2499999), wk =   0.0010000
        k(  653) = (   0.2309401   0.2857739  -0.2000000), wk =   0.0010000
        k(  654) = (   0.2020726   0.2653614  -0.1500000), wk =   0.0010000
        k(  655) = (   0.1732051   0.2449490  -0.1000000), wk =   0.0010000
        k(  656) = (   0.1443376   0.2245366  -0.0500000), wk =   0.0010000
        k(  657) = (   0.1154701   0.2653614   0.0000000), wk =   0.0005000
        k(  658) = (   0.0000000   0.1837117   0.2000000), wk =   0.0010000
        k(  659) = (  -0.0288675   0.1632993   0.2499999), wk =   0.0010000
        k(  660) = (  -0.0577350   0.1428869   0.2999999), wk =   0.0010000
        k(  661) = (  -0.0866025   0.1224745   0.3499999), wk =   0.0010000
        k(  662) = (  -0.1154701   0.1020621   0.3999999), wk =   0.0010000
        k(  663) = (  -0.1443376   0.0816496   0.4499999), wk =   0.0010000
        k(  664) = (   0.4041452   0.4694856  -0.4999999), wk =   0.0010000
        k(  665) = (   0.3752777   0.4490732  -0.4499999), wk =   0.0010000
        k(  666) = (   0.3464102   0.4286608  -0.3999999), wk =   0.0010000
        k(  667) = (   0.3175427   0.4082484  -0.3499999), wk =   0.0010000
        k(  668) = (   0.2886752   0.3878360  -0.2999999), wk =   0.0010000
        k(  669) = (   0.2598076   0.3674235  -0.2499999), wk =   0.0010000
        k(  670) = (   0.2309401   0.3470111  -0.2000000), wk =   0.0010000
        k(  671) = (   0.2020726   0.3265987  -0.1500000), wk =   0.0010000
        k(  672) = (   0.1732051   0.3061863  -0.1000000), wk =   0.0010000
        k(  673) = (   0.1443376   0.2857739  -0.0500000), wk =   0.0010000
        k(  674) = (   0.1154701   0.3265987   0.0000000), wk =   0.0005000
        k(  675) = (   0.0000000   0.2449490   0.2000000), wk =   0.0010000
        k(  676) = (  -0.0288675   0.2245366   0.2499999), wk =   0.0010000
        k(  677) = (  -0.0577350   0.2041242   0.2999999), wk =   0.0010000
        k(  678) = (  -0.0866025   0.1837117   0.3499999), wk =   0.0010000
        k(  679) = (  -0.1154701   0.1632993   0.3999999), wk =   0.0010000
        k(  680) = (  -0.1443376   0.1428869   0.4499999), wk =   0.0010000
        k(  681) = (   0.4041452   0.5307229  -0.4999999), wk =   0.0010000
        k(  682) = (   0.3752777   0.5103105  -0.4499999), wk =   0.0010000
        k(  683) = (   0.3464102   0.4898980  -0.3999999), wk =   0.0010000
        k(  684) = (   0.3175427   0.4694856  -0.3499999), wk =   0.0010000
        k(  685) = (   0.2886752   0.4490732  -0.2999999), wk =   0.0010000
        k(  686) = (   0.2598076   0.4286608  -0.2499999), wk =   0.0010000
        k(  687) = (   0.2309401   0.4082484  -0.2000000), wk =   0.0010000
        k(  688) = (   0.2020726   0.3878359  -0.1500000), wk =   0.0010000
        k(  689) = (   0.1732051   0.3674235  -0.1000000), wk =   0.0010000
        k(  690) = (   0.1443376   0.3470111  -0.0500000), wk =   0.0010000
        k(  691) = (   0.1154701   0.3878359   0.0000000), wk =   0.0005000
        k(  692) = (   0.0000000   0.3061862   0.2000000), wk =   0.0010000
        k(  693) = (  -0.0288675   0.2857738   0.2499999), wk =   0.0010000
        k(  694) = (  -0.0577350   0.2653614   0.2999999), wk =   0.0010000
        k(  695) = (  -0.0866025   0.2449490   0.3499999), wk =   0.0010000
        k(  696) = (  -0.1154701   0.2245366   0.3999999), wk =   0.0010000
        k(  697) = (  -0.1443376   0.2041241   0.4499999), wk =   0.0010000
        k(  698) = (   0.4041452   0.5919601  -0.4999999), wk =   0.0010000
        k(  699) = (   0.3752777   0.5715477  -0.4499999), wk =   0.0010000
        k(  700) = (   0.3464102   0.5511353  -0.3999999), wk =   0.0010000
        k(  701) = (   0.3175427   0.5307229  -0.3499999), wk =   0.0010000
        k(  702) = (   0.2886752   0.5103105  -0.2999999), wk =   0.0010000
        k(  703) = (   0.2598076   0.4898980  -0.2499999), wk =   0.0010000
        k(  704) = (   0.2309401   0.4694856  -0.2000000), wk =   0.0010000
        k(  705) = (   0.2020726   0.4490732  -0.1500000), wk =   0.0010000
        k(  706) = (   0.1732051   0.4286608  -0.1000000), wk =   0.0010000
        k(  707) = (   0.1443376   0.4082484  -0.0500000), wk =   0.0010000
        k(  708) = (   0.1154701   0.4490732   0.0000000), wk =   0.0005000
        k(  709) = (   0.0000000   0.3674235   0.2000000), wk =   0.0010000
        k(  710) = (  -0.0288675   0.3470111   0.2499999), wk =   0.0010000
        k(  711) = (  -0.0577350   0.3265987   0.2999999), wk =   0.0010000
        k(  712) = (  -0.0866025   0.3061862   0.3499999), wk =   0.0010000
        k(  713) = (  -0.1154701   0.2857738   0.3999999), wk =   0.0010000
        k(  714) = (  -0.1443376   0.2653614   0.4499999), wk =   0.0010000
        k(  715) = (   0.4041452   0.6531974  -0.4999999), wk =   0.0010000
        k(  716) = (   0.3752777   0.6327850  -0.4499999), wk =   0.0010000
        k(  717) = (   0.3464102   0.6123725  -0.3999999), wk =   0.0010000
        k(  718) = (   0.3175427   0.5919601  -0.3499999), wk =   0.0010000
        k(  719) = (   0.2886752   0.5715477  -0.2999999), wk =   0.0010000
        k(  720) = (   0.2598076   0.5511353  -0.2499999), wk =   0.0010000
        k(  721) = (   0.2309401   0.5307229  -0.2000000), wk =   0.0010000
        k(  722) = (   0.2020726   0.5103104  -0.1500000), wk =   0.0010000
        k(  723) = (   0.1732051   0.4898980  -0.1000000), wk =   0.0010000
        k(  724) = (   0.1443376   0.4694856  -0.0500000), wk =   0.0010000
        k(  725) = (   0.1154701   0.5103104   0.0000000), wk =   0.0005000
        k(  726) = (   0.0000000   0.4286607   0.2000000), wk =   0.0010000
        k(  727) = (  -0.0288675   0.4082483   0.2499999), wk =   0.0010000
        k(  728) = (  -0.0577350   0.3878359   0.2999999), wk =   0.0010000
        k(  729) = (  -0.0866025   0.3674235   0.3499999), wk =   0.0010000
        k(  730) = (  -0.1154701   0.3470111   0.3999999), wk =   0.0010000
        k(  731) = (  -0.1443376   0.3265986   0.4499999), wk =   0.0010000
        k(  732) = (   0.4041452   0.7144346  -0.4999999), wk =   0.0010000
        k(  733) = (   0.3752777   0.6940222  -0.4499999), wk =   0.0010000
        k(  734) = (   0.3464102   0.6736098  -0.3999999), wk =   0.0010000
        k(  735) = (   0.3175427   0.6531974  -0.3499999), wk =   0.0010000
        k(  736) = (   0.2886752   0.6327850  -0.2999999), wk =   0.0010000
        k(  737) = (   0.2598076   0.6123725  -0.2499999), wk =   0.0010000
        k(  738) = (   0.2309401   0.5919601  -0.2000000), wk =   0.0010000
        k(  739) = (   0.2020726   0.5715477  -0.1500000), wk =   0.0010000
        k(  740) = (   0.1732051   0.5511353  -0.1000000), wk =   0.0010000
        k(  741) = (   0.1443376   0.5307229  -0.0500000), wk =   0.0010000
        k(  742) = (   0.1154701  -0.6531973   0.0000000), wk =   0.0005000
        k(  743) = (   0.0000000  -0.7348470   0.2000000), wk =   0.0010000
        k(  744) = (  -0.0288675  -0.7552594   0.2499999), wk =   0.0010000
        k(  745) = (  -0.0577350  -0.7756718   0.2999999), wk =   0.0010000
        k(  746) = (  -0.0866025  -0.7960843   0.3499999), wk =   0.0010000
        k(  747) = (  -0.1154701  -0.8164967   0.3999999), wk =   0.0010000
        k(  748) = (  -0.1443376  -0.8369091   0.4499999), wk =   0.0010000
        k(  749) = (   0.4041452  -0.4490731  -0.4999999), wk =   0.0010000
        k(  750) = (   0.3752777  -0.4694855  -0.4499999), wk =   0.0010000
        k(  751) = (   0.3464102  -0.4898979  -0.3999999), wk =   0.0010000
        k(  752) = (   0.3175427  -0.5103104  -0.3499999), wk =   0.0010000
        k(  753) = (   0.2886752  -0.5307228  -0.2999999), wk =   0.0010000
        k(  754) = (   0.2598076  -0.5511352  -0.2499999), wk =   0.0010000
        k(  755) = (   0.2309401  -0.5715476  -0.2000000), wk =   0.0010000
        k(  756) = (   0.2020726  -0.5919601  -0.1500000), wk =   0.0010000
        k(  757) = (   0.1732051  -0.6123725  -0.1000000), wk =   0.0010000
        k(  758) = (   0.1443376  -0.6327849  -0.0500000), wk =   0.0010000
        k(  759) = (   0.1154701  -0.5919601   0.0000000), wk =   0.0005000
        k(  760) = (   0.0000000  -0.6736097   0.2000000), wk =   0.0010000
        k(  761) = (  -0.0288675  -0.6940222   0.2499999), wk =   0.0010000
        k(  762) = (  -0.0577350  -0.7144346   0.2999999), wk =   0.0010000
        k(  763) = (  -0.0866025  -0.7348470   0.3499999), wk =   0.0010000
        k(  764) = (  -0.1154701  -0.7552594   0.3999999), wk =   0.0010000
        k(  765) = (  -0.1443376  -0.7756719   0.4499999), wk =   0.0010000
        k(  766) = (   0.4041452  -0.3878359  -0.4999999), wk =   0.0010000
        k(  767) = (   0.3752777  -0.4082483  -0.4499999), wk =   0.0010000
        k(  768) = (   0.3464102  -0.4286607  -0.3999999), wk =   0.0010000
        k(  769) = (   0.3175427  -0.4490731  -0.3499999), wk =   0.0010000
        k(  770) = (   0.2886752  -0.4694855  -0.2999999), wk =   0.0010000
        k(  771) = (   0.2598076  -0.4898980  -0.2499999), wk =   0.0010000
        k(  772) = (   0.2309401  -0.5103104  -0.2000000), wk =   0.0010000
        k(  773) = (   0.2020726  -0.5307228  -0.1500000), wk =   0.0010000
        k(  774) = (   0.1732051  -0.5511352  -0.1000000), wk =   0.0010000
        k(  775) = (   0.1443376  -0.5715476  -0.0500000), wk =   0.0010000
        k(  776) = (   0.1154701  -0.5307228   0.0000000), wk =   0.0005000
        k(  777) = (   0.0000000  -0.6123725   0.2000000), wk =   0.0005000
        k(  778) = (  -0.0288675  -0.6327849   0.2499999), wk =   0.0010000
        k(  779) = (  -0.0577350  -0.6531973   0.2999999), wk =   0.0010000
        k(  780) = (  -0.0866025  -0.6736098   0.3499999), wk =   0.0010000
        k(  781) = (  -0.1154701  -0.6940222   0.3999999), wk =   0.0010000
        k(  782) = (  -0.1443376  -0.7144346   0.4499999), wk =   0.0010000
        k(  783) = (   0.4041452  -0.3265986  -0.4999999), wk =   0.0010000
        k(  784) = (   0.3752777  -0.3470110  -0.4499999), wk =   0.0010000
        k(  785) = (   0.3464102  -0.3674234  -0.3999999), wk =   0.0010000
        k(  786) = (   0.3175427  -0.3878359  -0.3499999), wk =   0.0010000
        k(  787) = (   0.2886752  -0.4082483  -0.2999999), wk =   0.0010000
        k(  788) = (   0.2598076  -0.4286607  -0.2499999), wk =   0.0010000
        k(  789) = (   0.2309401  -0.4490731  -0.2000000), wk =   0.0010000
        k(  790) = (   0.2020726  -0.4694856  -0.1500000), wk =   0.0010000
        k(  791) = (   0.1732051  -0.4898980  -0.1000000), wk =   0.0010000
        k(  792) = (   0.1443376  -0.5103104  -0.0500000), wk =   0.0010000
        k(  793) = (   0.1154701  -0.4694856   0.0000000), wk =   0.0005000
        k(  794) = (  -0.0288675  -0.5715477   0.2499999), wk =   0.0010000
        k(  795) = (  -0.0577350  -0.5919601   0.2999999), wk =   0.0010000
        k(  796) = (  -0.0866025  -0.6123725   0.3499999), wk =   0.0010000
        k(  797) = (  -0.1154701  -0.6327849   0.3999999), wk =   0.0010000
        k(  798) = (  -0.1443376  -0.6531974   0.4499999), wk =   0.0010000
        k(  799) = (   0.4041452  -0.2653614  -0.4999999), wk =   0.0010000
        k(  800) = (   0.3752777  -0.2857738  -0.4499999), wk =   0.0010000
        k(  801) = (   0.3464102  -0.3061862  -0.3999999), wk =   0.0010000
        k(  802) = (   0.3175427  -0.3265986  -0.3499999), wk =   0.0010000
        k(  803) = (   0.2886752  -0.3470110  -0.2999999), wk =   0.0010000
        k(  804) = (   0.2598076  -0.3674235  -0.2499999), wk =   0.0010000
        k(  805) = (   0.2309401  -0.3878359  -0.2000000), wk =   0.0010000
        k(  806) = (   0.2020726  -0.4082483  -0.1500000), wk =   0.0010000
        k(  807) = (   0.1732051  -0.4286607  -0.1000000), wk =   0.0010000
        k(  808) = (   0.1443376  -0.4490731  -0.0500000), wk =   0.0010000
        k(  809) = (   0.1154701  -0.4082483   0.0000000), wk =   0.0005000
        k(  810) = (  -0.0288675  -0.5103104   0.2499999), wk =   0.0010000
        k(  811) = (  -0.0577350  -0.5307228   0.2999999), wk =   0.0010000
        k(  812) = (  -0.0866025  -0.5511353   0.3499999), wk =   0.0010000
        k(  813) = (  -0.1154701  -0.5715477   0.3999999), wk =   0.0010000
        k(  814) = (  -0.1443376  -0.5919601   0.4499999), wk =   0.0010000
        k(  815) = (   0.4041452  -0.2041241  -0.4999999), wk =   0.0010000
        k(  816) = (   0.3752777  -0.2245365  -0.4499999), wk =   0.0010000
        k(  817) = (   0.3464102  -0.2449489  -0.3999999), wk =   0.0010000
        k(  818) = (   0.3175427  -0.2653614  -0.3499999), wk =   0.0010000
        k(  819) = (   0.2886752  -0.2857738  -0.2999999), wk =   0.0010000
        k(  820) = (   0.2598076  -0.3061862  -0.2499999), wk =   0.0010000
        k(  821) = (   0.2309401  -0.3265986  -0.2000000), wk =   0.0010000
        k(  822) = (   0.2020726  -0.3470111  -0.1500000), wk =   0.0010000
        k(  823) = (   0.1732051  -0.3674235  -0.1000000), wk =   0.0010000
        k(  824) = (   0.1443376  -0.3878359  -0.0500000), wk =   0.0010000
        k(  825) = (   0.1154701  -0.3470111   0.0000000), wk =   0.0005000
        k(  826) = (  -0.0288675  -0.4490732   0.2499999), wk =   0.0010000
        k(  827) = (  -0.0577350  -0.4694856   0.2999999), wk =   0.0010000
        k(  828) = (  -0.0866025  -0.4898980   0.3499999), wk =   0.0010000
        k(  829) = (  -0.1154701  -0.5103104   0.3999999), wk =   0.0010000
        k(  830) = (  -0.1443376  -0.5307229   0.4499999), wk =   0.0010000
        k(  831) = (   0.4041452  -0.1428869  -0.4999999), wk =   0.0010000
        k(  832) = (   0.3752777  -0.1632993  -0.4499999), wk =   0.0010000
        k(  833) = (   0.3464102  -0.1837117  -0.3999999), wk =   0.0010000
        k(  834) = (   0.3175427  -0.2041241  -0.3499999), wk =   0.0010000
        k(  835) = (   0.2886752  -0.2245365  -0.2999999), wk =   0.0010000
        k(  836) = (   0.2598076  -0.2449490  -0.2499999), wk =   0.0010000
        k(  837) = (   0.2309401  -0.2653614  -0.2000000), wk =   0.0010000
        k(  838) = (   0.2020726  -0.2857738  -0.1500000), wk =   0.0010000
        k(  839) = (   0.1732051  -0.3061862  -0.1000000), wk =   0.0010000
        k(  840) = (   0.1443376  -0.3265986  -0.0500000), wk =   0.0010000
        k(  841) = (   0.1154701  -0.2857738   0.0000000), wk =   0.0005000
        k(  842) = (  -0.0288675  -0.3878359   0.2499999), wk =   0.0010000
        k(  843) = (  -0.0577350  -0.4082483   0.2999999), wk =   0.0010000
        k(  844) = (  -0.0866025  -0.4286608   0.3499999), wk =   0.0010000
        k(  845) = (  -0.1154701  -0.4490732   0.3999999), wk =   0.0010000
        k(  846) = (  -0.1443376  -0.4694856   0.4499999), wk =   0.0010000
        k(  847) = (   0.4041452  -0.0816496  -0.4999999), wk =   0.0010000
        k(  848) = (   0.3752777  -0.1020620  -0.4499999), wk =   0.0010000
        k(  849) = (   0.3464102  -0.1224744  -0.3999999), wk =   0.0010000
        k(  850) = (   0.3175427  -0.1428869  -0.3499999), wk =   0.0010000
        k(  851) = (   0.2886752  -0.1632993  -0.2999999), wk =   0.0010000
        k(  852) = (   0.2598076  -0.1837117  -0.2499999), wk =   0.0010000
        k(  853) = (   0.2309401  -0.2041241  -0.2000000), wk =   0.0010000
        k(  854) = (   0.2020726  -0.2245366  -0.1500000), wk =   0.0010000
        k(  855) = (   0.1732051  -0.2449490  -0.1000000), wk =   0.0010000
        k(  856) = (   0.1443376  -0.2653614  -0.0500000), wk =   0.0010000
        k(  857) = (   0.1154701  -0.2245366   0.0000000), wk =   0.0005000
        k(  858) = (  -0.0288675  -0.3265987   0.2499999), wk =   0.0010000
        k(  859) = (  -0.0577350  -0.3470111   0.2999999), wk =   0.0010000
        k(  860) = (  -0.0866025  -0.3674235   0.3499999), wk =   0.0010000
        k(  861) = (  -0.1154701  -0.3878359   0.3999999), wk =   0.0010000
        k(  862) = (  -0.1443376  -0.4082484   0.4499999), wk =   0.0010000
        k(  863) = (   0.4041452  -0.0204124  -0.4999999), wk =   0.0010000
        k(  864) = (   0.3752777  -0.0408248  -0.4499999), wk =   0.0010000
        k(  865) = (   0.3464102  -0.0612372  -0.3999999), wk =   0.0010000
        k(  866) = (   0.3175427  -0.0816496  -0.3499999), wk =   0.0010000
        k(  867) = (   0.2886752  -0.1020620  -0.2999999), wk =   0.0010000
        k(  868) = (   0.2598076  -0.1224745  -0.2499999), wk =   0.0010000
        k(  869) = (   0.2309401  -0.1428869  -0.2000000), wk =   0.0010000
        k(  870) = (   0.2020726  -0.1632993  -0.1500000), wk =   0.0010000
        k(  871) = (   0.1732051  -0.1837117  -0.1000000), wk =   0.0010000
        k(  872) = (   0.1443376  -0.2041241  -0.0500000), wk =   0.0010000
        k(  873) = (   0.1154701  -0.1632993   0.0000000), wk =   0.0005000
        k(  874) = (  -0.0288675  -0.2653614   0.2499999), wk =   0.0010000
        k(  875) = (  -0.0577350  -0.2857738   0.2999999), wk =   0.0010000
        k(  876) = (  -0.0866025  -0.3061863   0.3499999), wk =   0.0010000
        k(  877) = (  -0.1154701  -0.3265987   0.3999999), wk =   0.0010000
        k(  878) = (  -0.1443376  -0.3470111   0.4499999), wk =   0.0010000
        k(  879) = (   0.4041452   0.0408249  -0.4999999), wk =   0.0010000
        k(  880) = (   0.3752777   0.0204125  -0.4499999), wk =   0.0010000
        k(  881) = (   0.3464102   0.0000001  -0.3999999), wk =   0.0010000
        k(  882) = (   0.3175427  -0.0204124  -0.3499999), wk =   0.0010000
        k(  883) = (   0.2886752  -0.0408248  -0.2999999), wk =   0.0010000
        k(  884) = (   0.2598076  -0.0612372  -0.2499999), wk =   0.0010000
        k(  885) = (   0.2309401  -0.0816496  -0.2000000), wk =   0.0010000
        k(  886) = (   0.2020726  -0.1020621  -0.1500000), wk =   0.0010000
        k(  887) = (   0.1732051  -0.1224745  -0.1000000), wk =   0.0010000
        k(  888) = (   0.1443376  -0.1428869  -0.0500000), wk =   0.0010000
        k(  889) = (   0.1154701  -0.1020621   0.0000000), wk =   0.0005000
        k(  890) = (  -0.0288675  -0.2041242   0.2499999), wk =   0.0010000
        k(  891) = (  -0.0577350  -0.2245366   0.2999999), wk =   0.0010000
        k(  892) = (  -0.0866025  -0.2449490   0.3499999), wk =   0.0010000
        k(  893) = (  -0.1154701  -0.2653614   0.3999999), wk =   0.0010000
        k(  894) = (  -0.1443376  -0.2857739   0.4499999), wk =   0.0010000
        k(  895) = (   0.4041452   0.1020621  -0.4999999), wk =   0.0010000
        k(  896) = (   0.3752777   0.0816497  -0.4499999), wk =   0.0010000
        k(  897) = (   0.3464102   0.0612373  -0.3999999), wk =   0.0010000
        k(  898) = (   0.3175427   0.0408249  -0.3499999), wk =   0.0010000
        k(  899) = (   0.2886752   0.0204125  -0.2999999), wk =   0.0010000
        k(  900) = (   0.2598076   0.0000000  -0.2499999), wk =   0.0010000
        k(  901) = (   0.2309401  -0.0204124  -0.2000000), wk =   0.0010000
        k(  902) = (   0.2020726  -0.0408248  -0.1500000), wk =   0.0010000
        k(  903) = (   0.1732051  -0.0612372  -0.1000000), wk =   0.0010000
        k(  904) = (   0.1443376  -0.0816496  -0.0500000), wk =   0.0010000
        k(  905) = (   0.1732051  -0.0612372   0.0000000), wk =   0.0005000
        k(  906) = (   0.0000000  -0.1837117   0.2999999), wk =   0.0010000
        k(  907) = (  -0.0288675  -0.2041242   0.3499999), wk =   0.0010000
        k(  908) = (  -0.0577350  -0.2245366   0.3999999), wk =   0.0010000
        k(  909) = (  -0.0866025  -0.2449490   0.4499999), wk =   0.0010000
        k(  910) = (   0.4618802   0.1428870  -0.4999999), wk =   0.0010000
        k(  911) = (   0.4330127   0.1224746  -0.4499999), wk =   0.0010000
        k(  912) = (   0.4041452   0.1020621  -0.3999999), wk =   0.0010000
        k(  913) = (   0.3752777   0.0816497  -0.3499999), wk =   0.0010000
        k(  914) = (   0.3464102   0.0612373  -0.2999999), wk =   0.0010000
        k(  915) = (   0.3175427   0.0408249  -0.2499999), wk =   0.0010000
        k(  916) = (   0.2886752   0.0204125  -0.2000000), wk =   0.0010000
        k(  917) = (   0.2598076   0.0000000  -0.1500000), wk =   0.0010000
        k(  918) = (   0.2309401  -0.0204124  -0.1000000), wk =   0.0010000
        k(  919) = (   0.2020726  -0.0408248  -0.0500000), wk =   0.0010000
        k(  920) = (   0.1732051   0.0000000   0.0000000), wk =   0.0005000
        k(  921) = (   0.0000000  -0.1224745   0.2999999), wk =   0.0010000
        k(  922) = (  -0.0288675  -0.1428869   0.3499999), wk =   0.0010000
        k(  923) = (  -0.0577350  -0.1632993   0.3999999), wk =   0.0010000
        k(  924) = (  -0.0866025  -0.1837118   0.4499999), wk =   0.0010000
        k(  925) = (   0.4618802   0.2041242  -0.4999999), wk =   0.0010000
        k(  926) = (   0.4330127   0.1837118  -0.4499999), wk =   0.0010000
        k(  927) = (   0.4041452   0.1632994  -0.3999999), wk =   0.0010000
        k(  928) = (   0.3752777   0.1428870  -0.3499999), wk =   0.0010000
        k(  929) = (   0.3464102   0.1224745  -0.2999999), wk =   0.0010000
        k(  930) = (   0.3175427   0.1020621  -0.2499999), wk =   0.0010000
        k(  931) = (   0.2886752   0.0816497  -0.2000000), wk =   0.0010000
        k(  932) = (   0.2598076   0.0612373  -0.1500000), wk =   0.0010000
        k(  933) = (   0.2309401   0.0408249  -0.1000000), wk =   0.0010000
        k(  934) = (   0.2020726   0.0204124  -0.0500000), wk =   0.0010000
        k(  935) = (   0.1732051   0.0612373   0.0000000), wk =   0.0005000
        k(  936) = (   0.0000000  -0.0612372   0.2999999), wk =   0.0010000
        k(  937) = (  -0.0288675  -0.0816497   0.3499999), wk =   0.0010000
        k(  938) = (  -0.0577350  -0.1020621   0.3999999), wk =   0.0010000
        k(  939) = (  -0.0866025  -0.1224745   0.4499999), wk =   0.0010000
        k(  940) = (   0.4618802   0.2653615  -0.4999999), wk =   0.0010000
        k(  941) = (   0.4330127   0.2449491  -0.4499999), wk =   0.0010000
        k(  942) = (   0.4041452   0.2245366  -0.3999999), wk =   0.0010000
        k(  943) = (   0.3752777   0.2041242  -0.3499999), wk =   0.0010000
        k(  944) = (   0.3464102   0.1837118  -0.2999999), wk =   0.0010000
        k(  945) = (   0.3175427   0.1632994  -0.2499999), wk =   0.0010000
        k(  946) = (   0.2886752   0.1428870  -0.2000000), wk =   0.0010000
        k(  947) = (   0.2598076   0.1224745  -0.1500000), wk =   0.0010000
        k(  948) = (   0.2309401   0.1020621  -0.1000000), wk =   0.0010000
        k(  949) = (   0.2020726   0.0816497  -0.0500000), wk =   0.0010000
        k(  950) = (   0.1732051   0.1224745   0.0000000), wk =   0.0005000
        k(  951) = (   0.0000000   0.0000000   0.2999999), wk =   0.0005000
        k(  952) = (  -0.0288675  -0.0204124   0.3499999), wk =   0.0010000
        k(  953) = (  -0.0577350  -0.0408248   0.3999999), wk =   0.0010000
        k(  954) = (  -0.0866025  -0.0612373   0.4499999), wk =   0.0010000
        k(  955) = (   0.4618802   0.3265987  -0.4999999), wk =   0.0010000
        k(  956) = (   0.4330127   0.3061863  -0.4499999), wk =   0.0010000
        k(  957) = (   0.4041452   0.2857739  -0.3999999), wk =   0.0010000
        k(  958) = (   0.3752777   0.2653615  -0.3499999), wk =   0.0010000
        k(  959) = (   0.3464102   0.2449490  -0.2999999), wk =   0.0010000
        k(  960) = (   0.3175427   0.2245366  -0.2499999), wk =   0.0010000
        k(  961) = (   0.2886752   0.2041242  -0.2000000), wk =   0.0010000
        k(  962) = (   0.2598076   0.1837118  -0.1500000), wk =   0.0010000
        k(  963) = (   0.2309401   0.1632994  -0.1000000), wk =   0.0010000
        k(  964) = (   0.2020726   0.1428869  -0.0500000), wk =   0.0010000
        k(  965) = (   0.1732051   0.1837118   0.0000000), wk =   0.0005000
        k(  966) = (  -0.0288675   0.0408248   0.3499999), wk =   0.0010000
        k(  967) = (  -0.0577350   0.0204124   0.3999999), wk =   0.0010000
        k(  968) = (  -0.0866025  -0.0000000   0.4499999), wk =   0.0010000
        k(  969) = (   0.4618802   0.3878360  -0.4999999), wk =   0.0010000
        k(  970) = (   0.4330127   0.3674236  -0.4499999), wk =   0.0010000
        k(  971) = (   0.4041452   0.3470111  -0.3999999), wk =   0.0010000
        k(  972) = (   0.3752777   0.3265987  -0.3499999), wk =   0.0010000
        k(  973) = (   0.3464102   0.3061863  -0.2999999), wk =   0.0010000
        k(  974) = (   0.3175427   0.2857739  -0.2499999), wk =   0.0010000
        k(  975) = (   0.2886752   0.2653615  -0.2000000), wk =   0.0010000
        k(  976) = (   0.2598076   0.2449490  -0.1500000), wk =   0.0010000
        k(  977) = (   0.2309401   0.2245366  -0.1000000), wk =   0.0010000
        k(  978) = (   0.2020726   0.2041242  -0.0500000), wk =   0.0010000
        k(  979) = (   0.1732051   0.2449490   0.0000000), wk =   0.0005000
        k(  980) = (  -0.0288675   0.1020621   0.3499999), wk =   0.0010000
[...]

     3.1593   5.8960  14.8224  18.2363  20.1362  23.8417

     occupation numbers 
     1.0000   1.0000   0.0000   0.0000   0.0000   0.0000

          k = 0.5774-0.2654-0.2000 (   533 PWs)   bands (ev):

     4.2112   5.2113  14.1371  16.6252  20.4280  24.0757

     occupation numbers 
     1.0000   1.0000   0.0000   0.0000   0.0000   0.0000

          k = 0.5485-0.2858-0.1500 (   530 PWs)   bands (ev):

     4.2462   4.6897  15.1720  17.7744  19.6345  24.1806

     occupation numbers 
     1.0000   1.0000   0.0000   0.0000   0.0000   0.0000

          k = 0.5196-0.3062-0.1000 (   538 PWs)   bands (ev):

     3.8528   4.8590  16.2602  17.1410  20.8397  22.9779

     occupation numbers 
     1.0000   1.0000   0.0000   0.0000   0.0000   0.0000

          k = 0.4907-0.3266-0.0500 (   537 PWs)   bands (ev):

     3.4469   5.3049  15.8958  17.5441  21.2816  22.5904

     occupation numbers 
     1.0000   1.0000   0.0000   0.0000   0.0000   0.0000

          k = 0.4619-0.2858 0.0000 (   533 PWs)   bands (ev):

     2.4577   6.0999  16.6433  19.2152  21.0317  22.4194

     occupation numbers 
     1.0000   1.0000   0.0000   0.0000   0.0000   0.0000

          k = 0.5774-0.2041-0.2000 (   534 PWs)   bands (ev):

     4.4227   4.8692  15.0525  15.6632  22.0932  22.3871

     occupation numbers 
     1.0000   1.0000   0.0000   0.0000   0.0000   0.0000

          k = 0.5485-0.2245-0.1500 (   538 PWs)   bands (ev):

     3.8528   4.8590  16.2602  17.1410  20.8397  22.9779

     occupation numbers 
     1.0000   1.0000   0.0000   0.0000   0.0000   0.0000

          k = 0.5196-0.2449-0.1000 (   537 PWs)   bands (ev):

     3.2663   5.1288  17.3793  18.3323  20.0980  23.1386

     occupation numbers 
     1.0000   1.0000   0.0000   0.0000   0.0000   0.0000

          k = 0.4907-0.2654-0.0500 (   536 PWs)   bands (ev):

     2.7967   5.5469  17.6814  18.5604  21.2419  22.0772

     occupation numbers 
     1.0000   1.0000   0.0000   0.0000   0.0000   0.0000

          k = 0.4619-0.2245 0.0000 (   535 PWs)   bands (ev):

     1.8877   6.4361  18.4567  20.3076  21.1215  21.7229

     occupation numbers 
     1.0000   1.0000   0.0000   0.0000   0.0000   0.0000

          k = 0.5485-0.1633-0.1500 (   537 PWs)   bands (ev):

     3.4469   5.3049  15.8958  17.5441  21.2817  22.5904

     occupation numbers 
     1.0000   1.0000   0.0000   0.0000   0.0000   0.0000

          k = 0.5196-0.1837-0.1000 (   536 PWs)   bands (ev):

     2.7967   5.5469  17.6814  18.5604  21.2420  22.0772

     occupation numbers 
     1.0000   1.0000   0.0000   0.0000   0.0000   0.0000

          k = 0.4907-0.2041-0.0500 (   533 PWs)   bands (ev):

     2.2754   5.9252  19.0496  19.5908  20.4542  22.2565

     occupation numbers 
     1.0000   1.0000   0.0000   0.0000   0.0000   0.0000

          k = 0.5196-0.1837 0.0000 (   535 PWs)   bands (ev):

     2.6152   5.3697  20.1424  20.1424  20.9693  20.9693

     occupation numbers 
     1.0000   1.0000   0.0000   0.0000   0.0000   0.0000

          k = 0.5774-0.1429-0.1000 (   536 PWs)   bands (ev):

     3.6747   4.6789  16.9503  18.7142  20.5040  22.7224

     occupation numbers 
     1.0000   1.0000   0.0000   0.0000   0.0000   0.0000

          k = 0.5485-0.1633-0.0500 (   536 PWs)   bands (ev):

     3.0861   4.9499  18.7203  19.7708  21.1780  21.3844

     occupation numbers 
     1.0000   1.0000   0.0000   0.0000   0.0000   0.0000

          k = 0.5196-0.1225 0.0000 (   533 PWs)   bands (ev):

     2.2754   5.9252  19.0496  19.5909  20.4542  22.2565

     occupation numbers 
     1.0000   1.0000   0.0000   0.0000   0.0000   0.0000

          k = 0.5774-0.0816-0.1000 (   537 PWs)   bands (ev):

     3.4469   5.3049  15.8958  17.5441  21.2817  22.5904

     occupation numbers 
     1.0000   1.0000   0.0000   0.0000   0.0000   0.0000

          k = 0.5485-0.1021-0.0500 (   536 PWs)   bands (ev):

     2.7967   5.5469  17.6814  18.5604  21.2419  22.0772

     occupation numbers 
     1.0000   1.0000   0.0000   0.0000   0.0000   0.0000

          k = 0.5196-0.0612 0.0000 (   529 PWs)   bands (ev):

     2.0703   6.6116  17.9264  18.0693  19.8177  23.6671

     occupation numbers 
     1.0000   1.0000   0.0000   0.0000   0.0000   0.0000

          k = 0.5774-0.0204-0.1000 (   536 PWs)   bands (ev):

     3.3388   6.0735  14.9042  15.9388  21.8474  22.7450

     occupation numbers 
     1.0000   1.0000   0.0000   0.0000   0.0000   0.0000

          k = 0.5485-0.0408-0.0500 (   536 PWs)   bands (ev):

     2.6390   6.2768  16.5790  17.0310  20.5137  23.4800

     occupation numbers 
     1.0000   1.0000   0.0000   0.0000   0.0000   0.0000

          k = 0.5196 0.0000 0.0000 (   532 PWs)   bands (ev):

     2.0012   7.4242  16.2470  17.2088  19.0031  25.1895

     occupation numbers 
     1.0000   1.0000   0.0000   0.0000   0.0000   0.0000

          k = 0.5774 0.0408-0.1000 (   535 PWs)   bands (ev):

     3.3616   6.9678  13.8451  14.5467  21.1018  24.3124

     occupation numbers 
     1.0000   1.0000   0.0000   0.0000   0.0000   0.0000

          k = 0.5485 0.0204-0.0500 (   532 PWs)   bands (ev):

     2.6159   7.1328  15.0898  16.0146  19.7150  25.0198

     occupation numbers 
     1.0000   1.0000   0.0000   0.0000   0.0000   0.0000

          k = 0.5196 0.0612 0.0000 (   533 PWs)   bands (ev):

     2.0687   8.3574  14.6401  16.4687  18.2106  25.6848

     occupation numbers 
     1.0000   1.0165   0.0000   0.0000   0.0000   0.0000

          k = 0.5774 0.1021-0.1000 (   534 PWs)   bands (ev):

     3.5167   7.9746  12.5000  13.6642  20.3909  25.3036

     occupation numbers 
     1.0000   1.0000   0.0000   0.0000   0.0000   0.0000

          k = 0.5485 0.0816-0.0500 (   532 PWs)   bands (ev):

     2.7278   8.1072  13.5381  15.2653  18.9676  25.4787

     occupation numbers 
     1.0000   1.0000   0.0000   0.0000   0.0000   0.0000

          k = 0.5196 0.1225 0.0000 (   531 PWs)   bands (ev):

     2.2721   9.4007  13.1364  15.8491  17.4888  23.6972

     occupation numbers 
     1.0000   0.0000   0.0000   0.0000   0.0000   0.0000

          k = 0.5774 0.1633-0.1000 (   530 PWs)   bands (ev):

     3.8026   9.0654  11.1248  13.0819  19.7288  23.5438

     occupation numbers 
     1.0000   0.0000   0.0000   0.0000   0.0000   0.0000

          k = 0.5485 0.1429-0.0500 (   530 PWs)   bands (ev):

     2.9737   9.1849  12.0805  14.6606  18.2948  23.5472

     occupation numbers 
     1.0000   0.0000   0.0000   0.0000   0.0000   0.0000

          k = 0.5196 0.1837 0.0000 (   529 PWs)   bands (ev):

     2.6099  10.5161  11.7750  15.3496  16.8367  21.7749

     occupation numbers 
     1.0000   0.0000   0.0000   0.0000   0.0000   0.0000

          k = 0.5774 0.2245-0.1000 (   524 PWs)   bands (ev):

     4.2140   9.7097  10.3209  12.7360  19.0423  21.8249

     occupation numbers 
     1.0000   0.0000   0.0000   0.0000   0.0000   0.0000

          k = 0.5485 0.2041-0.0500 (   530 PWs)   bands (ev):

     3.3512  10.2417  10.8472  14.1974  17.6760  21.6812

     occupation numbers 
     1.0000   0.0000   0.0000   0.0000   0.0000   0.0000

          k = 0.5196 0.2449 0.0000 (   529 PWs)   bands (ev):

     3.0794  10.3956  11.8498  14.9703  16.2011  20.0679

     occupation numbers 
     1.0000   0.0000   0.0000   0.0000   0.0000   0.0000

          k = 0.5774 0.2858-0.1000 (   522 PWs)   bands (ev):

     4.7366   8.6254  11.1578  12.8424  18.1213  20.5557

     occupation numbers 
     1.0000   0.6851   0.0000   0.0000   0.0000   0.0000

          k = 0.5485 0.2654-0.0500 (   527 PWs)   bands (ev):

     3.8545   9.4410  11.6335  13.9077  17.0206  20.0811

     occupation numbers 
     1.0000   0.0000   0.0000   0.0000   0.0000   0.0000

          k = 0.5196 0.3062 0.0000 (   527 PWs)   bands (ev):

     3.6743   9.2788  13.0765  14.7110  15.4351  18.8018

     occupation numbers 
     1.0000   0.0000   0.0000   0.0000   0.0000   0.0000

          k = 0.5774 0.3470-0.1000 (   525 PWs)   bands (ev):

     5.3174   7.6664  11.4542  13.7381  16.8500  19.9214

     occupation numbers 
     1.0000   1.0000   0.0000   0.0000   0.0000   0.0000

          k = 0.5485 0.3266-0.0500 (   524 PWs)   bands (ev):

     4.4689   8.3724  12.6264  13.9787  16.1418  19.0096

     occupation numbers 
     1.0000   1.0226   0.0000   0.0000   0.0000   0.0000

          k = 0.5196 0.3674 0.0000 (   524 PWs)   bands (ev):

     4.3796   8.2867  14.0260  14.5717  14.5717  18.2800

     occupation numbers 
     1.0000   1.0025   0.0000   0.0000   0.0000   0.0000

          k = 0.5774 0.4082-0.1000 (   528 PWs)   bands (ev):

     5.6715   7.1850  11.4816  14.6526  15.8447  19.7472

     occupation numbers 
     1.0000   1.0000   0.0000   0.0000   0.0000   0.0000

          k = 0.5485 0.3878-0.0500 (   524 PWs)   bands (ev):

     5.1410   7.4931  12.9011  14.5522  15.2621  18.6347

     occupation numbers 
     1.0000   1.0000   0.0000   0.0000   0.0000   0.0000

          k = 0.5196-0.7961 0.0000 (   524 PWs)   bands (ev):

     5.1410   7.4931  12.9011  14.5522  15.2621  18.6347

     occupation numbers 
     1.0000   1.0000   0.0000   0.0000   0.0000   0.0000

          k = 0.5485-0.7757-0.0500 (   526 PWs)   bands (ev):

     5.5842   7.0979  12.5390  13.8958  16.0572  18.9269

     occupation numbers 
     1.0000   1.0000   0.0000   0.0000   0.0000   0.0000

          k = 0.5196-0.7348 0.0000 (   528 PWs)   bands (ev):

     5.6715   7.1850  11.4816  14.6525  15.8447  19.7472

     occupation numbers 
     1.0000   1.0000   0.0000   0.0000   0.0000   0.0000

          k = 0.5485-0.7144-0.0500 (   525 PWs)   bands (ev):

     5.3174   7.6664  11.4542  13.7381  16.8500  19.9214

     occupation numbers 
     1.0000   1.0000   0.0000   0.0000   0.0000   0.0000

          k = 0.5196-0.6736 0.0000 (   528 PWs)   bands (ev):

     5.4934   7.8275  10.1010  14.8728  16.2989  21.3124

     occupation numbers 
     1.0000   1.0000   0.0000   0.0000   0.0000   0.0000

          k = 0.5485-0.6532-0.0500 (   523 PWs)   bands (ev):

     4.8254   8.6881  10.1913  13.9413  17.4196  21.4507

     occupation numbers 
     1.0000   0.3513   0.0000   0.0000   0.0000   0.0000

          k = 0.5196-0.6124 0.0000 (   526 PWs)   bands (ev):

     5.0908   8.5145   9.2337  15.2131  16.7790  23.1099

     occupation numbers 
     1.0000   1.0702   0.0000   0.0000   0.0000   0.0000

          k = 0.5485-0.5920-0.0500 (   527 PWs)   bands (ev):

     4.3924   8.7879  10.0815  14.3175  17.9563  23.2552

     occupation numbers 
     1.0000   0.0563   0.0000   0.0000   0.0000   0.0000

          k = 0.5196-0.5511 0.0000 (   529 PWs)   bands (ev):

     4.7463   7.4598  10.4046  15.6733  17.3452  25.0272

     occupation numbers 
     1.0000   1.0000   0.0000   0.0000   0.0000   0.0000

          k = 0.5485-0.5307-0.0500 (   533 PWs)   bands (ev):

     4.0707   7.6597  11.4305  14.8322  18.5538  25.1778

     occupation numbers 
     1.0000   1.0000   0.0000   0.0000   0.0000   0.0000

          k = 0.5196-0.4899 0.0000 (   530 PWs)   bands (ev):

     4.5099   6.3652  11.8713  16.2537  18.0147  26.9387

     occupation numbers 
     1.0000   1.0000   0.0000   0.0000   0.0000   0.0000

          k = 0.5485-0.4695-0.0500 (   534 PWs)   bands (ev):

     3.8737   6.6019  12.9408  15.4761  19.2399  26.0721

     occupation numbers 
     1.0000   1.0000   0.0000   0.0000   0.0000   0.0000

          k = 0.5196-0.4287 0.0000 (   531 PWs)   bands (ev):

     4.3840   5.3949  13.4687  16.9541  18.7846  25.7528

     occupation numbers 
     1.0000   1.0000   0.0000   0.0000   0.0000   0.0000

          k = 0.5485-0.4082-0.0500 (   536 PWs)   bands (ev):

     3.8040   5.6614  14.5619  16.2452  20.0129  24.4977

     occupation numbers 
     1.0000   1.0000   0.0000   0.0000   0.0000   0.0000

          k = 0.5196-0.3674 0.0000 (   530 PWs)   bands (ev):

     4.2462   4.6897  15.1720  17.7744  19.6345  24.1806

     occupation numbers 
     1.0000   1.0000   0.0000   0.0000   0.0000   0.0000

          k = 0.5485-0.3470-0.0500 (   538 PWs)   bands (ev):

     3.8528   4.8590  16.2602  17.1410  20.8397  22.9779

     occupation numbers 
     1.0000   1.0000   0.0000   0.0000   0.0000   0.0000

          k = 0.5196-0.3062 0.0000 (   536 PWs)   bands (ev):

     3.6747   4.6789  16.9503  18.7142  20.5040  22.7224

     occupation numbers 
     1.0000   1.0000   0.0000   0.0000   0.0000   0.0000

          k = 0.5485-0.2858-0.0500 (   542 PWs)   bands (ev):

     3.8928   4.3279  17.9003  18.2204  21.5323  21.6705

     occupation numbers 
     1.0000   1.0000   0.0000   0.0000   0.0000   0.0000

          k = 0.5196-0.2449 0.0000 (   536 PWs)   bands (ev):

     3.0861   4.9499  18.7203  19.7708  21.1780  21.3843

     occupation numbers 
     1.0000   1.0000   0.0000   0.0000   0.0000   0.0000

          k = 0.5774-0.2041-0.1000 (   542 PWs)   bands (ev):

     3.8928   4.3279  17.9003  18.2204  21.5323  21.6704

     occupation numbers 
     1.0000   1.0000   0.0000   0.0000   0.0000   0.0000

          k = 0.5485-0.2245-0.0500 (   537 PWs)   bands (ev):

     3.4953   4.4996  19.1011  19.3512  20.7520  21.7630

     occupation numbers 
     1.0000   1.0000   0.0000   0.0000   0.0000   0.0000

          k =-0.5774 0.2041 0.0000 (   544 PWs)   bands (ev):

     3.7158   4.1455  20.3885  20.3885  20.6065  20.6065

     occupation numbers 
     1.0000   1.0000   0.0000   0.0000   0.0000   0.0000

          k =-0.5774 0.2654 0.0000 (   537 PWs)   bands (ev):

     3.4953   4.4996  19.1011  19.3512  20.7520  21.7629

     occupation numbers 
     1.0000   1.0000   0.0000   0.0000   0.0000   0.0000

          k =-0.5774 0.3266 0.0000 (   537 PWs)   bands (ev):

     3.2663   5.1288  17.3793  18.3322  20.0980  23.1386

     occupation numbers 
     1.0000   1.0000   0.0000   0.0000   0.0000   0.0000

          k =-0.5774 0.3878 0.0000 (   536 PWs)   bands (ev):

     3.1576   5.9017  15.6481  17.4319  19.2563  24.6307

     occupation numbers 
     1.0000   1.0000   0.0000   0.0000   0.0000   0.0000

          k =-0.5774 0.4491 0.0000 (   532 PWs)   bands (ev):

     3.1803   6.8031  13.9909  16.6516  18.4367  26.2328

     occupation numbers 
     1.0000   1.0000   0.0000   0.0000   0.0000   0.0000

          k =-0.5774 0.5103 0.0000 (   529 PWs)   bands (ev):

     3.3356   7.8234  12.4382  15.9915  17.6955  25.2985

     occupation numbers 
     1.0000   1.0000   0.0000   0.0000   0.0000   0.0000

          k =-0.5774 0.5715 0.0000 (   526 PWs)   bands (ev):

     3.6219   8.9406  11.0172  15.4516  17.0469  23.3327

     occupation numbers 
     1.0000   0.0005   0.0000   0.0000   0.0000   0.0000

          k =-0.5774 0.6328 0.0000 (   526 PWs)   bands (ev):

     4.0342   9.5324  10.3492  15.0318  16.4788  21.4678

     occupation numbers 
     1.0000   0.0000   0.0000   0.0000   0.0000   0.0000

          k =-0.5774 0.6940 0.0000 (   523 PWs)   bands (ev):

     4.5582   8.4553  11.5716  14.7320  15.9339  19.8279

     occupation numbers 
     1.0000   1.0738   0.0000   0.0000   0.0000   0.0000

          k =-0.5774 0.7553 0.0000 (   524 PWs)   bands (ev):

     5.1410   7.4931  12.9011  14.5522  15.2621  18.6347

     occupation numbers 
     1.0000   1.0000   0.0000   0.0000   0.0000   0.0000

          k =-0.5774-0.4082 0.0000 (   524 PWs)   bands (ev):

     5.4969   7.0092  13.9333  14.4922  14.4922  18.1944

     occupation numbers 
     1.0000   1.0000   0.0000   0.0000   0.0000   0.0000

     the Fermi energy is     8.6780 ev

!    total energy              =      -6.70631746 Ry
     Harris-Foulkes estimate   =      -6.70631746 Ry
     estimated scf accuracy    <          6.4E-09 Ry

     The total energy is the sum of the following terms:

     one-electron contribution =       3.13983703 Ry
     hartree contribution      =       0.00896798 Ry
     xc contribution           =      -4.33033932 Ry
     ewald contribution        =      -5.52473069 Ry
     smearing contrib. (-TS)   =      -0.00005245 Ry

     convergence has been achieved in   4 iterations

     Forces acting on atoms (cartesian axes, Ry/au):

     atom    1 type  1   force =     0.00000000    0.00000000    0.00000000
     The non-local contrib.  to forces
     atom    1 type  1   force =     0.00000000    0.00000000    0.00000000
     The ionic contribution  to forces
     atom    1 type  1   force =     0.00000000    0.00000000    0.00000000
     The local contribution  to forces
     atom    1 type  1   force =     0.00000000    0.00000000    0.00000000
     The core correction contribution to forces
     atom    1 type  1   force =    -0.00000000   -0.00000000   -0.00000000
     The Hubbard contrib.    to forces
     atom    1 type  1   force =     0.00000000    0.00000000    0.00000000
     The SCF correction term to forces
     atom    1 type  1   force =     0.00000000   -0.00000000    0.00000000

     Total force =     0.000000     Total SCF correction =     0.000000

     BFGS Geometry Optimization

     bfgs converged in   1 scf cycles and   0 bfgs steps
     (criteria: energy <  1.0E-04 Ry, force <  1.0E-03 Ry/Bohr)

     End of BFGS Geometry Optimization

     Final energy   =      -6.7063174551 Ry
Begin final coordinates

ATOMIC_POSITIONS (crystal)
Al       0.000000000   0.000000000   0.000000000
End final coordinates


 
     init_run     :    241.09s CPU     54.33s WALL (       1 calls)
     electrons    :   2530.19s CPU    795.39s WALL (       1 calls)
     forces       :     56.25s CPU     18.13s WALL (       1 calls)

     Called by init_run:
     wfcinit      :    240.65s CPU     53.87s WALL (       1 calls)
     wfcinit:atom :      1.01s CPU      0.18s WALL (    2112 calls)
     wfcinit:wfcr :    236.97s CPU     53.22s WALL (    2112 calls)
     potinit      :      0.05s CPU      0.03s WALL (       1 calls)

     Called by electrons:
     c_bands      :   2301.19s CPU    705.72s WALL (       5 calls)
     sum_band     :    227.60s CPU     89.26s WALL (       5 calls)
     v_of_rho     :      0.39s CPU      0.15s WALL (       5 calls)
     v_h          :      0.00s CPU      0.00s WALL (       5 calls)
     v_xc         :      0.49s CPU      0.17s WALL (       6 calls)
     newd         :      0.61s CPU      0.14s WALL (       5 calls)
     mix_rho      :      0.06s CPU      0.02s WALL (       5 calls)

     Called by c_bands:
     init_us_2    :     12.87s CPU      3.45s WALL (   25344 calls)
     cegterg      :   2284.69s CPU    701.51s WALL (   10560 calls)

     Called by sum_band:
     sum_band:bec :      0.36s CPU      0.16s WALL (   10560 calls)
     addusdens    :      0.27s CPU      0.11s WALL (       5 calls)

     Called by *egterg:
     h_psi        :   2002.91s CPU    604.45s WALL (   35516 calls)
     s_psi        :     94.80s CPU     27.69s WALL (   35516 calls)
     g_psi        :      2.08s CPU      0.51s WALL (   22844 calls)
     cdiaghg      :     29.33s CPU      7.81s WALL (   31292 calls)
     cegterg:over :    138.20s CPU     41.09s WALL (   22844 calls)
     cegterg:upda :    101.68s CPU     30.13s WALL (   22844 calls)
     cegterg:last :     84.65s CPU     25.36s WALL (   11768 calls)

     Called by h_psi:
     h_psi:pot    :   1999.89s CPU    603.71s WALL (   35516 calls)
     h_psi:calbec :    211.49s CPU     63.55s WALL (   35516 calls)
     vloc_psi     :   1654.27s CPU    500.86s WALL (   35516 calls)
     add_vuspsi   :    131.48s CPU     38.75s WALL (   35516 calls)

     General routines
     calbec       :    443.15s CPU    154.45s WALL (   54524 calls)
     fft          :      0.50s CPU      0.18s WALL (      78 calls)
     fftw         :   1657.39s CPU    504.55s WALL (  411198 calls)
 
     Parallel routines
 
     PWSCF        : 47m 7.74s CPU    14m27.97s WALL

 
   This run was terminated on:   3: 8: 3  29Jan2019            

=------------------------------------------------------------------------------=
   JOB DONE.
=------------------------------------------------------------------------------=
