
     Program PWSCF v.6.2 (svn rev. 14038) starts on 24Jan2019 at 18: 1:46 

     This program is part of the open-source Quantum ESPRESSO suite
     for quantum simulation of materials; please cite
         "P. Giannozzi et al., J. Phys.:Condens. Matter 21 395502 (2009);
         "P. Giannozzi et al., J. Phys.:Condens. Matter 29 465901 (2017);
          URL http://www.quantum-espresso.org", 
     in publications or presentations arising from this work. More details at
     http://www.quantum-espresso.org/quote

     Parallel version (MPI), running on     1 processors

     MPI processes distributed on     1 nodes
     Reading input from ./AlfccSEPNEG0DOT12332346055303264.in
Warning: card &IONS ignored
Warning: card / ignored
Warning: card &CELL ignored
Warning: card / ignored

     Current dimensions of program PWSCF are:
     Max number of different atomic species (ntypx) = 10
     Max number of k-points (npk) =  40000
     Max angular momentum in pseudopotentials (lmaxx) =  3
     Message from routine iosys:
     minimal I/O required, wf_collect reset to FALSE

     Subspace diagonalization in iterative solution of the eigenvalue problem:
     a serial algorithm will be used

     Found symmetry operation: I + ( -0.5000 -0.5000  0.0000)
     This is a supercell, fractional translations are disabled
 
     G-vector sticks info
     --------------------
     sticks:   dense  smooth     PW     G-vecs:    dense   smooth      PW
     Sum         465     465    145                 6565     6565    1237
 


     bravais-lattice index     =            0
     lattice parameter (alat)  =       7.6325  a.u.
     unit-cell volume          =     389.7938 (a.u.)^3
     number of atoms/cell      =            4
     number of atomic types    =            1
     number of electrons       =        12.00
     number of Kohn-Sham states=           10
     kinetic-energy cutoff     =      25.0000  Ry
     charge density cutoff     =     100.0000  Ry
     convergence threshold     =      1.0E-07
     mixing beta               =       0.7000
     number of iterations used =            8  plain     mixing
     Exchange-correlation      = SLA  PW   PBE  PBE ( 1  4  3  4 0 0)

     celldm(1)=   7.632472  celldm(2)=   0.000000  celldm(3)=   0.000000
     celldm(4)=   0.000000  celldm(5)=   0.000000  celldm(6)=   0.000000

     crystal axes: (cart. coord. in units of alat)
               a(1) = (   1.000000   0.000000   0.000000 )  
               a(2) = (   0.000000   1.000000   0.000000 )  
               a(3) = (   0.000000   0.000000   0.876676 )  

     reciprocal axes: (cart. coord. in units 2 pi/alat)
               b(1) = (  1.000000  0.000000  0.000000 )  
               b(2) = (  0.000000  1.000000  0.000000 )  
               b(3) = (  0.000000  0.000000  1.140672 )  


     PseudoPot. # 1 for Al read from file:
     ./al_pbe_v1.uspp.F.UPF
     MD5 check sum: 0a6289f5291fc8f409219462bc851e1f
     Pseudo is Ultrasoft + core correction, Zval =  3.0
     Generated by new atomic code, or converted to UPF format
     Using radial grid of  893 points,  3 beta functions with: 
                l(1) =   0
                l(2) =   1
                l(3) =   2
     Q(r) pseudized with  8 coefficients,  rinner =    0.900   0.900   0.900
                                                       0.900   0.900

     atomic species   valence    mass     pseudopotential
        Al             3.00    26.98150     Al( 1.00)

     16 Sym. Ops., with inversion, found


                                    s                        frac. trans.

      isym =  1     identity                                     

 cryst.   s( 1) = (     1          0          0      )
                  (     0          1          0      )
                  (     0          0          1      )

 cart.    s( 1) = (  1.0000000  0.0000000  0.0000000 )
                  (  0.0000000  1.0000000  0.0000000 )
                  (  0.0000000  0.0000000  1.0000000 )


      isym =  2     180 deg rotation - cart. axis [0,0,1]        

 cryst.   s( 2) = (    -1          0          0      )
                  (     0         -1          0      )
                  (     0          0          1      )

 cart.    s( 2) = ( -1.0000000  0.0000000  0.0000000 )
                  (  0.0000000 -1.0000000  0.0000000 )
                  (  0.0000000  0.0000000  1.0000000 )


      isym =  3     180 deg rotation - cart. axis [0,1,0]        

 cryst.   s( 3) = (    -1          0          0      )
                  (     0          1          0      )
                  (     0          0         -1      )

 cart.    s( 3) = ( -1.0000000  0.0000000  0.0000000 )
                  (  0.0000000  1.0000000  0.0000000 )
                  (  0.0000000  0.0000000 -1.0000000 )


      isym =  4     180 deg rotation - cart. axis [1,0,0]        

 cryst.   s( 4) = (     1          0          0      )
                  (     0         -1          0      )
                  (     0          0         -1      )

 cart.    s( 4) = (  1.0000000  0.0000000  0.0000000 )
                  (  0.0000000 -1.0000000  0.0000000 )
                  (  0.0000000  0.0000000 -1.0000000 )


      isym =  5     180 deg rotation - cart. axis [1,1,0]        

 cryst.   s( 5) = (     0          1          0      )
                  (     1          0          0      )
                  (     0          0         -1      )

 cart.    s( 5) = (  0.0000000  1.0000000  0.0000000 )
                  (  1.0000000  0.0000000  0.0000000 )
                  (  0.0000000  0.0000000 -1.0000000 )


      isym =  6     180 deg rotation - cart. axis [1,-1,0]       

 cryst.   s( 6) = (     0         -1          0      )
                  (    -1          0          0      )
                  (     0          0         -1      )

 cart.    s( 6) = (  0.0000000 -1.0000000  0.0000000 )
                  ( -1.0000000  0.0000000  0.0000000 )
                  (  0.0000000  0.0000000 -1.0000000 )


      isym =  7      90 deg rotation - cart. axis [0,0,-1]       

 cryst.   s( 7) = (     0         -1          0      )
                  (     1          0          0      )
                  (     0          0          1      )

 cart.    s( 7) = (  0.0000000  1.0000000  0.0000000 )
                  ( -1.0000000  0.0000000  0.0000000 )
                  (  0.0000000  0.0000000  1.0000000 )


      isym =  8      90 deg rotation - cart. axis [0,0,1]        

 cryst.   s( 8) = (     0          1          0      )
                  (    -1          0          0      )
                  (     0          0          1      )

 cart.    s( 8) = (  0.0000000 -1.0000000  0.0000000 )
                  (  1.0000000  0.0000000  0.0000000 )
                  (  0.0000000  0.0000000  1.0000000 )


      isym =  9     inversion                                    

 cryst.   s( 9) = (    -1          0          0      )
                  (     0         -1          0      )
                  (     0          0         -1      )

 cart.    s( 9) = ( -1.0000000  0.0000000  0.0000000 )
                  (  0.0000000 -1.0000000  0.0000000 )
                  (  0.0000000  0.0000000 -1.0000000 )


      isym = 10     inv. 180 deg rotation - cart. axis [0,0,1]   

 cryst.   s(10) = (     1          0          0      )
                  (     0          1          0      )
                  (     0          0         -1      )

 cart.    s(10) = (  1.0000000  0.0000000  0.0000000 )
                  (  0.0000000  1.0000000  0.0000000 )
                  (  0.0000000  0.0000000 -1.0000000 )


      isym = 11     inv. 180 deg rotation - cart. axis [0,1,0]   

 cryst.   s(11) = (     1          0          0      )
                  (     0         -1          0      )
                  (     0          0          1      )

 cart.    s(11) = (  1.0000000  0.0000000  0.0000000 )
                  (  0.0000000 -1.0000000  0.0000000 )
                  (  0.0000000  0.0000000  1.0000000 )


      isym = 12     inv. 180 deg rotation - cart. axis [1,0,0]   

 cryst.   s(12) = (    -1          0          0      )
                  (     0          1          0      )
                  (     0          0          1      )

 cart.    s(12) = ( -1.0000000  0.0000000  0.0000000 )
                  (  0.0000000  1.0000000  0.0000000 )
                  (  0.0000000  0.0000000  1.0000000 )


      isym = 13     inv. 180 deg rotation - cart. axis [1,1,0]   

 cryst.   s(13) = (     0         -1          0      )
                  (    -1          0          0      )
                  (     0          0          1      )

 cart.    s(13) = (  0.0000000 -1.0000000  0.0000000 )
                  ( -1.0000000  0.0000000  0.0000000 )
                  (  0.0000000  0.0000000  1.0000000 )


      isym = 14     inv. 180 deg rotation - cart. axis [1,-1,0]  

 cryst.   s(14) = (     0          1          0      )
                  (     1          0          0      )
                  (     0          0          1      )

 cart.    s(14) = (  0.0000000  1.0000000  0.0000000 )
                  (  1.0000000  0.0000000  0.0000000 )
                  (  0.0000000  0.0000000  1.0000000 )


      isym = 15     inv.  90 deg rotation - cart. axis [0,0,-1]  

 cryst.   s(15) = (     0          1          0      )
                  (    -1          0          0      )
                  (     0          0         -1      )

 cart.    s(15) = (  0.0000000 -1.0000000  0.0000000 )
                  (  1.0000000  0.0000000  0.0000000 )
                  (  0.0000000  0.0000000 -1.0000000 )


      isym = 16     inv.  90 deg rotation - cart. axis [0,0,1]   

 cryst.   s(16) = (     0         -1          0      )
                  (     1          0          0      )
                  (     0          0         -1      )

 cart.    s(16) = (  0.0000000  1.0000000  0.0000000 )
                  ( -1.0000000  0.0000000  0.0000000 )
                  (  0.0000000  0.0000000 -1.0000000 )


   Cartesian axes

     site n.     atom                  positions (alat units)
         1           Al  tau(   1) = (   0.0000000   0.0000000   0.0000000  )
         2           Al  tau(   2) = (   0.5000000   0.5000000   0.0000000  )
         3           Al  tau(   3) = (   0.5000000   0.0000000   0.4383382  )
         4           Al  tau(   4) = (   0.0000000   0.5000000   0.4383382  )

   Crystallographic axes

     site n.     atom                  positions (cryst. coord.)
         1           Al  tau(   1) = (  0.0000000  0.0000000  0.0000000  )
         2           Al  tau(   2) = (  0.5000000  0.5000000  0.0000000  )
         3           Al  tau(   3) = (  0.5000000  0.0000000  0.5000000  )
         4           Al  tau(   4) = (  0.0000000  0.5000000  0.5000000  )

     number of k points=   605  Marzari-Vanderbilt smearing, width (Ry)=  0.0100
                       cart. coord. in units 2pi/alat
        k(    1) = (   0.0000000   0.0000000   0.0000000), wk =   0.0003086
        k(    2) = (   0.0000000   0.0000000   0.0570336), wk =   0.0006173
        k(    3) = (   0.0000000   0.0000000   0.1140672), wk =   0.0006173
        k(    4) = (   0.0000000   0.0000000   0.1711007), wk =   0.0006173
        k(    5) = (   0.0000000   0.0000000   0.2281343), wk =   0.0006173
        k(    6) = (   0.0000000   0.0000000   0.2851679), wk =   0.0006173
        k(    7) = (   0.0000000   0.0000000   0.3422015), wk =   0.0006173
        k(    8) = (   0.0000000   0.0000000   0.3992351), wk =   0.0006173
        k(    9) = (   0.0000000   0.0000000   0.4562686), wk =   0.0006173
        k(   10) = (   0.0000000   0.0000000   0.5133022), wk =   0.0006173
        k(   11) = (   0.0000000   0.0000000  -0.5703358), wk =   0.0003086
        k(   12) = (   0.0000000   0.0555556   0.0000000), wk =   0.0012346
        k(   13) = (   0.0000000   0.0555556   0.0570336), wk =   0.0024691
        k(   14) = (   0.0000000   0.0555556   0.1140672), wk =   0.0024691
        k(   15) = (   0.0000000   0.0555556   0.1711007), wk =   0.0024691
        k(   16) = (   0.0000000   0.0555556   0.2281343), wk =   0.0024691
        k(   17) = (   0.0000000   0.0555556   0.2851679), wk =   0.0024691
        k(   18) = (   0.0000000   0.0555556   0.3422015), wk =   0.0024691
        k(   19) = (   0.0000000   0.0555556   0.3992351), wk =   0.0024691
        k(   20) = (   0.0000000   0.0555556   0.4562686), wk =   0.0024691
        k(   21) = (   0.0000000   0.0555556   0.5133022), wk =   0.0024691
        k(   22) = (   0.0000000   0.0555556  -0.5703358), wk =   0.0012346
        k(   23) = (   0.0000000   0.1111111   0.0000000), wk =   0.0012346
        k(   24) = (   0.0000000   0.1111111   0.0570336), wk =   0.0024691
        k(   25) = (   0.0000000   0.1111111   0.1140672), wk =   0.0024691
        k(   26) = (   0.0000000   0.1111111   0.1711007), wk =   0.0024691
        k(   27) = (   0.0000000   0.1111111   0.2281343), wk =   0.0024691
        k(   28) = (   0.0000000   0.1111111   0.2851679), wk =   0.0024691
        k(   29) = (   0.0000000   0.1111111   0.3422015), wk =   0.0024691
        k(   30) = (   0.0000000   0.1111111   0.3992351), wk =   0.0024691
        k(   31) = (   0.0000000   0.1111111   0.4562686), wk =   0.0024691
        k(   32) = (   0.0000000   0.1111111   0.5133022), wk =   0.0024691
        k(   33) = (   0.0000000   0.1111111  -0.5703358), wk =   0.0012346
        k(   34) = (   0.0000000   0.1666667   0.0000000), wk =   0.0012346
        k(   35) = (   0.0000000   0.1666667   0.0570336), wk =   0.0024691
        k(   36) = (   0.0000000   0.1666667   0.1140672), wk =   0.0024691
        k(   37) = (   0.0000000   0.1666667   0.1711007), wk =   0.0024691
        k(   38) = (   0.0000000   0.1666667   0.2281343), wk =   0.0024691
        k(   39) = (   0.0000000   0.1666667   0.2851679), wk =   0.0024691
        k(   40) = (   0.0000000   0.1666667   0.3422015), wk =   0.0024691
        k(   41) = (   0.0000000   0.1666667   0.3992351), wk =   0.0024691
        k(   42) = (   0.0000000   0.1666667   0.4562686), wk =   0.0024691
        k(   43) = (   0.0000000   0.1666667   0.5133022), wk =   0.0024691
        k(   44) = (   0.0000000   0.1666667  -0.5703358), wk =   0.0012346
        k(   45) = (   0.0000000   0.2222222   0.0000000), wk =   0.0012346
        k(   46) = (   0.0000000   0.2222222   0.0570336), wk =   0.0024691
        k(   47) = (   0.0000000   0.2222222   0.1140672), wk =   0.0024691
        k(   48) = (   0.0000000   0.2222222   0.1711007), wk =   0.0024691
        k(   49) = (   0.0000000   0.2222222   0.2281343), wk =   0.0024691
        k(   50) = (   0.0000000   0.2222222   0.2851679), wk =   0.0024691
        k(   51) = (   0.0000000   0.2222222   0.3422015), wk =   0.0024691
        k(   52) = (   0.0000000   0.2222222   0.3992351), wk =   0.0024691
        k(   53) = (   0.0000000   0.2222222   0.4562686), wk =   0.0024691
        k(   54) = (   0.0000000   0.2222222   0.5133022), wk =   0.0024691
        k(   55) = (   0.0000000   0.2222222  -0.5703358), wk =   0.0012346
        k(   56) = (   0.0000000   0.2777778   0.0000000), wk =   0.0012346
        k(   57) = (   0.0000000   0.2777778   0.0570336), wk =   0.0024691
        k(   58) = (   0.0000000   0.2777778   0.1140672), wk =   0.0024691
        k(   59) = (   0.0000000   0.2777778   0.1711007), wk =   0.0024691
        k(   60) = (   0.0000000   0.2777778   0.2281343), wk =   0.0024691
        k(   61) = (   0.0000000   0.2777778   0.2851679), wk =   0.0024691
        k(   62) = (   0.0000000   0.2777778   0.3422015), wk =   0.0024691
        k(   63) = (   0.0000000   0.2777778   0.3992351), wk =   0.0024691
        k(   64) = (   0.0000000   0.2777778   0.4562686), wk =   0.0024691
        k(   65) = (   0.0000000   0.2777778   0.5133022), wk =   0.0024691
        k(   66) = (   0.0000000   0.2777778  -0.5703358), wk =   0.0012346
        k(   67) = (   0.0000000   0.3333333   0.0000000), wk =   0.0012346
        k(   68) = (   0.0000000   0.3333333   0.0570336), wk =   0.0024691
        k(   69) = (   0.0000000   0.3333333   0.1140672), wk =   0.0024691
        k(   70) = (   0.0000000   0.3333333   0.1711007), wk =   0.0024691
        k(   71) = (   0.0000000   0.3333333   0.2281343), wk =   0.0024691
        k(   72) = (   0.0000000   0.3333333   0.2851679), wk =   0.0024691
        k(   73) = (   0.0000000   0.3333333   0.3422015), wk =   0.0024691
        k(   74) = (   0.0000000   0.3333333   0.3992351), wk =   0.0024691
        k(   75) = (   0.0000000   0.3333333   0.4562686), wk =   0.0024691
        k(   76) = (   0.0000000   0.3333333   0.5133022), wk =   0.0024691
        k(   77) = (   0.0000000   0.3333333  -0.5703358), wk =   0.0012346
        k(   78) = (   0.0000000   0.3888889   0.0000000), wk =   0.0012346
        k(   79) = (   0.0000000   0.3888889   0.0570336), wk =   0.0024691
        k(   80) = (   0.0000000   0.3888889   0.1140672), wk =   0.0024691
        k(   81) = (   0.0000000   0.3888889   0.1711007), wk =   0.0024691
        k(   82) = (   0.0000000   0.3888889   0.2281343), wk =   0.0024691
        k(   83) = (   0.0000000   0.3888889   0.2851679), wk =   0.0024691
        k(   84) = (   0.0000000   0.3888889   0.3422015), wk =   0.0024691
        k(   85) = (   0.0000000   0.3888889   0.3992351), wk =   0.0024691
        k(   86) = (   0.0000000   0.3888889   0.4562686), wk =   0.0024691
        k(   87) = (   0.0000000   0.3888889   0.5133022), wk =   0.0024691
        k(   88) = (   0.0000000   0.3888889  -0.5703358), wk =   0.0012346
        k(   89) = (   0.0000000   0.4444444   0.0000000), wk =   0.0012346
        k(   90) = (   0.0000000   0.4444444   0.0570336), wk =   0.0024691
        k(   91) = (   0.0000000   0.4444444   0.1140672), wk =   0.0024691
        k(   92) = (   0.0000000   0.4444444   0.1711007), wk =   0.0024691
        k(   93) = (   0.0000000   0.4444444   0.2281343), wk =   0.0024691
        k(   94) = (   0.0000000   0.4444444   0.2851679), wk =   0.0024691
        k(   95) = (   0.0000000   0.4444444   0.3422015), wk =   0.0024691
        k(   96) = (   0.0000000   0.4444444   0.3992351), wk =   0.0024691
        k(   97) = (   0.0000000   0.4444444   0.4562686), wk =   0.0024691
        k(   98) = (   0.0000000   0.4444444   0.5133022), wk =   0.0024691
        k(   99) = (   0.0000000   0.4444444  -0.5703358), wk =   0.0012346
        k(  100) = (   0.0000000  -0.5000000   0.0000000), wk =   0.0006173
        k(  101) = (   0.0000000  -0.5000000   0.0570336), wk =   0.0012346
        k(  102) = (   0.0000000  -0.5000000   0.1140672), wk =   0.0012346
        k(  103) = (   0.0000000  -0.5000000   0.1711007), wk =   0.0012346
        k(  104) = (   0.0000000  -0.5000000   0.2281343), wk =   0.0012346
        k(  105) = (   0.0000000  -0.5000000   0.2851679), wk =   0.0012346
        k(  106) = (   0.0000000  -0.5000000   0.3422015), wk =   0.0012346
        k(  107) = (   0.0000000  -0.5000000   0.3992351), wk =   0.0012346
        k(  108) = (   0.0000000  -0.5000000   0.4562686), wk =   0.0012346
        k(  109) = (   0.0000000  -0.5000000   0.5133022), wk =   0.0012346
        k(  110) = (   0.0000000  -0.5000000  -0.5703358), wk =   0.0006173
        k(  111) = (   0.0555556   0.0555556   0.0000000), wk =   0.0012346
        k(  112) = (   0.0555556   0.0555556   0.0570336), wk =   0.0024691
        k(  113) = (   0.0555556   0.0555556   0.1140672), wk =   0.0024691
        k(  114) = (   0.0555556   0.0555556   0.1711007), wk =   0.0024691
        k(  115) = (   0.0555556   0.0555556   0.2281343), wk =   0.0024691
        k(  116) = (   0.0555556   0.0555556   0.2851679), wk =   0.0024691
        k(  117) = (   0.0555556   0.0555556   0.3422015), wk =   0.0024691
        k(  118) = (   0.0555556   0.0555556   0.3992351), wk =   0.0024691
        k(  119) = (   0.0555556   0.0555556   0.4562686), wk =   0.0024691
        k(  120) = (   0.0555556   0.0555556   0.5133022), wk =   0.0024691
        k(  121) = (   0.0555556   0.0555556  -0.5703358), wk =   0.0012346
        k(  122) = (   0.0555556   0.1111111   0.0000000), wk =   0.0024691
        k(  123) = (   0.0555556   0.1111111   0.0570336), wk =   0.0049383
        k(  124) = (   0.0555556   0.1111111   0.1140672), wk =   0.0049383
        k(  125) = (   0.0555556   0.1111111   0.1711007), wk =   0.0049383
        k(  126) = (   0.0555556   0.1111111   0.2281343), wk =   0.0049383
        k(  127) = (   0.0555556   0.1111111   0.2851679), wk =   0.0049383
        k(  128) = (   0.0555556   0.1111111   0.3422015), wk =   0.0049383
        k(  129) = (   0.0555556   0.1111111   0.3992351), wk =   0.0049383
        k(  130) = (   0.0555556   0.1111111   0.4562686), wk =   0.0049383
        k(  131) = (   0.0555556   0.1111111   0.5133022), wk =   0.0049383
        k(  132) = (   0.0555556   0.1111111  -0.5703358), wk =   0.0024691
        k(  133) = (   0.0555556   0.1666667   0.0000000), wk =   0.0024691
        k(  134) = (   0.0555556   0.1666667   0.0570336), wk =   0.0049383
        k(  135) = (   0.0555556   0.1666667   0.1140672), wk =   0.0049383
        k(  136) = (   0.0555556   0.1666667   0.1711007), wk =   0.0049383
        k(  137) = (   0.0555556   0.1666667   0.2281343), wk =   0.0049383
        k(  138) = (   0.0555556   0.1666667   0.2851679), wk =   0.0049383
        k(  139) = (   0.0555556   0.1666667   0.3422015), wk =   0.0049383
        k(  140) = (   0.0555556   0.1666667   0.3992351), wk =   0.0049383
        k(  141) = (   0.0555556   0.1666667   0.4562686), wk =   0.0049383
        k(  142) = (   0.0555556   0.1666667   0.5133022), wk =   0.0049383
        k(  143) = (   0.0555556   0.1666667  -0.5703358), wk =   0.0024691
        k(  144) = (   0.0555556   0.2222222   0.0000000), wk =   0.0024691
        k(  145) = (   0.0555556   0.2222222   0.0570336), wk =   0.0049383
        k(  146) = (   0.0555556   0.2222222   0.1140672), wk =   0.0049383
        k(  147) = (   0.0555556   0.2222222   0.1711007), wk =   0.0049383
        k(  148) = (   0.0555556   0.2222222   0.2281343), wk =   0.0049383
        k(  149) = (   0.0555556   0.2222222   0.2851679), wk =   0.0049383
        k(  150) = (   0.0555556   0.2222222   0.3422015), wk =   0.0049383
        k(  151) = (   0.0555556   0.2222222   0.3992351), wk =   0.0049383
        k(  152) = (   0.0555556   0.2222222   0.4562686), wk =   0.0049383
        k(  153) = (   0.0555556   0.2222222   0.5133022), wk =   0.0049383
        k(  154) = (   0.0555556   0.2222222  -0.5703358), wk =   0.0024691
        k(  155) = (   0.0555556   0.2777778   0.0000000), wk =   0.0024691
        k(  156) = (   0.0555556   0.2777778   0.0570336), wk =   0.0049383
        k(  157) = (   0.0555556   0.2777778   0.1140672), wk =   0.0049383
        k(  158) = (   0.0555556   0.2777778   0.1711007), wk =   0.0049383
        k(  159) = (   0.0555556   0.2777778   0.2281343), wk =   0.0049383
        k(  160) = (   0.0555556   0.2777778   0.2851679), wk =   0.0049383
        k(  161) = (   0.0555556   0.2777778   0.3422015), wk =   0.0049383
        k(  162) = (   0.0555556   0.2777778   0.3992351), wk =   0.0049383
        k(  163) = (   0.0555556   0.2777778   0.4562686), wk =   0.0049383
        k(  164) = (   0.0555556   0.2777778   0.5133022), wk =   0.0049383
        k(  165) = (   0.0555556   0.2777778  -0.5703358), wk =   0.0024691
        k(  166) = (   0.0555556   0.3333333   0.0000000), wk =   0.0024691
        k(  167) = (   0.0555556   0.3333333   0.0570336), wk =   0.0049383
        k(  168) = (   0.0555556   0.3333333   0.1140672), wk =   0.0049383
        k(  169) = (   0.0555556   0.3333333   0.1711007), wk =   0.0049383
        k(  170) = (   0.0555556   0.3333333   0.2281343), wk =   0.0049383
        k(  171) = (   0.0555556   0.3333333   0.2851679), wk =   0.0049383
        k(  172) = (   0.0555556   0.3333333   0.3422015), wk =   0.0049383
        k(  173) = (   0.0555556   0.3333333   0.3992351), wk =   0.0049383
        k(  174) = (   0.0555556   0.3333333   0.4562686), wk =   0.0049383
        k(  175) = (   0.0555556   0.3333333   0.5133022), wk =   0.0049383
        k(  176) = (   0.0555556   0.3333333  -0.5703358), wk =   0.0024691
        k(  177) = (   0.0555556   0.3888889   0.0000000), wk =   0.0024691
        k(  178) = (   0.0555556   0.3888889   0.0570336), wk =   0.0049383
        k(  179) = (   0.0555556   0.3888889   0.1140672), wk =   0.0049383
        k(  180) = (   0.0555556   0.3888889   0.1711007), wk =   0.0049383
        k(  181) = (   0.0555556   0.3888889   0.2281343), wk =   0.0049383
        k(  182) = (   0.0555556   0.3888889   0.2851679), wk =   0.0049383
        k(  183) = (   0.0555556   0.3888889   0.3422015), wk =   0.0049383
        k(  184) = (   0.0555556   0.3888889   0.3992351), wk =   0.0049383
        k(  185) = (   0.0555556   0.3888889   0.4562686), wk =   0.0049383
        k(  186) = (   0.0555556   0.3888889   0.5133022), wk =   0.0049383
        k(  187) = (   0.0555556   0.3888889  -0.5703358), wk =   0.0024691
        k(  188) = (   0.0555556   0.4444444   0.0000000), wk =   0.0024691
        k(  189) = (   0.0555556   0.4444444   0.0570336), wk =   0.0049383
        k(  190) = (   0.0555556   0.4444444   0.1140672), wk =   0.0049383
        k(  191) = (   0.0555556   0.4444444   0.1711007), wk =   0.0049383
        k(  192) = (   0.0555556   0.4444444   0.2281343), wk =   0.0049383
        k(  193) = (   0.0555556   0.4444444   0.2851679), wk =   0.0049383
        k(  194) = (   0.0555556   0.4444444   0.3422015), wk =   0.0049383
        k(  195) = (   0.0555556   0.4444444   0.3992351), wk =   0.0049383
        k(  196) = (   0.0555556   0.4444444   0.4562686), wk =   0.0049383
        k(  197) = (   0.0555556   0.4444444   0.5133022), wk =   0.0049383
        k(  198) = (   0.0555556   0.4444444  -0.5703358), wk =   0.0024691
        k(  199) = (   0.0555556  -0.5000000   0.0000000), wk =   0.0012346
        k(  200) = (   0.0555556  -0.5000000   0.0570336), wk =   0.0024691
        k(  201) = (   0.0555556  -0.5000000   0.1140672), wk =   0.0024691
        k(  202) = (   0.0555556  -0.5000000   0.1711007), wk =   0.0024691
        k(  203) = (   0.0555556  -0.5000000   0.2281343), wk =   0.0024691
        k(  204) = (   0.0555556  -0.5000000   0.2851679), wk =   0.0024691
        k(  205) = (   0.0555556  -0.5000000   0.3422015), wk =   0.0024691
        k(  206) = (   0.0555556  -0.5000000   0.3992351), wk =   0.0024691
        k(  207) = (   0.0555556  -0.5000000   0.4562686), wk =   0.0024691
        k(  208) = (   0.0555556  -0.5000000   0.5133022), wk =   0.0024691
        k(  209) = (   0.0555556  -0.5000000  -0.5703358), wk =   0.0012346
        k(  210) = (   0.1111111   0.1111111   0.0000000), wk =   0.0012346
        k(  211) = (   0.1111111   0.1111111   0.0570336), wk =   0.0024691
        k(  212) = (   0.1111111   0.1111111   0.1140672), wk =   0.0024691
        k(  213) = (   0.1111111   0.1111111   0.1711007), wk =   0.0024691
        k(  214) = (   0.1111111   0.1111111   0.2281343), wk =   0.0024691
        k(  215) = (   0.1111111   0.1111111   0.2851679), wk =   0.0024691
        k(  216) = (   0.1111111   0.1111111   0.3422015), wk =   0.0024691
        k(  217) = (   0.1111111   0.1111111   0.3992351), wk =   0.0024691
        k(  218) = (   0.1111111   0.1111111   0.4562686), wk =   0.0024691
        k(  219) = (   0.1111111   0.1111111   0.5133022), wk =   0.0024691
        k(  220) = (   0.1111111   0.1111111  -0.5703358), wk =   0.0012346
        k(  221) = (   0.1111111   0.1666667   0.0000000), wk =   0.0024691
        k(  222) = (   0.1111111   0.1666667   0.0570336), wk =   0.0049383
        k(  223) = (   0.1111111   0.1666667   0.1140672), wk =   0.0049383
        k(  224) = (   0.1111111   0.1666667   0.1711007), wk =   0.0049383
        k(  225) = (   0.1111111   0.1666667   0.2281343), wk =   0.0049383
        k(  226) = (   0.1111111   0.1666667   0.2851679), wk =   0.0049383
        k(  227) = (   0.1111111   0.1666667   0.3422015), wk =   0.0049383
        k(  228) = (   0.1111111   0.1666667   0.3992351), wk =   0.0049383
        k(  229) = (   0.1111111   0.1666667   0.4562686), wk =   0.0049383
        k(  230) = (   0.1111111   0.1666667   0.5133022), wk =   0.0049383
        k(  231) = (   0.1111111   0.1666667  -0.5703358), wk =   0.0024691
        k(  232) = (   0.1111111   0.2222222   0.0000000), wk =   0.0024691
        k(  233) = (   0.1111111   0.2222222   0.0570336), wk =   0.0049383
        k(  234) = (   0.1111111   0.2222222   0.1140672), wk =   0.0049383
        k(  235) = (   0.1111111   0.2222222   0.1711007), wk =   0.0049383
        k(  236) = (   0.1111111   0.2222222   0.2281343), wk =   0.0049383
        k(  237) = (   0.1111111   0.2222222   0.2851679), wk =   0.0049383
        k(  238) = (   0.1111111   0.2222222   0.3422015), wk =   0.0049383
        k(  239) = (   0.1111111   0.2222222   0.3992351), wk =   0.0049383
        k(  240) = (   0.1111111   0.2222222   0.4562686), wk =   0.0049383
        k(  241) = (   0.1111111   0.2222222   0.5133022), wk =   0.0049383
        k(  242) = (   0.1111111   0.2222222  -0.5703358), wk =   0.0024691
        k(  243) = (   0.1111111   0.2777778   0.0000000), wk =   0.0024691
        k(  244) = (   0.1111111   0.2777778   0.0570336), wk =   0.0049383
        k(  245) = (   0.1111111   0.2777778   0.1140672), wk =   0.0049383
        k(  246) = (   0.1111111   0.2777778   0.1711007), wk =   0.0049383
        k(  247) = (   0.1111111   0.2777778   0.2281343), wk =   0.0049383
        k(  248) = (   0.1111111   0.2777778   0.2851679), wk =   0.0049383
        k(  249) = (   0.1111111   0.2777778   0.3422015), wk =   0.0049383
        k(  250) = (   0.1111111   0.2777778   0.3992351), wk =   0.0049383
        k(  251) = (   0.1111111   0.2777778   0.4562686), wk =   0.0049383
        k(  252) = (   0.1111111   0.2777778   0.5133022), wk =   0.0049383
        k(  253) = (   0.1111111   0.2777778  -0.5703358), wk =   0.0024691
        k(  254) = (   0.1111111   0.3333333   0.0000000), wk =   0.0024691
        k(  255) = (   0.1111111   0.3333333   0.0570336), wk =   0.0049383
        k(  256) = (   0.1111111   0.3333333   0.1140672), wk =   0.0049383
        k(  257) = (   0.1111111   0.3333333   0.1711007), wk =   0.0049383
        k(  258) = (   0.1111111   0.3333333   0.2281343), wk =   0.0049383
        k(  259) = (   0.1111111   0.3333333   0.2851679), wk =   0.0049383
        k(  260) = (   0.1111111   0.3333333   0.3422015), wk =   0.0049383
        k(  261) = (   0.1111111   0.3333333   0.3992351), wk =   0.0049383
        k(  262) = (   0.1111111   0.3333333   0.4562686), wk =   0.0049383
        k(  263) = (   0.1111111   0.3333333   0.5133022), wk =   0.0049383
        k(  264) = (   0.1111111   0.3333333  -0.5703358), wk =   0.0024691
        k(  265) = (   0.1111111   0.3888889   0.0000000), wk =   0.0024691
        k(  266) = (   0.1111111   0.3888889   0.0570336), wk =   0.0049383
        k(  267) = (   0.1111111   0.3888889   0.1140672), wk =   0.0049383
        k(  268) = (   0.1111111   0.3888889   0.1711007), wk =   0.0049383
        k(  269) = (   0.1111111   0.3888889   0.2281343), wk =   0.0049383
        k(  270) = (   0.1111111   0.3888889   0.2851679), wk =   0.0049383
        k(  271) = (   0.1111111   0.3888889   0.3422015), wk =   0.0049383
        k(  272) = (   0.1111111   0.3888889   0.3992351), wk =   0.0049383
        k(  273) = (   0.1111111   0.3888889   0.4562686), wk =   0.0049383
        k(  274) = (   0.1111111   0.3888889   0.5133022), wk =   0.0049383
        k(  275) = (   0.1111111   0.3888889  -0.5703358), wk =   0.0024691
        k(  276) = (   0.1111111   0.4444444   0.0000000), wk =   0.0024691
        k(  277) = (   0.1111111   0.4444444   0.0570336), wk =   0.0049383
        k(  278) = (   0.1111111   0.4444444   0.1140672), wk =   0.0049383
        k(  279) = (   0.1111111   0.4444444   0.1711007), wk =   0.0049383
        k(  280) = (   0.1111111   0.4444444   0.2281343), wk =   0.0049383
        k(  281) = (   0.1111111   0.4444444   0.2851679), wk =   0.0049383
        k(  282) = (   0.1111111   0.4444444   0.3422015), wk =   0.0049383
        k(  283) = (   0.1111111   0.4444444   0.3992351), wk =   0.0049383
        k(  284) = (   0.1111111   0.4444444   0.4562686), wk =   0.0049383
        k(  285) = (   0.1111111   0.4444444   0.5133022), wk =   0.0049383
        k(  286) = (   0.1111111   0.4444444  -0.5703358), wk =   0.0024691
        k(  287) = (   0.1111111  -0.5000000   0.0000000), wk =   0.0012346
        k(  288) = (   0.1111111  -0.5000000   0.0570336), wk =   0.0024691
        k(  289) = (   0.1111111  -0.5000000   0.1140672), wk =   0.0024691
        k(  290) = (   0.1111111  -0.5000000   0.1711007), wk =   0.0024691
        k(  291) = (   0.1111111  -0.5000000   0.2281343), wk =   0.0024691
        k(  292) = (   0.1111111  -0.5000000   0.2851679), wk =   0.0024691
        k(  293) = (   0.1111111  -0.5000000   0.3422015), wk =   0.0024691
        k(  294) = (   0.1111111  -0.5000000   0.3992351), wk =   0.0024691
        k(  295) = (   0.1111111  -0.5000000   0.4562686), wk =   0.0024691
        k(  296) = (   0.1111111  -0.5000000   0.5133022), wk =   0.0024691
        k(  297) = (   0.1111111  -0.5000000  -0.5703358), wk =   0.0012346
        k(  298) = (   0.1666667   0.1666667   0.0000000), wk =   0.0012346
        k(  299) = (   0.1666667   0.1666667   0.0570336), wk =   0.0024691
        k(  300) = (   0.1666667   0.1666667   0.1140672), wk =   0.0024691
        k(  301) = (   0.1666667   0.1666667   0.1711007), wk =   0.0024691
        k(  302) = (   0.1666667   0.1666667   0.2281343), wk =   0.0024691
        k(  303) = (   0.1666667   0.1666667   0.2851679), wk =   0.0024691
        k(  304) = (   0.1666667   0.1666667   0.3422015), wk =   0.0024691
        k(  305) = (   0.1666667   0.1666667   0.3992351), wk =   0.0024691
        k(  306) = (   0.1666667   0.1666667   0.4562686), wk =   0.0024691
        k(  307) = (   0.1666667   0.1666667   0.5133022), wk =   0.0024691
        k(  308) = (   0.1666667   0.1666667  -0.5703358), wk =   0.0012346
        k(  309) = (   0.1666667   0.2222222   0.0000000), wk =   0.0024691
        k(  310) = (   0.1666667   0.2222222   0.0570336), wk =   0.0049383
        k(  311) = (   0.1666667   0.2222222   0.1140672), wk =   0.0049383
        k(  312) = (   0.1666667   0.2222222   0.1711007), wk =   0.0049383
        k(  313) = (   0.1666667   0.2222222   0.2281343), wk =   0.0049383
        k(  314) = (   0.1666667   0.2222222   0.2851679), wk =   0.0049383
        k(  315) = (   0.1666667   0.2222222   0.3422015), wk =   0.0049383
        k(  316) = (   0.1666667   0.2222222   0.3992351), wk =   0.0049383
        k(  317) = (   0.1666667   0.2222222   0.4562686), wk =   0.0049383
        k(  318) = (   0.1666667   0.2222222   0.5133022), wk =   0.0049383
        k(  319) = (   0.1666667   0.2222222  -0.5703358), wk =   0.0024691
        k(  320) = (   0.1666667   0.2777778   0.0000000), wk =   0.0024691
        k(  321) = (   0.1666667   0.2777778   0.0570336), wk =   0.0049383
        k(  322) = (   0.1666667   0.2777778   0.1140672), wk =   0.0049383
        k(  323) = (   0.1666667   0.2777778   0.1711007), wk =   0.0049383
        k(  324) = (   0.1666667   0.2777778   0.2281343), wk =   0.0049383
        k(  325) = (   0.1666667   0.2777778   0.2851679), wk =   0.0049383
        k(  326) = (   0.1666667   0.2777778   0.3422015), wk =   0.0049383
        k(  327) = (   0.1666667   0.2777778   0.3992351), wk =   0.0049383
        k(  328) = (   0.1666667   0.2777778   0.4562686), wk =   0.0049383
        k(  329) = (   0.1666667   0.2777778   0.5133022), wk =   0.0049383
        k(  330) = (   0.1666667   0.2777778  -0.5703358), wk =   0.0024691
        k(  331) = (   0.1666667   0.3333333   0.0000000), wk =   0.0024691
        k(  332) = (   0.1666667   0.3333333   0.0570336), wk =   0.0049383
        k(  333) = (   0.1666667   0.3333333   0.1140672), wk =   0.0049383
        k(  334) = (   0.1666667   0.3333333   0.1711007), wk =   0.0049383
        k(  335) = (   0.1666667   0.3333333   0.2281343), wk =   0.0049383
        k(  336) = (   0.1666667   0.3333333   0.2851679), wk =   0.0049383
        k(  337) = (   0.1666667   0.3333333   0.3422015), wk =   0.0049383
        k(  338) = (   0.1666667   0.3333333   0.3992351), wk =   0.0049383
        k(  339) = (   0.1666667   0.3333333   0.4562686), wk =   0.0049383
        k(  340) = (   0.1666667   0.3333333   0.5133022), wk =   0.0049383
        k(  341) = (   0.1666667   0.3333333  -0.5703358), wk =   0.0024691
        k(  342) = (   0.1666667   0.3888889   0.0000000), wk =   0.0024691
        k(  343) = (   0.1666667   0.3888889   0.0570336), wk =   0.0049383
        k(  344) = (   0.1666667   0.3888889   0.1140672), wk =   0.0049383
        k(  345) = (   0.1666667   0.3888889   0.1711007), wk =   0.0049383
        k(  346) = (   0.1666667   0.3888889   0.2281343), wk =   0.0049383
        k(  347) = (   0.1666667   0.3888889   0.2851679), wk =   0.0049383
        k(  348) = (   0.1666667   0.3888889   0.3422015), wk =   0.0049383
        k(  349) = (   0.1666667   0.3888889   0.3992351), wk =   0.0049383
        k(  350) = (   0.1666667   0.3888889   0.4562686), wk =   0.0049383
        k(  351) = (   0.1666667   0.3888889   0.5133022), wk =   0.0049383
        k(  352) = (   0.1666667   0.3888889  -0.5703358), wk =   0.0024691
        k(  353) = (   0.1666667   0.4444444   0.0000000), wk =   0.0024691
        k(  354) = (   0.1666667   0.4444444   0.0570336), wk =   0.0049383
        k(  355) = (   0.1666667   0.4444444   0.1140672), wk =   0.0049383
        k(  356) = (   0.1666667   0.4444444   0.1711007), wk =   0.0049383
        k(  357) = (   0.1666667   0.4444444   0.2281343), wk =   0.0049383
        k(  358) = (   0.1666667   0.4444444   0.2851679), wk =   0.0049383
        k(  359) = (   0.1666667   0.4444444   0.3422015), wk =   0.0049383
        k(  360) = (   0.1666667   0.4444444   0.3992351), wk =   0.0049383
        k(  361) = (   0.1666667   0.4444444   0.4562686), wk =   0.0049383
        k(  362) = (   0.1666667   0.4444444   0.5133022), wk =   0.0049383
        k(  363) = (   0.1666667   0.4444444  -0.5703358), wk =   0.0024691
        k(  364) = (   0.1666667  -0.5000000   0.0000000), wk =   0.0012346
        k(  365) = (   0.1666667  -0.5000000   0.0570336), wk =   0.0024691
        k(  366) = (   0.1666667  -0.5000000   0.1140672), wk =   0.0024691
        k(  367) = (   0.1666667  -0.5000000   0.1711007), wk =   0.0024691
        k(  368) = (   0.1666667  -0.5000000   0.2281343), wk =   0.0024691
        k(  369) = (   0.1666667  -0.5000000   0.2851679), wk =   0.0024691
        k(  370) = (   0.1666667  -0.5000000   0.3422015), wk =   0.0024691
        k(  371) = (   0.1666667  -0.5000000   0.3992351), wk =   0.0024691
        k(  372) = (   0.1666667  -0.5000000   0.4562686), wk =   0.0024691
        k(  373) = (   0.1666667  -0.5000000   0.5133022), wk =   0.0024691
        k(  374) = (   0.1666667  -0.5000000  -0.5703358), wk =   0.0012346
        k(  375) = (   0.2222222   0.2222222   0.0000000), wk =   0.0012346
        k(  376) = (   0.2222222   0.2222222   0.0570336), wk =   0.0024691
        k(  377) = (   0.2222222   0.2222222   0.1140672), wk =   0.0024691
        k(  378) = (   0.2222222   0.2222222   0.1711007), wk =   0.0024691
        k(  379) = (   0.2222222   0.2222222   0.2281343), wk =   0.0024691
        k(  380) = (   0.2222222   0.2222222   0.2851679), wk =   0.0024691
        k(  381) = (   0.2222222   0.2222222   0.3422015), wk =   0.0024691
        k(  382) = (   0.2222222   0.2222222   0.3992351), wk =   0.0024691
        k(  383) = (   0.2222222   0.2222222   0.4562686), wk =   0.0024691
        k(  384) = (   0.2222222   0.2222222   0.5133022), wk =   0.0024691
        k(  385) = (   0.2222222   0.2222222  -0.5703358), wk =   0.0012346
        k(  386) = (   0.2222222   0.2777778   0.0000000), wk =   0.0024691
        k(  387) = (   0.2222222   0.2777778   0.0570336), wk =   0.0049383
        k(  388) = (   0.2222222   0.2777778   0.1140672), wk =   0.0049383
        k(  389) = (   0.2222222   0.2777778   0.1711007), wk =   0.0049383
        k(  390) = (   0.2222222   0.2777778   0.2281343), wk =   0.0049383
        k(  391) = (   0.2222222   0.2777778   0.2851679), wk =   0.0049383
        k(  392) = (   0.2222222   0.2777778   0.3422015), wk =   0.0049383
        k(  393) = (   0.2222222   0.2777778   0.3992351), wk =   0.0049383
        k(  394) = (   0.2222222   0.2777778   0.4562686), wk =   0.0049383
        k(  395) = (   0.2222222   0.2777778   0.5133022), wk =   0.0049383
        k(  396) = (   0.2222222   0.2777778  -0.5703358), wk =   0.0024691
        k(  397) = (   0.2222222   0.3333333   0.0000000), wk =   0.0024691
        k(  398) = (   0.2222222   0.3333333   0.0570336), wk =   0.0049383
        k(  399) = (   0.2222222   0.3333333   0.1140672), wk =   0.0049383
        k(  400) = (   0.2222222   0.3333333   0.1711007), wk =   0.0049383
        k(  401) = (   0.2222222   0.3333333   0.2281343), wk =   0.0049383
        k(  402) = (   0.2222222   0.3333333   0.2851679), wk =   0.0049383
        k(  403) = (   0.2222222   0.3333333   0.3422015), wk =   0.0049383
        k(  404) = (   0.2222222   0.3333333   0.3992351), wk =   0.0049383
        k(  405) = (   0.2222222   0.3333333   0.4562686), wk =   0.0049383
        k(  406) = (   0.2222222   0.3333333   0.5133022), wk =   0.0049383
        k(  407) = (   0.2222222   0.3333333  -0.5703358), wk =   0.0024691
        k(  408) = (   0.2222222   0.3888889   0.0000000), wk =   0.0024691
        k(  409) = (   0.2222222   0.3888889   0.0570336), wk =   0.0049383
        k(  410) = (   0.2222222   0.3888889   0.1140672), wk =   0.0049383
        k(  411) = (   0.2222222   0.3888889   0.1711007), wk =   0.0049383
        k(  412) = (   0.2222222   0.3888889   0.2281343), wk =   0.0049383
        k(  413) = (   0.2222222   0.3888889   0.2851679), wk =   0.0049383
        k(  414) = (   0.2222222   0.3888889   0.3422015), wk =   0.0049383
        k(  415) = (   0.2222222   0.3888889   0.3992351), wk =   0.0049383
        k(  416) = (   0.2222222   0.3888889   0.4562686), wk =   0.0049383
        k(  417) = (   0.2222222   0.3888889   0.5133022), wk =   0.0049383
        k(  418) = (   0.2222222   0.3888889  -0.5703358), wk =   0.0024691
        k(  419) = (   0.2222222   0.4444444   0.0000000), wk =   0.0024691
        k(  420) = (   0.2222222   0.4444444   0.0570336), wk =   0.0049383
        k(  421) = (   0.2222222   0.4444444   0.1140672), wk =   0.0049383
        k(  422) = (   0.2222222   0.4444444   0.1711007), wk =   0.0049383
        k(  423) = (   0.2222222   0.4444444   0.2281343), wk =   0.0049383
        k(  424) = (   0.2222222   0.4444444   0.2851679), wk =   0.0049383
        k(  425) = (   0.2222222   0.4444444   0.3422015), wk =   0.0049383
        k(  426) = (   0.2222222   0.4444444   0.3992351), wk =   0.0049383
        k(  427) = (   0.2222222   0.4444444   0.4562686), wk =   0.0049383
        k(  428) = (   0.2222222   0.4444444   0.5133022), wk =   0.0049383
        k(  429) = (   0.2222222   0.4444444  -0.5703358), wk =   0.0024691
        k(  430) = (   0.2222222  -0.5000000   0.0000000), wk =   0.0012346
        k(  431) = (   0.2222222  -0.5000000   0.0570336), wk =   0.0024691
        k(  432) = (   0.2222222  -0.5000000   0.1140672), wk =   0.0024691
        k(  433) = (   0.2222222  -0.5000000   0.1711007), wk =   0.0024691
        k(  434) = (   0.2222222  -0.5000000   0.2281343), wk =   0.0024691
        k(  435) = (   0.2222222  -0.5000000   0.2851679), wk =   0.0024691
        k(  436) = (   0.2222222  -0.5000000   0.3422015), wk =   0.0024691
        k(  437) = (   0.2222222  -0.5000000   0.3992351), wk =   0.0024691
        k(  438) = (   0.2222222  -0.5000000   0.4562686), wk =   0.0024691
        k(  439) = (   0.2222222  -0.5000000   0.5133022), wk =   0.0024691
        k(  440) = (   0.2222222  -0.5000000  -0.5703358), wk =   0.0012346
        k(  441) = (   0.2777778   0.2777778   0.0000000), wk =   0.0012346
        k(  442) = (   0.2777778   0.2777778   0.0570336), wk =   0.0024691
        k(  443) = (   0.2777778   0.2777778   0.1140672), wk =   0.0024691
        k(  444) = (   0.2777778   0.2777778   0.1711007), wk =   0.0024691
        k(  445) = (   0.2777778   0.2777778   0.2281343), wk =   0.0024691
        k(  446) = (   0.2777778   0.2777778   0.2851679), wk =   0.0024691
        k(  447) = (   0.2777778   0.2777778   0.3422015), wk =   0.0024691
        k(  448) = (   0.2777778   0.2777778   0.3992351), wk =   0.0024691
        k(  449) = (   0.2777778   0.2777778   0.4562686), wk =   0.0024691
        k(  450) = (   0.2777778   0.2777778   0.5133022), wk =   0.0024691
        k(  451) = (   0.2777778   0.2777778  -0.5703358), wk =   0.0012346
        k(  452) = (   0.2777778   0.3333333   0.0000000), wk =   0.0024691
        k(  453) = (   0.2777778   0.3333333   0.0570336), wk =   0.0049383
        k(  454) = (   0.2777778   0.3333333   0.1140672), wk =   0.0049383
        k(  455) = (   0.2777778   0.3333333   0.1711007), wk =   0.0049383
        k(  456) = (   0.2777778   0.3333333   0.2281343), wk =   0.0049383
        k(  457) = (   0.2777778   0.3333333   0.2851679), wk =   0.0049383
        k(  458) = (   0.2777778   0.3333333   0.3422015), wk =   0.0049383
        k(  459) = (   0.2777778   0.3333333   0.3992351), wk =   0.0049383
        k(  460) = (   0.2777778   0.3333333   0.4562686), wk =   0.0049383
        k(  461) = (   0.2777778   0.3333333   0.5133022), wk =   0.0049383
        k(  462) = (   0.2777778   0.3333333  -0.5703358), wk =   0.0024691
        k(  463) = (   0.2777778   0.3888889   0.0000000), wk =   0.0024691
        k(  464) = (   0.2777778   0.3888889   0.0570336), wk =   0.0049383
        k(  465) = (   0.2777778   0.3888889   0.1140672), wk =   0.0049383
        k(  466) = (   0.2777778   0.3888889   0.1711007), wk =   0.0049383
        k(  467) = (   0.2777778   0.3888889   0.2281343), wk =   0.0049383
        k(  468) = (   0.2777778   0.3888889   0.2851679), wk =   0.0049383
        k(  469) = (   0.2777778   0.3888889   0.3422015), wk =   0.0049383
        k(  470) = (   0.2777778   0.3888889   0.3992351), wk =   0.0049383
        k(  471) = (   0.2777778   0.3888889   0.4562686), wk =   0.0049383
        k(  472) = (   0.2777778   0.3888889   0.5133022), wk =   0.0049383
        k(  473) = (   0.2777778   0.3888889  -0.5703358), wk =   0.0024691
        k(  474) = (   0.2777778   0.4444444   0.0000000), wk =   0.0024691
        k(  475) = (   0.2777778   0.4444444   0.0570336), wk =   0.0049383
        k(  476) = (   0.2777778   0.4444444   0.1140672), wk =   0.0049383
        k(  477) = (   0.2777778   0.4444444   0.1711007), wk =   0.0049383
        k(  478) = (   0.2777778   0.4444444   0.2281343), wk =   0.0049383
        k(  479) = (   0.2777778   0.4444444   0.2851679), wk =   0.0049383
        k(  480) = (   0.2777778   0.4444444   0.3422015), wk =   0.0049383
        k(  481) = (   0.2777778   0.4444444   0.3992351), wk =   0.0049383
        k(  482) = (   0.2777778   0.4444444   0.4562686), wk =   0.0049383
        k(  483) = (   0.2777778   0.4444444   0.5133022), wk =   0.0049383
        k(  484) = (   0.2777778   0.4444444  -0.5703358), wk =   0.0024691
        k(  485) = (   0.2777778  -0.5000000   0.0000000), wk =   0.0012346
        k(  486) = (   0.2777778  -0.5000000   0.0570336), wk =   0.0024691
        k(  487) = (   0.2777778  -0.5000000   0.1140672), wk =   0.0024691
        k(  488) = (   0.2777778  -0.5000000   0.1711007), wk =   0.0024691
        k(  489) = (   0.2777778  -0.5000000   0.2281343), wk =   0.0024691
        k(  490) = (   0.2777778  -0.5000000   0.2851679), wk =   0.0024691
        k(  491) = (   0.2777778  -0.5000000   0.3422015), wk =   0.0024691
        k(  492) = (   0.2777778  -0.5000000   0.3992351), wk =   0.0024691
        k(  493) = (   0.2777778  -0.5000000   0.4562686), wk =   0.0024691
        k(  494) = (   0.2777778  -0.5000000   0.5133022), wk =   0.0024691
        k(  495) = (   0.2777778  -0.5000000  -0.5703358), wk =   0.0012346
        k(  496) = (   0.3333333   0.3333333   0.0000000), wk =   0.0012346
        k(  497) = (   0.3333333   0.3333333   0.0570336), wk =   0.0024691
        k(  498) = (   0.3333333   0.3333333   0.1140672), wk =   0.0024691
        k(  499) = (   0.3333333   0.3333333   0.1711007), wk =   0.0024691
        k(  500) = (   0.3333333   0.3333333   0.2281343), wk =   0.0024691
        k(  501) = (   0.3333333   0.3333333   0.2851679), wk =   0.0024691
        k(  502) = (   0.3333333   0.3333333   0.3422015), wk =   0.0024691
        k(  503) = (   0.3333333   0.3333333   0.3992351), wk =   0.0024691
        k(  504) = (   0.3333333   0.3333333   0.4562686), wk =   0.0024691
        k(  505) = (   0.3333333   0.3333333   0.5133022), wk =   0.0024691
        k(  506) = (   0.3333333   0.3333333  -0.5703358), wk =   0.0012346
        k(  507) = (   0.3333333   0.3888889   0.0000000), wk =   0.0024691
        k(  508) = (   0.3333333   0.3888889   0.0570336), wk =   0.0049383
        k(  509) = (   0.3333333   0.3888889   0.1140672), wk =   0.0049383
        k(  510) = (   0.3333333   0.3888889   0.1711007), wk =   0.0049383
        k(  511) = (   0.3333333   0.3888889   0.2281343), wk =   0.0049383
        k(  512) = (   0.3333333   0.3888889   0.2851679), wk =   0.0049383
        k(  513) = (   0.3333333   0.3888889   0.3422015), wk =   0.0049383
        k(  514) = (   0.3333333   0.3888889   0.3992351), wk =   0.0049383
        k(  515) = (   0.3333333   0.3888889   0.4562686), wk =   0.0049383
        k(  516) = (   0.3333333   0.3888889   0.5133022), wk =   0.0049383
        k(  517) = (   0.3333333   0.3888889  -0.5703358), wk =   0.0024691
        k(  518) = (   0.3333333   0.4444444   0.0000000), wk =   0.0024691
        k(  519) = (   0.3333333   0.4444444   0.0570336), wk =   0.0049383
        k(  520) = (   0.3333333   0.4444444   0.1140672), wk =   0.0049383
        k(  521) = (   0.3333333   0.4444444   0.1711007), wk =   0.0049383
        k(  522) = (   0.3333333   0.4444444   0.2281343), wk =   0.0049383
        k(  523) = (   0.3333333   0.4444444   0.2851679), wk =   0.0049383
        k(  524) = (   0.3333333   0.4444444   0.3422015), wk =   0.0049383
        k(  525) = (   0.3333333   0.4444444   0.3992351), wk =   0.0049383
        k(  526) = (   0.3333333   0.4444444   0.4562686), wk =   0.0049383
        k(  527) = (   0.3333333   0.4444444   0.5133022), wk =   0.0049383
        k(  528) = (   0.3333333   0.4444444  -0.5703358), wk =   0.0024691
        k(  529) = (   0.3333333  -0.5000000   0.0000000), wk =   0.0012346
        k(  530) = (   0.3333333  -0.5000000   0.0570336), wk =   0.0024691
        k(  531) = (   0.3333333  -0.5000000   0.1140672), wk =   0.0024691
        k(  532) = (   0.3333333  -0.5000000   0.1711007), wk =   0.0024691
        k(  533) = (   0.3333333  -0.5000000   0.2281343), wk =   0.0024691
        k(  534) = (   0.3333333  -0.5000000   0.2851679), wk =   0.0024691
        k(  535) = (   0.3333333  -0.5000000   0.3422015), wk =   0.0024691
        k(  536) = (   0.3333333  -0.5000000   0.3992351), wk =   0.0024691
        k(  537) = (   0.3333333  -0.5000000   0.4562686), wk =   0.0024691
        k(  538) = (   0.3333333  -0.5000000   0.5133022), wk =   0.0024691
        k(  539) = (   0.3333333  -0.5000000  -0.5703358), wk =   0.0012346
        k(  540) = (   0.3888889   0.3888889   0.0000000), wk =   0.0012346
        k(  541) = (   0.3888889   0.3888889   0.0570336), wk =   0.0024691
        k(  542) = (   0.3888889   0.3888889   0.1140672), wk =   0.0024691
        k(  543) = (   0.3888889   0.3888889   0.1711007), wk =   0.0024691
        k(  544) = (   0.3888889   0.3888889   0.2281343), wk =   0.0024691
        k(  545) = (   0.3888889   0.3888889   0.2851679), wk =   0.0024691
        k(  546) = (   0.3888889   0.3888889   0.3422015), wk =   0.0024691
        k(  547) = (   0.3888889   0.3888889   0.3992351), wk =   0.0024691
        k(  548) = (   0.3888889   0.3888889   0.4562686), wk =   0.0024691
        k(  549) = (   0.3888889   0.3888889   0.5133022), wk =   0.0024691
        k(  550) = (   0.3888889   0.3888889  -0.5703358), wk =   0.0012346
        k(  551) = (   0.3888889   0.4444444   0.0000000), wk =   0.0024691
        k(  552) = (   0.3888889   0.4444444   0.0570336), wk =   0.0049383
        k(  553) = (   0.3888889   0.4444444   0.1140672), wk =   0.0049383
        k(  554) = (   0.3888889   0.4444444   0.1711007), wk =   0.0049383
        k(  555) = (   0.3888889   0.4444444   0.2281343), wk =   0.0049383
        k(  556) = (   0.3888889   0.4444444   0.2851679), wk =   0.0049383
        k(  557) = (   0.3888889   0.4444444   0.3422015), wk =   0.0049383
        k(  558) = (   0.3888889   0.4444444   0.3992351), wk =   0.0049383
        k(  559) = (   0.3888889   0.4444444   0.4562686), wk =   0.0049383
        k(  560) = (   0.3888889   0.4444444   0.5133022), wk =   0.0049383
        k(  561) = (   0.3888889   0.4444444  -0.5703358), wk =   0.0024691
        k(  562) = (   0.3888889  -0.5000000   0.0000000), wk =   0.0012346
        k(  563) = (   0.3888889  -0.5000000   0.0570336), wk =   0.0024691
        k(  564) = (   0.3888889  -0.5000000   0.1140672), wk =   0.0024691
        k(  565) = (   0.3888889  -0.5000000   0.1711007), wk =   0.0024691
        k(  566) = (   0.3888889  -0.5000000   0.2281343), wk =   0.0024691
        k(  567) = (   0.3888889  -0.5000000   0.2851679), wk =   0.0024691
        k(  568) = (   0.3888889  -0.5000000   0.3422015), wk =   0.0024691
        k(  569) = (   0.3888889  -0.5000000   0.3992351), wk =   0.0024691
        k(  570) = (   0.3888889  -0.5000000   0.4562686), wk =   0.0024691
        k(  571) = (   0.3888889  -0.5000000   0.5133022), wk =   0.0024691
        k(  572) = (   0.3888889  -0.5000000  -0.5703358), wk =   0.0012346
        k(  573) = (   0.4444444   0.4444444   0.0000000), wk =   0.0012346
        k(  574) = (   0.4444444   0.4444444   0.0570336), wk =   0.0024691
        k(  575) = (   0.4444444   0.4444444   0.1140672), wk =   0.0024691
        k(  576) = (   0.4444444   0.4444444   0.1711007), wk =   0.0024691
        k(  577) = (   0.4444444   0.4444444   0.2281343), wk =   0.0024691
        k(  578) = (   0.4444444   0.4444444   0.2851679), wk =   0.0024691
        k(  579) = (   0.4444444   0.4444444   0.3422015), wk =   0.0024691
        k(  580) = (   0.4444444   0.4444444   0.3992351), wk =   0.0024691
        k(  581) = (   0.4444444   0.4444444   0.4562686), wk =   0.0024691
        k(  582) = (   0.4444444   0.4444444   0.5133022), wk =   0.0024691
        k(  583) = (   0.4444444   0.4444444  -0.5703358), wk =   0.0012346
        k(  584) = (   0.4444444  -0.5000000   0.0000000), wk =   0.0012346
        k(  585) = (   0.4444444  -0.5000000   0.0570336), wk =   0.0024691
        k(  586) = (   0.4444444  -0.5000000   0.1140672), wk =   0.0024691
        k(  587) = (   0.4444444  -0.5000000   0.1711007), wk =   0.0024691
        k(  588) = (   0.4444444  -0.5000000   0.2281343), wk =   0.0024691
        k(  589) = (   0.4444444  -0.5000000   0.2851679), wk =   0.0024691
        k(  590) = (   0.4444444  -0.5000000   0.3422015), wk =   0.0024691
        k(  591) = (   0.4444444  -0.5000000   0.3992351), wk =   0.0024691
        k(  592) = (   0.4444444  -0.5000000   0.4562686), wk =   0.0024691
        k(  593) = (   0.4444444  -0.5000000   0.5133022), wk =   0.0024691
        k(  594) = (   0.4444444  -0.5000000  -0.5703358), wk =   0.0012346
        k(  595) = (  -0.5000000  -0.5000000   0.0000000), wk =   0.0003086
        k(  596) = (  -0.5000000  -0.5000000   0.0570336), wk =   0.0006173
        k(  597) = (  -0.5000000  -0.5000000   0.1140672), wk =   0.0006173
        k(  598) = (  -0.5000000  -0.5000000   0.1711007), wk =   0.0006173
        k(  599) = (  -0.5000000  -0.5000000   0.2281343), wk =   0.0006173
        k(  600) = (  -0.5000000  -0.5000000   0.2851679), wk =   0.0006173
        k(  601) = (  -0.5000000  -0.5000000   0.3422015), wk =   0.0006173
        k(  602) = (  -0.5000000  -0.5000000   0.3992351), wk =   0.0006173
        k(  603) = (  -0.5000000  -0.5000000   0.4562686), wk =   0.0006173
        k(  604) = (  -0.5000000  -0.5000000   0.5133022), wk =   0.0006173
        k(  605) = (  -0.5000000  -0.5000000  -0.5703358), wk =   0.0003086

                       cryst. coord.
        k(    1) = (   0.0000000   0.0000000   0.0000000), wk =   0.0003086
        k(    2) = (   0.0000000   0.0000000   0.0500000), wk =   0.0006173
        k(    3) = (   0.0000000   0.0000000   0.1000000), wk =   0.0006173
        k(    4) = (   0.0000000   0.0000000   0.1500000), wk =   0.0006173
        k(    5) = (   0.0000000   0.0000000   0.2000000), wk =   0.0006173
        k(    6) = (   0.0000000   0.0000000   0.2500000), wk =   0.0006173
        k(    7) = (   0.0000000   0.0000000   0.3000000), wk =   0.0006173
        k(    8) = (   0.0000000   0.0000000   0.3500000), wk =   0.0006173
        k(    9) = (   0.0000000   0.0000000   0.4000000), wk =   0.0006173
        k(   10) = (   0.0000000   0.0000000   0.4500000), wk =   0.0006173
        k(   11) = (   0.0000000   0.0000000  -0.5000000), wk =   0.0003086
        k(   12) = (   0.0000000   0.0555556   0.0000000), wk =   0.0012346
        k(   13) = (   0.0000000   0.0555556   0.0500000), wk =   0.0024691
        k(   14) = (   0.0000000   0.0555556   0.1000000), wk =   0.0024691
        k(   15) = (   0.0000000   0.0555556   0.1500000), wk =   0.0024691
        k(   16) = (   0.0000000   0.0555556   0.2000000), wk =   0.0024691
        k(   17) = (   0.0000000   0.0555556   0.2500000), wk =   0.0024691
        k(   18) = (   0.0000000   0.0555556   0.3000000), wk =   0.0024691
        k(   19) = (   0.0000000   0.0555556   0.3500000), wk =   0.0024691
        k(   20) = (   0.0000000   0.0555556   0.4000000), wk =   0.0024691
        k(   21) = (   0.0000000   0.0555556   0.4500000), wk =   0.0024691
        k(   22) = (   0.0000000   0.0555556  -0.5000000), wk =   0.0012346
        k(   23) = (   0.0000000   0.1111111   0.0000000), wk =   0.0012346
        k(   24) = (   0.0000000   0.1111111   0.0500000), wk =   0.0024691
        k(   25) = (   0.0000000   0.1111111   0.1000000), wk =   0.0024691
        k(   26) = (   0.0000000   0.1111111   0.1500000), wk =   0.0024691
        k(   27) = (   0.0000000   0.1111111   0.2000000), wk =   0.0024691
        k(   28) = (   0.0000000   0.1111111   0.2500000), wk =   0.0024691
        k(   29) = (   0.0000000   0.1111111   0.3000000), wk =   0.0024691
        k(   30) = (   0.0000000   0.1111111   0.3500000), wk =   0.0024691
        k(   31) = (   0.0000000   0.1111111   0.4000000), wk =   0.0024691
        k(   32) = (   0.0000000   0.1111111   0.4500000), wk =   0.0024691
        k(   33) = (   0.0000000   0.1111111  -0.5000000), wk =   0.0012346
        k(   34) = (   0.0000000   0.1666667   0.0000000), wk =   0.0012346
        k(   35) = (   0.0000000   0.1666667   0.0500000), wk =   0.0024691
        k(   36) = (   0.0000000   0.1666667   0.1000000), wk =   0.0024691
        k(   37) = (   0.0000000   0.1666667   0.1500000), wk =   0.0024691
        k(   38) = (   0.0000000   0.1666667   0.2000000), wk =   0.0024691
        k(   39) = (   0.0000000   0.1666667   0.2500000), wk =   0.0024691
        k(   40) = (   0.0000000   0.1666667   0.3000000), wk =   0.0024691
        k(   41) = (   0.0000000   0.1666667   0.3500000), wk =   0.0024691
        k(   42) = (   0.0000000   0.1666667   0.4000000), wk =   0.0024691
        k(   43) = (   0.0000000   0.1666667   0.4500000), wk =   0.0024691
        k(   44) = (   0.0000000   0.1666667  -0.5000000), wk =   0.0012346
        k(   45) = (   0.0000000   0.2222222   0.0000000), wk =   0.0012346
        k(   46) = (   0.0000000   0.2222222   0.0500000), wk =   0.0024691
        k(   47) = (   0.0000000   0.2222222   0.1000000), wk =   0.0024691
        k(   48) = (   0.0000000   0.2222222   0.1500000), wk =   0.0024691
        k(   49) = (   0.0000000   0.2222222   0.2000000), wk =   0.0024691
        k(   50) = (   0.0000000   0.2222222   0.2500000), wk =   0.0024691
        k(   51) = (   0.0000000   0.2222222   0.3000000), wk =   0.0024691
        k(   52) = (   0.0000000   0.2222222   0.3500000), wk =   0.0024691
        k(   53) = (   0.0000000   0.2222222   0.4000000), wk =   0.0024691
        k(   54) = (   0.0000000   0.2222222   0.4500000), wk =   0.0024691
        k(   55) = (   0.0000000   0.2222222  -0.5000000), wk =   0.0012346
        k(   56) = (   0.0000000   0.2777778   0.0000000), wk =   0.0012346
        k(   57) = (   0.0000000   0.2777778   0.0500000), wk =   0.0024691
        k(   58) = (   0.0000000   0.2777778   0.1000000), wk =   0.0024691
        k(   59) = (   0.0000000   0.2777778   0.1500000), wk =   0.0024691
        k(   60) = (   0.0000000   0.2777778   0.2000000), wk =   0.0024691
        k(   61) = (   0.0000000   0.2777778   0.2500000), wk =   0.0024691
        k(   62) = (   0.0000000   0.2777778   0.3000000), wk =   0.0024691
        k(   63) = (   0.0000000   0.2777778   0.3500000), wk =   0.0024691
        k(   64) = (   0.0000000   0.2777778   0.4000000), wk =   0.0024691
        k(   65) = (   0.0000000   0.2777778   0.4500000), wk =   0.0024691
        k(   66) = (   0.0000000   0.2777778  -0.5000000), wk =   0.0012346
        k(   67) = (   0.0000000   0.3333333   0.0000000), wk =   0.0012346
        k(   68) = (   0.0000000   0.3333333   0.0500000), wk =   0.0024691
        k(   69) = (   0.0000000   0.3333333   0.1000000), wk =   0.0024691
        k(   70) = (   0.0000000   0.3333333   0.1500000), wk =   0.0024691
        k(   71) = (   0.0000000   0.3333333   0.2000000), wk =   0.0024691
        k(   72) = (   0.0000000   0.3333333   0.2500000), wk =   0.0024691
        k(   73) = (   0.0000000   0.3333333   0.3000000), wk =   0.0024691
        k(   74) = (   0.0000000   0.3333333   0.3500000), wk =   0.0024691
        k(   75) = (   0.0000000   0.3333333   0.4000000), wk =   0.0024691
        k(   76) = (   0.0000000   0.3333333   0.4500000), wk =   0.0024691
        k(   77) = (   0.0000000   0.3333333  -0.5000000), wk =   0.0012346
        k(   78) = (   0.0000000   0.3888889   0.0000000), wk =   0.0012346
        k(   79) = (   0.0000000   0.3888889   0.0500000), wk =   0.0024691
        k(   80) = (   0.0000000   0.3888889   0.1000000), wk =   0.0024691
        k(   81) = (   0.0000000   0.3888889   0.1500000), wk =   0.0024691
        k(   82) = (   0.0000000   0.3888889   0.2000000), wk =   0.0024691
        k(   83) = (   0.0000000   0.3888889   0.2500000), wk =   0.0024691
        k(   84) = (   0.0000000   0.3888889   0.3000000), wk =   0.0024691
        k(   85) = (   0.0000000   0.3888889   0.3500000), wk =   0.0024691
        k(   86) = (   0.0000000   0.3888889   0.4000000), wk =   0.0024691
        k(   87) = (   0.0000000   0.3888889   0.4500000), wk =   0.0024691
        k(   88) = (   0.0000000   0.3888889  -0.5000000), wk =   0.0012346
        k(   89) = (   0.0000000   0.4444444   0.0000000), wk =   0.0012346
        k(   90) = (   0.0000000   0.4444444   0.0500000), wk =   0.0024691
        k(   91) = (   0.0000000   0.4444444   0.1000000), wk =   0.0024691
        k(   92) = (   0.0000000   0.4444444   0.1500000), wk =   0.0024691
        k(   93) = (   0.0000000   0.4444444   0.2000000), wk =   0.0024691
        k(   94) = (   0.0000000   0.4444444   0.2500000), wk =   0.0024691
        k(   95) = (   0.0000000   0.4444444   0.3000000), wk =   0.0024691
        k(   96) = (   0.0000000   0.4444444   0.3500000), wk =   0.0024691
        k(   97) = (   0.0000000   0.4444444   0.4000000), wk =   0.0024691
        k(   98) = (   0.0000000   0.4444444   0.4500000), wk =   0.0024691
        k(   99) = (   0.0000000   0.4444444  -0.5000000), wk =   0.0012346
        k(  100) = (   0.0000000  -0.5000000   0.0000000), wk =   0.0006173
        k(  101) = (   0.0000000  -0.5000000   0.0500000), wk =   0.0012346
        k(  102) = (   0.0000000  -0.5000000   0.1000000), wk =   0.0012346
        k(  103) = (   0.0000000  -0.5000000   0.1500000), wk =   0.0012346
        k(  104) = (   0.0000000  -0.5000000   0.2000000), wk =   0.0012346
        k(  105) = (   0.0000000  -0.5000000   0.2500000), wk =   0.0012346
        k(  106) = (   0.0000000  -0.5000000   0.3000000), wk =   0.0012346
        k(  107) = (   0.0000000  -0.5000000   0.3500000), wk =   0.0012346
        k(  108) = (   0.0000000  -0.5000000   0.4000000), wk =   0.0012346
        k(  109) = (   0.0000000  -0.5000000   0.4500000), wk =   0.0012346
        k(  110) = (   0.0000000  -0.5000000  -0.5000000), wk =   0.0006173
        k(  111) = (   0.0555556   0.0555556   0.0000000), wk =   0.0012346
        k(  112) = (   0.0555556   0.0555556   0.0500000), wk =   0.0024691
        k(  113) = (   0.0555556   0.0555556   0.1000000), wk =   0.0024691
        k(  114) = (   0.0555556   0.0555556   0.1500000), wk =   0.0024691
        k(  115) = (   0.0555556   0.0555556   0.2000000), wk =   0.0024691
        k(  116) = (   0.0555556   0.0555556   0.2500000), wk =   0.0024691
        k(  117) = (   0.0555556   0.0555556   0.3000000), wk =   0.0024691
        k(  118) = (   0.0555556   0.0555556   0.3500000), wk =   0.0024691
        k(  119) = (   0.0555556   0.0555556   0.4000000), wk =   0.0024691
        k(  120) = (   0.0555556   0.0555556   0.4500000), wk =   0.0024691
        k(  121) = (   0.0555556   0.0555556  -0.5000000), wk =   0.0012346
        k(  122) = (   0.0555556   0.1111111   0.0000000), wk =   0.0024691
        k(  123) = (   0.0555556   0.1111111   0.0500000), wk =   0.0049383
        k(  124) = (   0.0555556   0.1111111   0.1000000), wk =   0.0049383
        k(  125) = (   0.0555556   0.1111111   0.1500000), wk =   0.0049383
        k(  126) = (   0.0555556   0.1111111   0.2000000), wk =   0.0049383
        k(  127) = (   0.0555556   0.1111111   0.2500000), wk =   0.0049383
        k(  128) = (   0.0555556   0.1111111   0.3000000), wk =   0.0049383
        k(  129) = (   0.0555556   0.1111111   0.3500000), wk =   0.0049383
        k(  130) = (   0.0555556   0.1111111   0.4000000), wk =   0.0049383
        k(  131) = (   0.0555556   0.1111111   0.4500000), wk =   0.0049383
        k(  132) = (   0.0555556   0.1111111  -0.5000000), wk =   0.0024691
        k(  133) = (   0.0555556   0.1666667   0.0000000), wk =   0.0024691
        k(  134) = (   0.0555556   0.1666667   0.0500000), wk =   0.0049383
        k(  135) = (   0.0555556   0.1666667   0.1000000), wk =   0.0049383
        k(  136) = (   0.0555556   0.1666667   0.1500000), wk =   0.0049383
        k(  137) = (   0.0555556   0.1666667   0.2000000), wk =   0.0049383
        k(  138) = (   0.0555556   0.1666667   0.2500000), wk =   0.0049383
        k(  139) = (   0.0555556   0.1666667   0.3000000), wk =   0.0049383
        k(  140) = (   0.0555556   0.1666667   0.3500000), wk =   0.0049383
        k(  141) = (   0.0555556   0.1666667   0.4000000), wk =   0.0049383
        k(  142) = (   0.0555556   0.1666667   0.4500000), wk =   0.0049383
        k(  143) = (   0.0555556   0.1666667  -0.5000000), wk =   0.0024691
        k(  144) = (   0.0555556   0.2222222   0.0000000), wk =   0.0024691
        k(  145) = (   0.0555556   0.2222222   0.0500000), wk =   0.0049383
        k(  146) = (   0.0555556   0.2222222   0.1000000), wk =   0.0049383
        k(  147) = (   0.0555556   0.2222222   0.1500000), wk =   0.0049383
        k(  148) = (   0.0555556   0.2222222   0.2000000), wk =   0.0049383
        k(  149) = (   0.0555556   0.2222222   0.2500000), wk =   0.0049383
        k(  150) = (   0.0555556   0.2222222   0.3000000), wk =   0.0049383
        k(  151) = (   0.0555556   0.2222222   0.3500000), wk =   0.0049383
        k(  152) = (   0.0555556   0.2222222   0.4000000), wk =   0.0049383
        k(  153) = (   0.0555556   0.2222222   0.4500000), wk =   0.0049383
        k(  154) = (   0.0555556   0.2222222  -0.5000000), wk =   0.0024691
        k(  155) = (   0.0555556   0.2777778   0.0000000), wk =   0.0024691
        k(  156) = (   0.0555556   0.2777778   0.0500000), wk =   0.0049383
        k(  157) = (   0.0555556   0.2777778   0.1000000), wk =   0.0049383
        k(  158) = (   0.0555556   0.2777778   0.1500000), wk =   0.0049383
        k(  159) = (   0.0555556   0.2777778   0.2000000), wk =   0.0049383
        k(  160) = (   0.0555556   0.2777778   0.2500000), wk =   0.0049383
        k(  161) = (   0.0555556   0.2777778   0.3000000), wk =   0.0049383
        k(  162) = (   0.0555556   0.2777778   0.3500000), wk =   0.0049383
        k(  163) = (   0.0555556   0.2777778   0.4000000), wk =   0.0049383
        k(  164) = (   0.0555556   0.2777778   0.4500000), wk =   0.0049383
        k(  165) = (   0.0555556   0.2777778  -0.5000000), wk =   0.0024691
        k(  166) = (   0.0555556   0.3333333   0.0000000), wk =   0.0024691
        k(  167) = (   0.0555556   0.3333333   0.0500000), wk =   0.0049383
        k(  168) = (   0.0555556   0.3333333   0.1000000), wk =   0.0049383
        k(  169) = (   0.0555556   0.3333333   0.1500000), wk =   0.0049383
        k(  170) = (   0.0555556   0.3333333   0.2000000), wk =   0.0049383
        k(  171) = (   0.0555556   0.3333333   0.2500000), wk =   0.0049383
        k(  172) = (   0.0555556   0.3333333   0.3000000), wk =   0.0049383
        k(  173) = (   0.0555556   0.3333333   0.3500000), wk =   0.0049383
        k(  174) = (   0.0555556   0.3333333   0.4000000), wk =   0.0049383
        k(  175) = (   0.0555556   0.3333333   0.4500000), wk =   0.0049383
        k(  176) = (   0.0555556   0.3333333  -0.5000000), wk =   0.0024691
        k(  177) = (   0.0555556   0.3888889   0.0000000), wk =   0.0024691
        k(  178) = (   0.0555556   0.3888889   0.0500000), wk =   0.0049383
        k(  179) = (   0.0555556   0.3888889   0.1000000), wk =   0.0049383
        k(  180) = (   0.0555556   0.3888889   0.1500000), wk =   0.0049383
        k(  181) = (   0.0555556   0.3888889   0.2000000), wk =   0.0049383
        k(  182) = (   0.0555556   0.3888889   0.2500000), wk =   0.0049383
        k(  183) = (   0.0555556   0.3888889   0.3000000), wk =   0.0049383
        k(  184) = (   0.0555556   0.3888889   0.3500000), wk =   0.0049383
        k(  185) = (   0.0555556   0.3888889   0.4000000), wk =   0.0049383
        k(  186) = (   0.0555556   0.3888889   0.4500000), wk =   0.0049383
        k(  187) = (   0.0555556   0.3888889  -0.5000000), wk =   0.0024691
        k(  188) = (   0.0555556   0.4444444   0.0000000), wk =   0.0024691
        k(  189) = (   0.0555556   0.4444444   0.0500000), wk =   0.0049383
        k(  190) = (   0.0555556   0.4444444   0.1000000), wk =   0.0049383
        k(  191) = (   0.0555556   0.4444444   0.1500000), wk =   0.0049383
        k(  192) = (   0.0555556   0.4444444   0.2000000), wk =   0.0049383
        k(  193) = (   0.0555556   0.4444444   0.2500000), wk =   0.0049383
        k(  194) = (   0.0555556   0.4444444   0.3000000), wk =   0.0049383
        k(  195) = (   0.0555556   0.4444444   0.3500000), wk =   0.0049383
        k(  196) = (   0.0555556   0.4444444   0.4000000), wk =   0.0049383
        k(  197) = (   0.0555556   0.4444444   0.4500000), wk =   0.0049383
        k(  198) = (   0.0555556   0.4444444  -0.5000000), wk =   0.0024691
        k(  199) = (   0.0555556  -0.5000000   0.0000000), wk =   0.0012346
        k(  200) = (   0.0555556  -0.5000000   0.0500000), wk =   0.0024691
        k(  201) = (   0.0555556  -0.5000000   0.1000000), wk =   0.0024691
        k(  202) = (   0.0555556  -0.5000000   0.1500000), wk =   0.0024691
        k(  203) = (   0.0555556  -0.5000000   0.2000000), wk =   0.0024691
        k(  204) = (   0.0555556  -0.5000000   0.2500000), wk =   0.0024691
        k(  205) = (   0.0555556  -0.5000000   0.3000000), wk =   0.0024691
        k(  206) = (   0.0555556  -0.5000000   0.3500000), wk =   0.0024691
        k(  207) = (   0.0555556  -0.5000000   0.4000000), wk =   0.0024691
        k(  208) = (   0.0555556  -0.5000000   0.4500000), wk =   0.0024691
        k(  209) = (   0.0555556  -0.5000000  -0.5000000), wk =   0.0012346
        k(  210) = (   0.1111111   0.1111111   0.0000000), wk =   0.0012346
        k(  211) = (   0.1111111   0.1111111   0.0500000), wk =   0.0024691
        k(  212) = (   0.1111111   0.1111111   0.1000000), wk =   0.0024691
        k(  213) = (   0.1111111   0.1111111   0.1500000), wk =   0.0024691
        k(  214) = (   0.1111111   0.1111111   0.2000000), wk =   0.0024691
        k(  215) = (   0.1111111   0.1111111   0.2500000), wk =   0.0024691
        k(  216) = (   0.1111111   0.1111111   0.3000000), wk =   0.0024691
        k(  217) = (   0.1111111   0.1111111   0.3500000), wk =   0.0024691
        k(  218) = (   0.1111111   0.1111111   0.4000000), wk =   0.0024691
        k(  219) = (   0.1111111   0.1111111   0.4500000), wk =   0.0024691
        k(  220) = (   0.1111111   0.1111111  -0.5000000), wk =   0.0012346
        k(  221) = (   0.1111111   0.1666667   0.0000000), wk =   0.0024691
        k(  222) = (   0.1111111   0.1666667   0.0500000), wk =   0.0049383
        k(  223) = (   0.1111111   0.1666667   0.1000000), wk =   0.0049383
        k(  224) = (   0.1111111   0.1666667   0.1500000), wk =   0.0049383
        k(  225) = (   0.1111111   0.1666667   0.2000000), wk =   0.0049383
        k(  226) = (   0.1111111   0.1666667   0.2500000), wk =   0.0049383
        k(  227) = (   0.1111111   0.1666667   0.3000000), wk =   0.0049383
        k(  228) = (   0.1111111   0.1666667   0.3500000), wk =   0.0049383
        k(  229) = (   0.1111111   0.1666667   0.4000000), wk =   0.0049383
        k(  230) = (   0.1111111   0.1666667   0.4500000), wk =   0.0049383
        k(  231) = (   0.1111111   0.1666667  -0.5000000), wk =   0.0024691
        k(  232) = (   0.1111111   0.2222222   0.0000000), wk =   0.0024691
        k(  233) = (   0.1111111   0.2222222   0.0500000), wk =   0.0049383
        k(  234) = (   0.1111111   0.2222222   0.1000000), wk =   0.0049383
        k(  235) = (   0.1111111   0.2222222   0.1500000), wk =   0.0049383
        k(  236) = (   0.1111111   0.2222222   0.2000000), wk =   0.0049383
        k(  237) = (   0.1111111   0.2222222   0.2500000), wk =   0.0049383
        k(  238) = (   0.1111111   0.2222222   0.3000000), wk =   0.0049383
        k(  239) = (   0.1111111   0.2222222   0.3500000), wk =   0.0049383
        k(  240) = (   0.1111111   0.2222222   0.4000000), wk =   0.0049383
        k(  241) = (   0.1111111   0.2222222   0.4500000), wk =   0.0049383
        k(  242) = (   0.1111111   0.2222222  -0.5000000), wk =   0.0024691
        k(  243) = (   0.1111111   0.2777778   0.0000000), wk =   0.0024691
        k(  244) = (   0.1111111   0.2777778   0.0500000), wk =   0.0049383
        k(  245) = (   0.1111111   0.2777778   0.1000000), wk =   0.0049383
        k(  246) = (   0.1111111   0.2777778   0.1500000), wk =   0.0049383
        k(  247) = (   0.1111111   0.2777778   0.2000000), wk =   0.0049383
        k(  248) = (   0.1111111   0.2777778   0.2500000), wk =   0.0049383
        k(  249) = (   0.1111111   0.2777778   0.3000000), wk =   0.0049383
        k(  250) = (   0.1111111   0.2777778   0.3500000), wk =   0.0049383
        k(  251) = (   0.1111111   0.2777778   0.4000000), wk =   0.0049383
        k(  252) = (   0.1111111   0.2777778   0.4500000), wk =   0.0049383
        k(  253) = (   0.1111111   0.2777778  -0.5000000), wk =   0.0024691
        k(  254) = (   0.1111111   0.3333333   0.0000000), wk =   0.0024691
        k(  255) = (   0.1111111   0.3333333   0.0500000), wk =   0.0049383
        k(  256) = (   0.1111111   0.3333333   0.1000000), wk =   0.0049383
        k(  257) = (   0.1111111   0.3333333   0.1500000), wk =   0.0049383
        k(  258) = (   0.1111111   0.3333333   0.2000000), wk =   0.0049383
        k(  259) = (   0.1111111   0.3333333   0.2500000), wk =   0.0049383
        k(  260) = (   0.1111111   0.3333333   0.3000000), wk =   0.0049383
        k(  261) = (   0.1111111   0.3333333   0.3500000), wk =   0.0049383
        k(  262) = (   0.1111111   0.3333333   0.4000000), wk =   0.0049383
        k(  263) = (   0.1111111   0.3333333   0.4500000), wk =   0.0049383
        k(  264) = (   0.1111111   0.3333333  -0.5000000), wk =   0.0024691
        k(  265) = (   0.1111111   0.3888889   0.0000000), wk =   0.0024691
        k(  266) = (   0.1111111   0.3888889   0.0500000), wk =   0.0049383
        k(  267) = (   0.1111111   0.3888889   0.1000000), wk =   0.0049383
        k(  268) = (   0.1111111   0.3888889   0.1500000), wk =   0.0049383
        k(  269) = (   0.1111111   0.3888889   0.2000000), wk =   0.0049383
        k(  270) = (   0.1111111   0.3888889   0.2500000), wk =   0.0049383
        k(  271) = (   0.1111111   0.3888889   0.3000000), wk =   0.0049383
        k(  272) = (   0.1111111   0.3888889   0.3500000), wk =   0.0049383
        k(  273) = (   0.1111111   0.3888889   0.4000000), wk =   0.0049383
        k(  274) = (   0.1111111   0.3888889   0.4500000), wk =   0.0049383
        k(  275) = (   0.1111111   0.3888889  -0.5000000), wk =   0.0024691
        k(  276) = (   0.1111111   0.4444444   0.0000000), wk =   0.0024691
        k(  277) = (   0.1111111   0.4444444   0.0500000), wk =   0.0049383
        k(  278) = (   0.1111111   0.4444444   0.1000000), wk =   0.0049383
        k(  279) = (   0.1111111   0.4444444   0.1500000), wk =   0.0049383
        k(  280) = (   0.1111111   0.4444444   0.2000000), wk =   0.0049383
        k(  281) = (   0.1111111   0.4444444   0.2500000), wk =   0.0049383
        k(  282) = (   0.1111111   0.4444444   0.3000000), wk =   0.0049383
        k(  283) = (   0.1111111   0.4444444   0.3500000), wk =   0.0049383
        k(  284) = (   0.1111111   0.4444444   0.4000000), wk =   0.0049383
        k(  285) = (   0.1111111   0.4444444   0.4500000), wk =   0.0049383
        k(  286) = (   0.1111111   0.4444444  -0.5000000), wk =   0.0024691
        k(  287) = (   0.1111111  -0.5000000   0.0000000), wk =   0.0012346
        k(  288) = (   0.1111111  -0.5000000   0.0500000), wk =   0.0024691
        k(  289) = (   0.1111111  -0.5000000   0.1000000), wk =   0.0024691
        k(  290) = (   0.1111111  -0.5000000   0.1500000), wk =   0.0024691
        k(  291) = (   0.1111111  -0.5000000   0.2000000), wk =   0.0024691
        k(  292) = (   0.1111111  -0.5000000   0.2500000), wk =   0.0024691
        k(  293) = (   0.1111111  -0.5000000   0.3000000), wk =   0.0024691
        k(  294) = (   0.1111111  -0.5000000   0.3500000), wk =   0.0024691
        k(  295) = (   0.1111111  -0.5000000   0.4000000), wk =   0.0024691
        k(  296) = (   0.1111111  -0.5000000   0.4500000), wk =   0.0024691
        k(  297) = (   0.1111111  -0.5000000  -0.5000000), wk =   0.0012346
        k(  298) = (   0.1666667   0.1666667   0.0000000), wk =   0.0012346
        k(  299) = (   0.1666667   0.1666667   0.0500000), wk =   0.0024691
        k(  300) = (   0.1666667   0.1666667   0.1000000), wk =   0.0024691
        k(  301) = (   0.1666667   0.1666667   0.1500000), wk =   0.0024691
        k(  302) = (   0.1666667   0.1666667   0.2000000), wk =   0.0024691
        k(  303) = (   0.1666667   0.1666667   0.2500000), wk =   0.0024691
[...]
    16.1468  16.1468

     occupation numbers 
     1.0000   1.0000   1.0000   1.0000   1.0000   1.0000   1.0000   0.5590
     0.0000   0.0000

          k = 0.3889 0.3889 0.3992 (   827 PWs)   bands (ev):

     1.3496   3.2821   3.2821   4.5990   5.4110   6.7082   6.7083   8.5804
    16.4800  16.4800

     occupation numbers 
     1.0000   1.0000   1.0000   1.0000   1.0000   1.0000   1.0000   1.0000
     0.0000   0.0000

          k = 0.3889 0.3889 0.4563 (   829 PWs)   bands (ev):

     1.7777   3.6923   3.6924   4.0033   5.7263   6.0313   6.0314   7.8983
    16.8471  16.8472

     occupation numbers 
     1.0000   1.0000   1.0000   1.0000   1.0000   1.0000   1.0000   1.0000
     0.0000   0.0000

          k = 0.3889 0.3889 0.5133 (   820 PWs)   bands (ev):

     2.2604   3.3804   4.1311   4.1311   5.4322   5.4322   6.1750   7.2682
    17.2206  17.2206

     occupation numbers 
     1.0000   1.0000   1.0000   1.0000   1.0000   1.0000   1.0000   1.0000
     0.0000   0.0000

          k = 0.3889 0.3889-0.5703 (   816 PWs)   bands (ev):

     2.7959   2.7959   4.4267   4.4267   5.0830   5.0831   6.6926   6.6926
    17.4392  18.2601

     occupation numbers 
     1.0000   1.0000   1.0000   1.0000   1.0000   1.0000   1.0000   1.0000
     0.0000   0.0000

          k = 0.3889 0.4444 0.0000 (   837 PWs)   bands (ev):

     0.3505   1.3330   2.3077   3.2749  10.5597  11.4631  12.3657  12.7656
    13.2673  13.6198

     occupation numbers 
     1.0000   1.0000   1.0000   1.0000   0.0000   0.0000   0.0000   0.0000
     0.0000   0.0000

          k = 0.3889 0.4444 0.0570 (   835 PWs)   bands (ev):

     0.3794   1.3616   2.3360   3.3029  10.1419  11.0509  11.9612  12.8719
    13.2261  14.0531

     occupation numbers 
     1.0000   1.0000   1.0000   1.0000   0.0000   0.0000   0.0000   0.0000
     0.0000   0.0000

          k = 0.3889 0.4444 0.1141 (   832 PWs)   bands (ev):

     0.4659   1.4474   2.4210   3.3866   9.3298  10.2471  11.1660  12.0858
    14.1641  14.8756

     occupation numbers 
     1.0000   1.0000   1.0000   1.0000   0.4624   0.0000   0.0000   0.0000
     0.0000   0.0000

          k = 0.3889 0.4444 0.1711 (   829 PWs)   bands (ev):

     0.6100   1.5903   2.5624   3.5255   8.4508   9.3744  10.2994  11.2250
    15.2393  15.5391

     occupation numbers 
     1.0000   1.0000   1.0000   1.0000   1.0000   0.2528   0.0000   0.0000
     0.0000   0.0000

          k = 0.3889 0.4444 0.2281 (   830 PWs)   bands (ev):

     0.8115   1.7900   2.7597   3.7186   7.5843   8.5117   9.4412  10.3711
    15.8919  16.2749

     occupation numbers 
     1.0000   1.0000   1.0000   1.0000   1.0000   1.0000   0.0714   0.0000
     0.0000   0.0000

          k = 0.3889 0.4444 0.2852 (   828 PWs)   bands (ev):

     1.0700   2.0460   3.0121   3.9629   6.7563   7.6830   8.6156   9.5490
    16.1765  16.7883

     occupation numbers 
     1.0000   1.0000   1.0000   1.0000   1.0000   1.0000   1.0000   0.0036
     0.0000   0.0000

          k = 0.3889 0.4444 0.3422 (   826 PWs)   bands (ev):

     1.3851   2.3577   3.3181   4.2487   5.9853   6.8990   7.8325   8.7687
    16.4799  17.1031

     occupation numbers 
     1.0000   1.0000   1.0000   1.0000   1.0000   1.0000   1.0000   1.0000
     0.0000   0.0000

          k = 0.3889 0.4444 0.3992 (   826 PWs)   bands (ev):

     1.7561   2.7240   3.6736   4.5150   5.3366   6.1682   7.0976   8.0352
    16.8201  17.4405

     occupation numbers 
     1.0000   1.0000   1.0000   1.0000   1.0000   1.0000   1.0000   1.0000
     0.0000   0.0000

          k = 0.3889 0.4444 0.4563 (   830 PWs)   bands (ev):

     2.1822   3.1427   4.0634   4.3307   5.2437   5.5081   6.4153   7.3519
    17.2000  17.8196

     occupation numbers 
     1.0000   1.0000   1.0000   1.0000   1.0000   1.0000   1.0000   1.0000
     0.0000   0.0000

          k = 0.3889 0.4444 0.5133 (   825 PWs)   bands (ev):

     2.6619   3.6080   3.7639   4.3660   5.0415   5.6396   5.7928   6.7215
    17.6139  18.2438

     occupation numbers 
     1.0000   1.0000   1.0000   1.0000   1.0000   1.0000   1.0000   1.0000
     0.0000   0.0000

          k = 0.3889 0.4444-0.5703 (   826 PWs)   bands (ev):

     3.1920   3.1920   4.0941   4.0941   5.2564   5.2564   6.1478   6.1478
    18.0311  18.0312

     occupation numbers 
     1.0000   1.0000   1.0000   1.0000   1.0000   1.0000   1.0000   1.0000
     0.0000   0.0000

          k = 0.3889-0.5000 0.0000 (   828 PWs)   bands (ev):

     0.8154   0.8154   2.7656   2.7656  10.9863  10.9865  12.7916  12.7917
    13.1848  13.1850

     occupation numbers 
     1.0000   1.0000   1.0000   1.0000   0.0000   0.0000   0.0000   0.0000
     0.0000   0.0000

          k = 0.3889-0.5000 0.0570 (   834 PWs)   bands (ev):

     0.8442   0.8442   2.7937   2.7937  10.5717  10.5718  12.3921  12.3922
    13.6367  13.6368

     occupation numbers 
     1.0000   1.0000   1.0000   1.0000   0.0000   0.0000   0.0000   0.0000
     0.0000   0.0000

          k = 0.3889-0.5000 0.1141 (   832 PWs)   bands (ev):

     0.9304   0.9304   2.8782   2.8782   9.7637   9.7638  11.6015  11.6016
    14.5464  14.5465

     occupation numbers 
     1.0000   1.0000   1.0000   1.0000   0.0000   0.0000   0.0000   0.0000
     0.0000   0.0000

          k = 0.3889-0.5000 0.1711 (   826 PWs)   bands (ev):

     1.0740   1.0740   3.0185   3.0185   8.8874   8.8875  10.7376  10.7377
    15.5177  15.5178

     occupation numbers 
     1.0000   1.0000   1.0000   1.0000   1.0003   1.0003   0.0000   0.0000
     0.0000   0.0000

          k = 0.3889-0.5000 0.2281 (   828 PWs)   bands (ev):

     1.2746   1.2746   3.2142   3.2142   8.0222   8.0222   9.8813   9.8814
    16.1656  16.1657

     occupation numbers 
     1.0000   1.0000   1.0000   1.0000   1.0000   1.0000   0.0000   0.0000
     0.0000   0.0000

          k = 0.3889-0.5000 0.2852 (   826 PWs)   bands (ev):

     1.5320   1.5320   3.4638   3.4638   7.1924   7.1924   9.0572   9.0572
    16.5059  16.5060

     occupation numbers 
     1.0000   1.0000   1.0000   1.0000   1.0000   1.0000   1.0336   1.0336
     0.0000   0.0000

          k = 0.3889-0.5000 0.3422 (   822 PWs)   bands (ev):

     1.8456   1.8457   3.7639   3.7639   6.4106   6.4106   8.2751   8.2752
    16.8188  16.8189

     occupation numbers 
     1.0000   1.0000   1.0000   1.0000   1.0000   1.0000   1.0000   1.0000
     0.0000   0.0000

          k = 0.3889-0.5000 0.3992 (   828 PWs)   bands (ev):

     2.2147   2.2147   4.1024   4.1025   5.6930   5.6931   7.5404   7.5405
    17.1618  17.1619

     occupation numbers 
     1.0000   1.0000   1.0000   1.0000   1.0000   1.0000   1.0000   1.0000
     0.0000   0.0000

          k = 0.3889-0.5000 0.4563 (   828 PWs)   bands (ev):

     2.6379   2.6379   4.3939   4.3940   5.1277   5.1278   6.8568   6.8568
    17.5453  17.5454

     occupation numbers 
     1.0000   1.0000   1.0000   1.0000   1.0000   1.0000   1.0000   1.0000
     0.0000   0.0000

          k = 0.3889-0.5000 0.5133 (   826 PWs)   bands (ev):

     3.1126   3.1127   4.1613   4.1614   5.1928   5.1929   6.2280   6.2281
    17.9702  17.9704

     occupation numbers 
     1.0000   1.0000   1.0000   1.0000   1.0000   1.0000   1.0000   1.0000
     0.0000   0.0000

          k = 0.3889-0.5000-0.5703 (   828 PWs)   bands (ev):

     3.6318   3.6319   3.6320   3.6320   5.6618   5.6618   5.6619   5.6620
    18.4298  18.4299

     occupation numbers 
     1.0000   1.0000   1.0000   1.0000   1.0000   1.0000   1.0000   1.0000
     0.0000   0.0000

          k = 0.4444 0.4444 0.0000 (   826 PWs)   bands (ev):

     0.7609   1.7404   1.7404   2.7122  10.9362  11.8393  11.8393  12.7415
    13.1698  14.0751

     occupation numbers 
     1.0000   1.0000   1.0000   1.0000   0.0000   0.0000   0.0000   0.0000
     0.0000   0.0000

          k = 0.4444 0.4444 0.0570 (   831 PWs)   bands (ev):

     0.7897   1.7689   1.7689   2.7404  10.5226  11.4325  11.4325  12.3431
    13.6273  14.5192

     occupation numbers 
     1.0000   1.0000   1.0000   1.0000   0.0000   0.0000   0.0000   0.0000
     0.0000   0.0000

          k = 0.4444 0.4444 0.1141 (   829 PWs)   bands (ev):

     0.8760   1.8544   1.8544   2.8249   9.7144  10.6332  10.6332  11.5529
    14.5660  15.4209

     occupation numbers 
     1.0000   1.0000   1.0000   1.0000   0.0000   0.0000   0.0000   0.0000
     0.0000   0.0000

          k = 0.4444 0.4444 0.1711 (   827 PWs)   bands (ev):

     1.0196   1.9966   1.9966   2.9653   8.8374   9.7627   9.7627  10.6885
    15.6568  16.3889

     occupation numbers 
     1.0000   1.0000   1.0000   1.0000   1.0000   0.0000   0.0000   0.0000
     0.0000   0.0000

          k = 0.4444 0.4444 0.2281 (   826 PWs)   bands (ev):

     1.2203   2.1954   2.1954   3.1611   7.9715   8.9012   8.9012   9.8317
    16.8120  17.0198

     occupation numbers 
     1.0000   1.0000   1.0000   1.0000   1.0000   1.0005   1.0005   0.0000
     0.0000   0.0000

          k = 0.4444 0.4444 0.2852 (   828 PWs)   bands (ev):

     1.4779   2.4500   2.4501   3.4108   7.1410   8.0730   8.0730   9.0070
    17.3444  17.5288

     occupation numbers 
     1.0000   1.0000   1.0000   1.0000   1.0000   1.0000   1.0000   1.0119
     0.0000   0.0000

          k = 0.4444 0.4444 0.3422 (   827 PWs)   bands (ev):

     1.7916   2.7597   2.7597   3.7111   6.3586   7.2881   7.2882   8.2244
    17.6485  17.8010

     occupation numbers 
     1.0000   1.0000   1.0000   1.0000   1.0000   1.0000   1.0000   1.0000
     0.0000   0.0000

          k = 0.4444 0.4444 0.3992 (   829 PWs)   bands (ev):

     2.1608   3.1224   3.1224   4.0499   5.6406   6.5531   6.5531   7.4893
    17.9826  18.1212

     occupation numbers 
     1.0000   1.0000   1.0000   1.0000   1.0000   1.0000   1.0000   1.0000
     0.0000   0.0000

          k = 0.4444 0.4444 0.4563 (   828 PWs)   bands (ev):

     2.5842   3.5335   3.5335   4.3418   5.0746   5.8748   5.8748   6.8053
    18.3511  18.4909

     occupation numbers 
     1.0000   1.0000   1.0000   1.0000   1.0000   1.0000   1.0000   1.0000
     0.0000   0.0000

          k = 0.4444 0.4444 0.5133 (   828 PWs)   bands (ev):

     3.0593   3.9733   3.9733   4.1088   5.1401   5.2742   5.2742   6.1761
    18.7351  18.7351

     occupation numbers 
     1.0000   1.0000   1.0000   1.0000   1.0000   1.0000   1.0000   1.0000
     0.0000   0.0000

          k = 0.4444 0.4444-0.5703 (   828 PWs)   bands (ev):

     3.5789   3.5789   4.2704   4.2705   4.9234   4.9234   5.6096   5.6096
    18.9792  19.3657

     occupation numbers 
     1.0000   1.0000   1.0000   1.0000   1.0000   1.0000   1.0000   1.0000
     0.0000   0.0000

          k = 0.4444-0.5000 0.0000 (   826 PWs)   bands (ev):

     1.2245   1.2245   2.2004   2.2004  11.3627  11.3628  12.2654  12.2655
    13.6076  13.6077

     occupation numbers 
     1.0000   1.0000   1.0000   1.0000   0.0000   0.0000   0.0000   0.0000
     0.0000   0.0000

          k = 0.4444-0.5000 0.0570 (   826 PWs)   bands (ev):

     1.2531   1.2531   2.2287   2.2287  10.9528  10.9529  11.8632  11.8633
    14.0598  14.0599

     occupation numbers 
     1.0000   1.0000   1.0000   1.0000   0.0000   0.0000   0.0000   0.0000
     0.0000   0.0000

          k = 0.4444-0.5000 0.1141 (   830 PWs)   bands (ev):

     1.3390   1.3390   2.3138   2.3138  10.1490  10.1491  11.0685  11.0685
    14.9886  14.9887

     occupation numbers 
     1.0000   1.0000   1.0000   1.0000   0.0000   0.0000   0.0000   0.0000
     0.0000   0.0000

          k = 0.4444-0.5000 0.1711 (   826 PWs)   bands (ev):

     1.4821   1.4821   2.4553   2.4553   9.2750   9.2751  10.2008  10.2009
    16.0574  16.0575

     occupation numbers 
     1.0000   1.0000   1.0000   1.0000   0.7605   0.7602   0.0000   0.0000
     0.0000   0.0000

          k = 0.4444-0.5000 0.2281 (   828 PWs)   bands (ev):

     1.6819   1.6819   2.6528   2.6528   8.4109   8.4109   9.3414   9.3414
    17.0855  17.0857

     occupation numbers 
     1.0000   1.0000   1.0000   1.0000   1.0000   1.0000   0.4025   0.4023
     0.0000   0.0000

          k = 0.4444-0.5000 0.2852 (   834 PWs)   bands (ev):

     1.9382   1.9382   2.9055   2.9055   7.5808   7.5809   8.5146   8.5146
    17.5680  17.5680

     occupation numbers 
     1.0000   1.0000   1.0000   1.0000   1.0000   1.0000   1.0000   1.0000
     0.0000   0.0000

          k = 0.4444-0.5000 0.3422 (   834 PWs)   bands (ev):

     2.2502   2.2502   3.2118   3.2119   6.7957   6.7958   7.7305   7.7305
    17.8740  17.8741

     occupation numbers 
     1.0000   1.0000   1.0000   1.0000   1.0000   1.0000   1.0000   1.0000
     0.0000   0.0000

          k = 0.4444-0.5000 0.3992 (   828 PWs)   bands (ev):

     2.6169   2.6169   3.5678   3.5678   6.0639   6.0639   6.9946   6.9946
    18.2061  18.2062

     occupation numbers 
     1.0000   1.0000   1.0000   1.0000   1.0000   1.0000   1.0000   1.0000
     0.0000   0.0000

          k = 0.4444-0.5000 0.4563 (   826 PWs)   bands (ev):

     3.0360   3.0360   3.9582   3.9583   5.4027   5.4028   6.3115   6.3115
    18.5791  18.5792

     occupation numbers 
     1.0000   1.0000   1.0000   1.0000   1.0000   1.0000   1.0000   1.0000
     0.0000   0.0000

          k = 0.4444-0.5000 0.5133 (   828 PWs)   bands (ev):

     3.5019   3.5019   4.2617   4.2618   4.9350   4.9351   5.6881   5.6882
    18.9911  18.9914

     occupation numbers 
     1.0000   1.0000   1.0000   1.0000   1.0000   1.0000   1.0000   1.0000
     0.0000   0.0000

          k = 0.4444-0.5000-0.5703 (   828 PWs)   bands (ev):

     3.9888   3.9889   3.9889   3.9890   5.1507   5.1508   5.1509   5.1510
    19.4211  19.4213

     occupation numbers 
     1.0000   1.0000   1.0000   1.0000   1.0000   1.0000   1.0000   1.0000
     0.0000   0.0000

          k =-0.5000-0.5000 0.0000 (   824 PWs)   bands (ev):

     1.6864   1.6864   1.6864   1.6864  11.7891  11.7892  11.7892  11.7893
    14.0592  14.0592

     occupation numbers 
     1.0000   1.0000   1.0000   1.0000   0.0000   0.0000   0.0000   0.0000
     0.0000   0.0000

          k =-0.5000-0.5000 0.0570 (   828 PWs)   bands (ev):

     1.7149   1.7149   1.7149   1.7149  11.3833  11.3834  11.3834  11.3835
    14.5084  14.5084

     occupation numbers 
     1.0000   1.0000   1.0000   1.0000   0.0000   0.0000   0.0000   0.0000
     0.0000   0.0000

          k =-0.5000-0.5000 0.1141 (   824 PWs)   bands (ev):

     1.8004   1.8004   1.8004   1.8004  10.5841  10.5841  10.5841  10.5842
    15.4368  15.4369

     occupation numbers 
     1.0000   1.0000   1.0000   1.0000   0.0000   0.0000   0.0000   0.0000
     0.0000   0.0000

          k =-0.5000-0.5000 0.1711 (   808 PWs)   bands (ev):

     1.9428   1.9428   1.9428   1.9428   9.7130   9.7131   9.7131   9.7131
    16.5189  16.5190

     occupation numbers 
     1.0000   1.0000   1.0000   1.0000   0.0000   0.0000   0.0000   0.0000
     0.0000   0.0000

          k =-0.5000-0.5000 0.2281 (   840 PWs)   bands (ev):

     2.1416   2.1416   2.1416   2.1416   8.8509   8.8509   8.8509   8.8510
    17.6646  17.6648

     occupation numbers 
     1.0000   1.0000   1.0000   1.0000   1.0001   1.0001   1.0001   1.0001
     0.0000   0.0000

          k =-0.5000-0.5000 0.2852 (   840 PWs)   bands (ev):

     2.3964   2.3964   2.3964   2.3964   8.0220   8.0221   8.0221   8.0221
    18.3336  18.3337

     occupation numbers 
     1.0000   1.0000   1.0000   1.0000   1.0000   1.0000   1.0000   1.0000
     0.0000   0.0000

          k =-0.5000-0.5000 0.3422 (   836 PWs)   bands (ev):

     2.7062   2.7062   2.7062   2.7062   7.2367   7.2367   7.2367   7.2368
    18.6039  18.6040

     occupation numbers 
     1.0000   1.0000   1.0000   1.0000   1.0000   1.0000   1.0000   1.0000
     0.0000   0.0000

          k =-0.5000-0.5000 0.3992 (   824 PWs)   bands (ev):

     3.0691   3.0691   3.0691   3.0692   6.5011   6.5012   6.5012   6.5012
    18.9217  18.9221

     occupation numbers 
     1.0000   1.0000   1.0000   1.0000   1.0000   1.0000   1.0000   1.0000
     0.0000   0.0000

          k =-0.5000-0.5000 0.4563 (   824 PWs)   bands (ev):

     3.4804   3.4804   3.4804   3.4805   5.8224   5.8225   5.8225   5.8225
    19.2839  19.2842

     occupation numbers 
     1.0000   1.0000   1.0000   1.0000   1.0000   1.0000   1.0000   1.0000
     0.0000   0.0000

          k =-0.5000-0.5000 0.5133 (   824 PWs)   bands (ev):

     3.9206   3.9207   3.9207   3.9207   5.2213   5.2214   5.2214   5.2215
    19.6748  19.6751

     occupation numbers 
     1.0000   1.0000   1.0000   1.0000   1.0000   1.0000   1.0000   1.0000
     0.0000   0.0000

          k =-0.5000-0.5000-0.5703 (   840 PWs)   bands (ev):

     4.2182   4.2184   4.2184   4.2185   4.8698   4.8699   4.8699   4.8701
    20.4857  20.4858

     occupation numbers 
     1.0000   1.0000   1.0000   1.0000   1.0000   1.0000   1.0000   1.0000
     0.0000   0.0000

     the Fermi energy is     9.3418 ev

!    total energy              =     -26.79521322 Ry
     Harris-Foulkes estimate   =     -26.79521326 Ry
     estimated scf accuracy    <       0.00000007 Ry

     The total energy is the sum of the following terms:

     one-electron contribution =      13.23882827 Ry
     hartree contribution      =       0.03762942 Ry
     xc contribution           =     -17.47846913 Ry
     ewald contribution        =     -22.59314023 Ry
     smearing contrib. (-TS)   =      -0.00006155 Ry

     convergence has been achieved in   5 iterations
 
     init_run     :    131.93s CPU      5.76s WALL (       1 calls)
     electrons    :   1584.15s CPU     67.55s WALL (       1 calls)

     Called by init_run:
     wfcinit      :    131.63s CPU      5.61s WALL (       1 calls)
     wfcinit:atom :      2.72s CPU      0.12s WALL (     605 calls)
     wfcinit:wfcr :    117.69s CPU      5.01s WALL (     605 calls)
     potinit      :      0.04s CPU      0.01s WALL (       1 calls)

     Called by electrons:
     c_bands      :   1361.98s CPU     58.08s WALL (       6 calls)
     sum_band     :    220.05s CPU      9.38s WALL (       6 calls)
     v_of_rho     :      0.65s CPU      0.03s WALL (       6 calls)
     v_h          :      0.03s CPU      0.00s WALL (       6 calls)
     v_xc         :      0.62s CPU      0.03s WALL (       6 calls)
     newd         :      0.71s CPU      0.04s WALL (       6 calls)
     mix_rho      :      0.13s CPU      0.01s WALL (       6 calls)

     Called by c_bands:
     init_us_2    :     45.33s CPU      1.93s WALL (    7865 calls)
     cegterg      :   1236.06s CPU     52.66s WALL (    3630 calls)

     Called by sum_band:
     sum_band:bec :      1.40s CPU      0.06s WALL (    3630 calls)
     addusdens    :      0.67s CPU      0.03s WALL (       6 calls)

     Called by *egterg:
     h_psi        :   1177.05s CPU     50.17s WALL (   12608 calls)
     s_psi        :     10.51s CPU      0.45s WALL (   12608 calls)
     g_psi        :      5.22s CPU      0.24s WALL (    8373 calls)
     cdiaghg      :     61.31s CPU      2.69s WALL (   11398 calls)
     cegterg:over :     15.08s CPU      0.66s WALL (    8373 calls)
     cegterg:upda :     16.81s CPU      0.74s WALL (    8373 calls)
     cegterg:last :      6.87s CPU      0.32s WALL (    3634 calls)

     Called by h_psi:
     h_psi:pot    :   1166.08s CPU     49.66s WALL (   12608 calls)
     h_psi:calbec :     39.98s CPU      1.69s WALL (   12608 calls)
     vloc_psi     :   1098.31s CPU     46.81s WALL (   12608 calls)
     add_vuspsi   :     16.42s CPU      0.73s WALL (   12608 calls)

     General routines
     calbec       :     40.66s CPU      1.82s WALL (   16238 calls)
     fft          :      0.27s CPU      0.03s WALL (      80 calls)
     fftw         :   1039.38s CPU     44.39s WALL (  237716 calls)
 
     Parallel routines
 
     PWSCF        : 28m36.37s CPU     1m13.41s WALL

 
   This run was terminated on:  18: 3: 0  24Jan2019            

=------------------------------------------------------------------------------=
   JOB DONE.
=------------------------------------------------------------------------------=
