
     Program PWSCF v.6.2 (svn rev. 14038) starts on 24Jan2019 at 17: 7:20 

     This program is part of the open-source Quantum ESPRESSO suite
     for quantum simulation of materials; please cite
         "P. Giannozzi et al., J. Phys.:Condens. Matter 21 395502 (2009);
         "P. Giannozzi et al., J. Phys.:Condens. Matter 29 465901 (2017);
          URL http://www.quantum-espresso.org", 
     in publications or presentations arising from this work. More details at
     http://www.quantum-espresso.org/quote

     Parallel version (MPI), running on     1 processors

     MPI processes distributed on     1 nodes
     Reading input from ./AlfccSEPNEG0DOT061661730276516336.in
Warning: card &IONS ignored
Warning: card / ignored
Warning: card &CELL ignored
Warning: card / ignored

     Current dimensions of program PWSCF are:
     Max number of different atomic species (ntypx) = 10
     Max number of k-points (npk) =  40000
     Max angular momentum in pseudopotentials (lmaxx) =  3
     Message from routine iosys:
     minimal I/O required, wf_collect reset to FALSE

     Subspace diagonalization in iterative solution of the eigenvalue problem:
     a serial algorithm will be used

     Found symmetry operation: I + ( -0.5000 -0.5000  0.0000)
     This is a supercell, fractional translations are disabled
 
     G-vector sticks info
     --------------------
     sticks:   dense  smooth     PW     G-vecs:    dense   smooth      PW
     Sum         465     465    145                 7079     7079    1309
 


     bravais-lattice index     =            0
     lattice parameter (alat)  =       7.6325  a.u.
     unit-cell volume          =     417.2102 (a.u.)^3
     number of atoms/cell      =            4
     number of atomic types    =            1
     number of electrons       =        12.00
     number of Kohn-Sham states=           10
     kinetic-energy cutoff     =      25.0000  Ry
     charge density cutoff     =     100.0000  Ry
     convergence threshold     =      1.0E-07
     mixing beta               =       0.7000
     number of iterations used =            8  plain     mixing
     Exchange-correlation      = SLA  PW   PBE  PBE ( 1  4  3  4 0 0)

     celldm(1)=   7.632472  celldm(2)=   0.000000  celldm(3)=   0.000000
     celldm(4)=   0.000000  celldm(5)=   0.000000  celldm(6)=   0.000000

     crystal axes: (cart. coord. in units of alat)
               a(1) = (   1.000000   0.000000   0.000000 )  
               a(2) = (   0.000000   1.000000   0.000000 )  
               a(3) = (   0.000000   0.000000   0.938338 )  

     reciprocal axes: (cart. coord. in units 2 pi/alat)
               b(1) = (  1.000000  0.000000  0.000000 )  
               b(2) = (  0.000000  1.000000  0.000000 )  
               b(3) = (  0.000000  0.000000  1.065714 )  


     PseudoPot. # 1 for Al read from file:
     ./al_pbe_v1.uspp.F.UPF
     MD5 check sum: 0a6289f5291fc8f409219462bc851e1f
     Pseudo is Ultrasoft + core correction, Zval =  3.0
     Generated by new atomic code, or converted to UPF format
     Using radial grid of  893 points,  3 beta functions with: 
                l(1) =   0
                l(2) =   1
                l(3) =   2
     Q(r) pseudized with  8 coefficients,  rinner =    0.900   0.900   0.900
                                                       0.900   0.900

     atomic species   valence    mass     pseudopotential
        Al             3.00    26.98150     Al( 1.00)

     16 Sym. Ops., with inversion, found


                                    s                        frac. trans.

      isym =  1     identity                                     

 cryst.   s( 1) = (     1          0          0      )
                  (     0          1          0      )
                  (     0          0          1      )

 cart.    s( 1) = (  1.0000000  0.0000000  0.0000000 )
                  (  0.0000000  1.0000000  0.0000000 )
                  (  0.0000000  0.0000000  1.0000000 )


      isym =  2     180 deg rotation - cart. axis [0,0,1]        

 cryst.   s( 2) = (    -1          0          0      )
                  (     0         -1          0      )
                  (     0          0          1      )

 cart.    s( 2) = ( -1.0000000  0.0000000  0.0000000 )
                  (  0.0000000 -1.0000000  0.0000000 )
                  (  0.0000000  0.0000000  1.0000000 )


      isym =  3     180 deg rotation - cart. axis [0,1,0]        

 cryst.   s( 3) = (    -1          0          0      )
                  (     0          1          0      )
                  (     0          0         -1      )

 cart.    s( 3) = ( -1.0000000  0.0000000  0.0000000 )
                  (  0.0000000  1.0000000  0.0000000 )
                  (  0.0000000  0.0000000 -1.0000000 )


      isym =  4     180 deg rotation - cart. axis [1,0,0]        

 cryst.   s( 4) = (     1          0          0      )
                  (     0         -1          0      )
                  (     0          0         -1      )

 cart.    s( 4) = (  1.0000000  0.0000000  0.0000000 )
                  (  0.0000000 -1.0000000  0.0000000 )
                  (  0.0000000  0.0000000 -1.0000000 )


      isym =  5     180 deg rotation - cart. axis [1,1,0]        

 cryst.   s( 5) = (     0          1          0      )
                  (     1          0          0      )
                  (     0          0         -1      )

 cart.    s( 5) = (  0.0000000  1.0000000  0.0000000 )
                  (  1.0000000  0.0000000  0.0000000 )
                  (  0.0000000  0.0000000 -1.0000000 )


      isym =  6     180 deg rotation - cart. axis [1,-1,0]       

 cryst.   s( 6) = (     0         -1          0      )
                  (    -1          0          0      )
                  (     0          0         -1      )

 cart.    s( 6) = (  0.0000000 -1.0000000  0.0000000 )
                  ( -1.0000000  0.0000000  0.0000000 )
                  (  0.0000000  0.0000000 -1.0000000 )


      isym =  7      90 deg rotation - cart. axis [0,0,-1]       

 cryst.   s( 7) = (     0         -1          0      )
                  (     1          0          0      )
                  (     0          0          1      )

 cart.    s( 7) = (  0.0000000  1.0000000  0.0000000 )
                  ( -1.0000000  0.0000000  0.0000000 )
                  (  0.0000000  0.0000000  1.0000000 )


      isym =  8      90 deg rotation - cart. axis [0,0,1]        

 cryst.   s( 8) = (     0          1          0      )
                  (    -1          0          0      )
                  (     0          0          1      )

 cart.    s( 8) = (  0.0000000 -1.0000000  0.0000000 )
                  (  1.0000000  0.0000000  0.0000000 )
                  (  0.0000000  0.0000000  1.0000000 )


      isym =  9     inversion                                    

 cryst.   s( 9) = (    -1          0          0      )
                  (     0         -1          0      )
                  (     0          0         -1      )

 cart.    s( 9) = ( -1.0000000  0.0000000  0.0000000 )
                  (  0.0000000 -1.0000000  0.0000000 )
                  (  0.0000000  0.0000000 -1.0000000 )


      isym = 10     inv. 180 deg rotation - cart. axis [0,0,1]   

 cryst.   s(10) = (     1          0          0      )
                  (     0          1          0      )
                  (     0          0         -1      )

 cart.    s(10) = (  1.0000000  0.0000000  0.0000000 )
                  (  0.0000000  1.0000000  0.0000000 )
                  (  0.0000000  0.0000000 -1.0000000 )


      isym = 11     inv. 180 deg rotation - cart. axis [0,1,0]   

 cryst.   s(11) = (     1          0          0      )
                  (     0         -1          0      )
                  (     0          0          1      )

 cart.    s(11) = (  1.0000000  0.0000000  0.0000000 )
                  (  0.0000000 -1.0000000  0.0000000 )
                  (  0.0000000  0.0000000  1.0000000 )


      isym = 12     inv. 180 deg rotation - cart. axis [1,0,0]   

 cryst.   s(12) = (    -1          0          0      )
                  (     0          1          0      )
                  (     0          0          1      )

 cart.    s(12) = ( -1.0000000  0.0000000  0.0000000 )
                  (  0.0000000  1.0000000  0.0000000 )
                  (  0.0000000  0.0000000  1.0000000 )


      isym = 13     inv. 180 deg rotation - cart. axis [1,1,0]   

 cryst.   s(13) = (     0         -1          0      )
                  (    -1          0          0      )
                  (     0          0          1      )

 cart.    s(13) = (  0.0000000 -1.0000000  0.0000000 )
                  ( -1.0000000  0.0000000  0.0000000 )
                  (  0.0000000  0.0000000  1.0000000 )


      isym = 14     inv. 180 deg rotation - cart. axis [1,-1,0]  

 cryst.   s(14) = (     0          1          0      )
                  (     1          0          0      )
                  (     0          0          1      )

 cart.    s(14) = (  0.0000000  1.0000000  0.0000000 )
                  (  1.0000000  0.0000000  0.0000000 )
                  (  0.0000000  0.0000000  1.0000000 )


      isym = 15     inv.  90 deg rotation - cart. axis [0,0,-1]  

 cryst.   s(15) = (     0          1          0      )
                  (    -1          0          0      )
                  (     0          0         -1      )

 cart.    s(15) = (  0.0000000 -1.0000000  0.0000000 )
                  (  1.0000000  0.0000000  0.0000000 )
                  (  0.0000000  0.0000000 -1.0000000 )


      isym = 16     inv.  90 deg rotation - cart. axis [0,0,1]   

 cryst.   s(16) = (     0         -1          0      )
                  (     1          0          0      )
                  (     0          0         -1      )

 cart.    s(16) = (  0.0000000  1.0000000  0.0000000 )
                  ( -1.0000000  0.0000000  0.0000000 )
                  (  0.0000000  0.0000000 -1.0000000 )


   Cartesian axes

     site n.     atom                  positions (alat units)
         1           Al  tau(   1) = (   0.0000000   0.0000000   0.0000000  )
         2           Al  tau(   2) = (   0.5000000   0.5000000   0.0000000  )
         3           Al  tau(   3) = (   0.5000000   0.0000000   0.4691691  )
         4           Al  tau(   4) = (   0.0000000   0.5000000   0.4691691  )

   Crystallographic axes

     site n.     atom                  positions (cryst. coord.)
         1           Al  tau(   1) = (  0.0000000  0.0000000  0.0000000  )
         2           Al  tau(   2) = (  0.5000000  0.5000000  0.0000000  )
         3           Al  tau(   3) = (  0.5000000  0.0000000  0.5000000  )
         4           Al  tau(   4) = (  0.0000000  0.5000000  0.5000000  )

     number of k points=   550  Marzari-Vanderbilt smearing, width (Ry)=  0.0100
                       cart. coord. in units 2pi/alat
        k(    1) = (   0.0000000   0.0000000   0.0000000), wk =   0.0003249
        k(    2) = (   0.0000000   0.0000000   0.0560902), wk =   0.0006498
        k(    3) = (   0.0000000   0.0000000   0.1121804), wk =   0.0006498
        k(    4) = (   0.0000000   0.0000000   0.1682706), wk =   0.0006498
        k(    5) = (   0.0000000   0.0000000   0.2243608), wk =   0.0006498
        k(    6) = (   0.0000000   0.0000000   0.2804510), wk =   0.0006498
        k(    7) = (   0.0000000   0.0000000   0.3365412), wk =   0.0006498
        k(    8) = (   0.0000000   0.0000000   0.3926314), wk =   0.0006498
        k(    9) = (   0.0000000   0.0000000   0.4487217), wk =   0.0006498
        k(   10) = (   0.0000000   0.0000000   0.5048119), wk =   0.0006498
        k(   11) = (   0.0000000   0.0555556   0.0000000), wk =   0.0012995
        k(   12) = (   0.0000000   0.0555556   0.0560902), wk =   0.0025991
        k(   13) = (   0.0000000   0.0555556   0.1121804), wk =   0.0025991
        k(   14) = (   0.0000000   0.0555556   0.1682706), wk =   0.0025991
        k(   15) = (   0.0000000   0.0555556   0.2243608), wk =   0.0025991
        k(   16) = (   0.0000000   0.0555556   0.2804510), wk =   0.0025991
        k(   17) = (   0.0000000   0.0555556   0.3365412), wk =   0.0025991
        k(   18) = (   0.0000000   0.0555556   0.3926314), wk =   0.0025991
        k(   19) = (   0.0000000   0.0555556   0.4487217), wk =   0.0025991
        k(   20) = (   0.0000000   0.0555556   0.5048119), wk =   0.0025991
        k(   21) = (   0.0000000   0.1111111   0.0000000), wk =   0.0012995
        k(   22) = (   0.0000000   0.1111111   0.0560902), wk =   0.0025991
        k(   23) = (   0.0000000   0.1111111   0.1121804), wk =   0.0025991
        k(   24) = (   0.0000000   0.1111111   0.1682706), wk =   0.0025991
        k(   25) = (   0.0000000   0.1111111   0.2243608), wk =   0.0025991
        k(   26) = (   0.0000000   0.1111111   0.2804510), wk =   0.0025991
        k(   27) = (   0.0000000   0.1111111   0.3365412), wk =   0.0025991
        k(   28) = (   0.0000000   0.1111111   0.3926314), wk =   0.0025991
        k(   29) = (   0.0000000   0.1111111   0.4487217), wk =   0.0025991
        k(   30) = (   0.0000000   0.1111111   0.5048119), wk =   0.0025991
        k(   31) = (   0.0000000   0.1666667   0.0000000), wk =   0.0012995
        k(   32) = (   0.0000000   0.1666667   0.0560902), wk =   0.0025991
        k(   33) = (   0.0000000   0.1666667   0.1121804), wk =   0.0025991
        k(   34) = (   0.0000000   0.1666667   0.1682706), wk =   0.0025991
        k(   35) = (   0.0000000   0.1666667   0.2243608), wk =   0.0025991
        k(   36) = (   0.0000000   0.1666667   0.2804510), wk =   0.0025991
        k(   37) = (   0.0000000   0.1666667   0.3365412), wk =   0.0025991
        k(   38) = (   0.0000000   0.1666667   0.3926314), wk =   0.0025991
        k(   39) = (   0.0000000   0.1666667   0.4487217), wk =   0.0025991
        k(   40) = (   0.0000000   0.1666667   0.5048119), wk =   0.0025991
        k(   41) = (   0.0000000   0.2222222   0.0000000), wk =   0.0012995
        k(   42) = (   0.0000000   0.2222222   0.0560902), wk =   0.0025991
        k(   43) = (   0.0000000   0.2222222   0.1121804), wk =   0.0025991
        k(   44) = (   0.0000000   0.2222222   0.1682706), wk =   0.0025991
        k(   45) = (   0.0000000   0.2222222   0.2243608), wk =   0.0025991
        k(   46) = (   0.0000000   0.2222222   0.2804510), wk =   0.0025991
        k(   47) = (   0.0000000   0.2222222   0.3365412), wk =   0.0025991
        k(   48) = (   0.0000000   0.2222222   0.3926314), wk =   0.0025991
        k(   49) = (   0.0000000   0.2222222   0.4487217), wk =   0.0025991
        k(   50) = (   0.0000000   0.2222222   0.5048119), wk =   0.0025991
        k(   51) = (   0.0000000   0.2777778   0.0000000), wk =   0.0012995
        k(   52) = (   0.0000000   0.2777778   0.0560902), wk =   0.0025991
        k(   53) = (   0.0000000   0.2777778   0.1121804), wk =   0.0025991
        k(   54) = (   0.0000000   0.2777778   0.1682706), wk =   0.0025991
        k(   55) = (   0.0000000   0.2777778   0.2243608), wk =   0.0025991
        k(   56) = (   0.0000000   0.2777778   0.2804510), wk =   0.0025991
        k(   57) = (   0.0000000   0.2777778   0.3365412), wk =   0.0025991
        k(   58) = (   0.0000000   0.2777778   0.3926314), wk =   0.0025991
        k(   59) = (   0.0000000   0.2777778   0.4487217), wk =   0.0025991
        k(   60) = (   0.0000000   0.2777778   0.5048119), wk =   0.0025991
        k(   61) = (   0.0000000   0.3333333   0.0000000), wk =   0.0012995
        k(   62) = (   0.0000000   0.3333333   0.0560902), wk =   0.0025991
        k(   63) = (   0.0000000   0.3333333   0.1121804), wk =   0.0025991
        k(   64) = (   0.0000000   0.3333333   0.1682706), wk =   0.0025991
        k(   65) = (   0.0000000   0.3333333   0.2243608), wk =   0.0025991
        k(   66) = (   0.0000000   0.3333333   0.2804510), wk =   0.0025991
        k(   67) = (   0.0000000   0.3333333   0.3365412), wk =   0.0025991
        k(   68) = (   0.0000000   0.3333333   0.3926314), wk =   0.0025991
        k(   69) = (   0.0000000   0.3333333   0.4487217), wk =   0.0025991
        k(   70) = (   0.0000000   0.3333333   0.5048119), wk =   0.0025991
        k(   71) = (   0.0000000   0.3888889   0.0000000), wk =   0.0012995
        k(   72) = (   0.0000000   0.3888889   0.0560902), wk =   0.0025991
        k(   73) = (   0.0000000   0.3888889   0.1121804), wk =   0.0025991
        k(   74) = (   0.0000000   0.3888889   0.1682706), wk =   0.0025991
        k(   75) = (   0.0000000   0.3888889   0.2243608), wk =   0.0025991
        k(   76) = (   0.0000000   0.3888889   0.2804510), wk =   0.0025991
        k(   77) = (   0.0000000   0.3888889   0.3365412), wk =   0.0025991
        k(   78) = (   0.0000000   0.3888889   0.3926314), wk =   0.0025991
        k(   79) = (   0.0000000   0.3888889   0.4487217), wk =   0.0025991
        k(   80) = (   0.0000000   0.3888889   0.5048119), wk =   0.0025991
        k(   81) = (   0.0000000   0.4444444   0.0000000), wk =   0.0012995
        k(   82) = (   0.0000000   0.4444444   0.0560902), wk =   0.0025991
        k(   83) = (   0.0000000   0.4444444   0.1121804), wk =   0.0025991
        k(   84) = (   0.0000000   0.4444444   0.1682706), wk =   0.0025991
        k(   85) = (   0.0000000   0.4444444   0.2243608), wk =   0.0025991
        k(   86) = (   0.0000000   0.4444444   0.2804510), wk =   0.0025991
        k(   87) = (   0.0000000   0.4444444   0.3365412), wk =   0.0025991
        k(   88) = (   0.0000000   0.4444444   0.3926314), wk =   0.0025991
        k(   89) = (   0.0000000   0.4444444   0.4487217), wk =   0.0025991
        k(   90) = (   0.0000000   0.4444444   0.5048119), wk =   0.0025991
        k(   91) = (   0.0000000  -0.5000000   0.0000000), wk =   0.0006498
        k(   92) = (   0.0000000  -0.5000000   0.0560902), wk =   0.0012995
        k(   93) = (   0.0000000  -0.5000000   0.1121804), wk =   0.0012995
        k(   94) = (   0.0000000  -0.5000000   0.1682706), wk =   0.0012995
        k(   95) = (   0.0000000  -0.5000000   0.2243608), wk =   0.0012995
        k(   96) = (   0.0000000  -0.5000000   0.2804510), wk =   0.0012995
        k(   97) = (   0.0000000  -0.5000000   0.3365412), wk =   0.0012995
        k(   98) = (   0.0000000  -0.5000000   0.3926314), wk =   0.0012995
        k(   99) = (   0.0000000  -0.5000000   0.4487217), wk =   0.0012995
        k(  100) = (   0.0000000  -0.5000000   0.5048119), wk =   0.0012995
        k(  101) = (   0.0555556   0.0555556   0.0000000), wk =   0.0012995
        k(  102) = (   0.0555556   0.0555556   0.0560902), wk =   0.0025991
        k(  103) = (   0.0555556   0.0555556   0.1121804), wk =   0.0025991
        k(  104) = (   0.0555556   0.0555556   0.1682706), wk =   0.0025991
        k(  105) = (   0.0555556   0.0555556   0.2243608), wk =   0.0025991
        k(  106) = (   0.0555556   0.0555556   0.2804510), wk =   0.0025991
        k(  107) = (   0.0555556   0.0555556   0.3365412), wk =   0.0025991
        k(  108) = (   0.0555556   0.0555556   0.3926314), wk =   0.0025991
        k(  109) = (   0.0555556   0.0555556   0.4487217), wk =   0.0025991
        k(  110) = (   0.0555556   0.0555556   0.5048119), wk =   0.0025991
        k(  111) = (   0.0555556   0.1111111   0.0000000), wk =   0.0025991
        k(  112) = (   0.0555556   0.1111111   0.0560902), wk =   0.0051982
        k(  113) = (   0.0555556   0.1111111   0.1121804), wk =   0.0051982
        k(  114) = (   0.0555556   0.1111111   0.1682706), wk =   0.0051982
        k(  115) = (   0.0555556   0.1111111   0.2243608), wk =   0.0051982
        k(  116) = (   0.0555556   0.1111111   0.2804510), wk =   0.0051982
        k(  117) = (   0.0555556   0.1111111   0.3365412), wk =   0.0051982
        k(  118) = (   0.0555556   0.1111111   0.3926314), wk =   0.0051982
        k(  119) = (   0.0555556   0.1111111   0.4487217), wk =   0.0051982
        k(  120) = (   0.0555556   0.1111111   0.5048119), wk =   0.0051982
        k(  121) = (   0.0555556   0.1666667   0.0000000), wk =   0.0025991
        k(  122) = (   0.0555556   0.1666667   0.0560902), wk =   0.0051982
        k(  123) = (   0.0555556   0.1666667   0.1121804), wk =   0.0051982
        k(  124) = (   0.0555556   0.1666667   0.1682706), wk =   0.0051982
        k(  125) = (   0.0555556   0.1666667   0.2243608), wk =   0.0051982
        k(  126) = (   0.0555556   0.1666667   0.2804510), wk =   0.0051982
        k(  127) = (   0.0555556   0.1666667   0.3365412), wk =   0.0051982
        k(  128) = (   0.0555556   0.1666667   0.3926314), wk =   0.0051982
        k(  129) = (   0.0555556   0.1666667   0.4487217), wk =   0.0051982
        k(  130) = (   0.0555556   0.1666667   0.5048119), wk =   0.0051982
        k(  131) = (   0.0555556   0.2222222   0.0000000), wk =   0.0025991
        k(  132) = (   0.0555556   0.2222222   0.0560902), wk =   0.0051982
        k(  133) = (   0.0555556   0.2222222   0.1121804), wk =   0.0051982
        k(  134) = (   0.0555556   0.2222222   0.1682706), wk =   0.0051982
        k(  135) = (   0.0555556   0.2222222   0.2243608), wk =   0.0051982
        k(  136) = (   0.0555556   0.2222222   0.2804510), wk =   0.0051982
        k(  137) = (   0.0555556   0.2222222   0.3365412), wk =   0.0051982
        k(  138) = (   0.0555556   0.2222222   0.3926314), wk =   0.0051982
        k(  139) = (   0.0555556   0.2222222   0.4487217), wk =   0.0051982
        k(  140) = (   0.0555556   0.2222222   0.5048119), wk =   0.0051982
        k(  141) = (   0.0555556   0.2777778   0.0000000), wk =   0.0025991
        k(  142) = (   0.0555556   0.2777778   0.0560902), wk =   0.0051982
        k(  143) = (   0.0555556   0.2777778   0.1121804), wk =   0.0051982
        k(  144) = (   0.0555556   0.2777778   0.1682706), wk =   0.0051982
        k(  145) = (   0.0555556   0.2777778   0.2243608), wk =   0.0051982
        k(  146) = (   0.0555556   0.2777778   0.2804510), wk =   0.0051982
        k(  147) = (   0.0555556   0.2777778   0.3365412), wk =   0.0051982
        k(  148) = (   0.0555556   0.2777778   0.3926314), wk =   0.0051982
        k(  149) = (   0.0555556   0.2777778   0.4487217), wk =   0.0051982
        k(  150) = (   0.0555556   0.2777778   0.5048119), wk =   0.0051982
        k(  151) = (   0.0555556   0.3333333   0.0000000), wk =   0.0025991
        k(  152) = (   0.0555556   0.3333333   0.0560902), wk =   0.0051982
        k(  153) = (   0.0555556   0.3333333   0.1121804), wk =   0.0051982
        k(  154) = (   0.0555556   0.3333333   0.1682706), wk =   0.0051982
        k(  155) = (   0.0555556   0.3333333   0.2243608), wk =   0.0051982
        k(  156) = (   0.0555556   0.3333333   0.2804510), wk =   0.0051982
        k(  157) = (   0.0555556   0.3333333   0.3365412), wk =   0.0051982
        k(  158) = (   0.0555556   0.3333333   0.3926314), wk =   0.0051982
        k(  159) = (   0.0555556   0.3333333   0.4487217), wk =   0.0051982
        k(  160) = (   0.0555556   0.3333333   0.5048119), wk =   0.0051982
        k(  161) = (   0.0555556   0.3888889   0.0000000), wk =   0.0025991
        k(  162) = (   0.0555556   0.3888889   0.0560902), wk =   0.0051982
        k(  163) = (   0.0555556   0.3888889   0.1121804), wk =   0.0051982
        k(  164) = (   0.0555556   0.3888889   0.1682706), wk =   0.0051982
        k(  165) = (   0.0555556   0.3888889   0.2243608), wk =   0.0051982
        k(  166) = (   0.0555556   0.3888889   0.2804510), wk =   0.0051982
        k(  167) = (   0.0555556   0.3888889   0.3365412), wk =   0.0051982
        k(  168) = (   0.0555556   0.3888889   0.3926314), wk =   0.0051982
        k(  169) = (   0.0555556   0.3888889   0.4487217), wk =   0.0051982
        k(  170) = (   0.0555556   0.3888889   0.5048119), wk =   0.0051982
        k(  171) = (   0.0555556   0.4444444   0.0000000), wk =   0.0025991
        k(  172) = (   0.0555556   0.4444444   0.0560902), wk =   0.0051982
        k(  173) = (   0.0555556   0.4444444   0.1121804), wk =   0.0051982
        k(  174) = (   0.0555556   0.4444444   0.1682706), wk =   0.0051982
        k(  175) = (   0.0555556   0.4444444   0.2243608), wk =   0.0051982
        k(  176) = (   0.0555556   0.4444444   0.2804510), wk =   0.0051982
        k(  177) = (   0.0555556   0.4444444   0.3365412), wk =   0.0051982
        k(  178) = (   0.0555556   0.4444444   0.3926314), wk =   0.0051982
        k(  179) = (   0.0555556   0.4444444   0.4487217), wk =   0.0051982
        k(  180) = (   0.0555556   0.4444444   0.5048119), wk =   0.0051982
        k(  181) = (   0.0555556  -0.5000000   0.0000000), wk =   0.0012995
        k(  182) = (   0.0555556  -0.5000000   0.0560902), wk =   0.0025991
        k(  183) = (   0.0555556  -0.5000000   0.1121804), wk =   0.0025991
        k(  184) = (   0.0555556  -0.5000000   0.1682706), wk =   0.0025991
        k(  185) = (   0.0555556  -0.5000000   0.2243608), wk =   0.0025991
        k(  186) = (   0.0555556  -0.5000000   0.2804510), wk =   0.0025991
        k(  187) = (   0.0555556  -0.5000000   0.3365412), wk =   0.0025991
        k(  188) = (   0.0555556  -0.5000000   0.3926314), wk =   0.0025991
        k(  189) = (   0.0555556  -0.5000000   0.4487217), wk =   0.0025991
        k(  190) = (   0.0555556  -0.5000000   0.5048119), wk =   0.0025991
        k(  191) = (   0.1111111   0.1111111   0.0000000), wk =   0.0012995
        k(  192) = (   0.1111111   0.1111111   0.0560902), wk =   0.0025991
        k(  193) = (   0.1111111   0.1111111   0.1121804), wk =   0.0025991
        k(  194) = (   0.1111111   0.1111111   0.1682706), wk =   0.0025991
        k(  195) = (   0.1111111   0.1111111   0.2243608), wk =   0.0025991
        k(  196) = (   0.1111111   0.1111111   0.2804510), wk =   0.0025991
        k(  197) = (   0.1111111   0.1111111   0.3365412), wk =   0.0025991
        k(  198) = (   0.1111111   0.1111111   0.3926314), wk =   0.0025991
        k(  199) = (   0.1111111   0.1111111   0.4487217), wk =   0.0025991
        k(  200) = (   0.1111111   0.1111111   0.5048119), wk =   0.0025991
        k(  201) = (   0.1111111   0.1666667   0.0000000), wk =   0.0025991
        k(  202) = (   0.1111111   0.1666667   0.0560902), wk =   0.0051982
        k(  203) = (   0.1111111   0.1666667   0.1121804), wk =   0.0051982
        k(  204) = (   0.1111111   0.1666667   0.1682706), wk =   0.0051982
        k(  205) = (   0.1111111   0.1666667   0.2243608), wk =   0.0051982
        k(  206) = (   0.1111111   0.1666667   0.2804510), wk =   0.0051982
        k(  207) = (   0.1111111   0.1666667   0.3365412), wk =   0.0051982
        k(  208) = (   0.1111111   0.1666667   0.3926314), wk =   0.0051982
        k(  209) = (   0.1111111   0.1666667   0.4487217), wk =   0.0051982
        k(  210) = (   0.1111111   0.1666667   0.5048119), wk =   0.0051982
        k(  211) = (   0.1111111   0.2222222   0.0000000), wk =   0.0025991
        k(  212) = (   0.1111111   0.2222222   0.0560902), wk =   0.0051982
        k(  213) = (   0.1111111   0.2222222   0.1121804), wk =   0.0051982
        k(  214) = (   0.1111111   0.2222222   0.1682706), wk =   0.0051982
        k(  215) = (   0.1111111   0.2222222   0.2243608), wk =   0.0051982
        k(  216) = (   0.1111111   0.2222222   0.2804510), wk =   0.0051982
        k(  217) = (   0.1111111   0.2222222   0.3365412), wk =   0.0051982
        k(  218) = (   0.1111111   0.2222222   0.3926314), wk =   0.0051982
        k(  219) = (   0.1111111   0.2222222   0.4487217), wk =   0.0051982
        k(  220) = (   0.1111111   0.2222222   0.5048119), wk =   0.0051982
        k(  221) = (   0.1111111   0.2777778   0.0000000), wk =   0.0025991
        k(  222) = (   0.1111111   0.2777778   0.0560902), wk =   0.0051982
        k(  223) = (   0.1111111   0.2777778   0.1121804), wk =   0.0051982
        k(  224) = (   0.1111111   0.2777778   0.1682706), wk =   0.0051982
        k(  225) = (   0.1111111   0.2777778   0.2243608), wk =   0.0051982
        k(  226) = (   0.1111111   0.2777778   0.2804510), wk =   0.0051982
        k(  227) = (   0.1111111   0.2777778   0.3365412), wk =   0.0051982
        k(  228) = (   0.1111111   0.2777778   0.3926314), wk =   0.0051982
        k(  229) = (   0.1111111   0.2777778   0.4487217), wk =   0.0051982
        k(  230) = (   0.1111111   0.2777778   0.5048119), wk =   0.0051982
        k(  231) = (   0.1111111   0.3333333   0.0000000), wk =   0.0025991
        k(  232) = (   0.1111111   0.3333333   0.0560902), wk =   0.0051982
        k(  233) = (   0.1111111   0.3333333   0.1121804), wk =   0.0051982
        k(  234) = (   0.1111111   0.3333333   0.1682706), wk =   0.0051982
        k(  235) = (   0.1111111   0.3333333   0.2243608), wk =   0.0051982
        k(  236) = (   0.1111111   0.3333333   0.2804510), wk =   0.0051982
        k(  237) = (   0.1111111   0.3333333   0.3365412), wk =   0.0051982
        k(  238) = (   0.1111111   0.3333333   0.3926314), wk =   0.0051982
        k(  239) = (   0.1111111   0.3333333   0.4487217), wk =   0.0051982
        k(  240) = (   0.1111111   0.3333333   0.5048119), wk =   0.0051982
        k(  241) = (   0.1111111   0.3888889   0.0000000), wk =   0.0025991
        k(  242) = (   0.1111111   0.3888889   0.0560902), wk =   0.0051982
        k(  243) = (   0.1111111   0.3888889   0.1121804), wk =   0.0051982
        k(  244) = (   0.1111111   0.3888889   0.1682706), wk =   0.0051982
        k(  245) = (   0.1111111   0.3888889   0.2243608), wk =   0.0051982
        k(  246) = (   0.1111111   0.3888889   0.2804510), wk =   0.0051982
        k(  247) = (   0.1111111   0.3888889   0.3365412), wk =   0.0051982
        k(  248) = (   0.1111111   0.3888889   0.3926314), wk =   0.0051982
        k(  249) = (   0.1111111   0.3888889   0.4487217), wk =   0.0051982
        k(  250) = (   0.1111111   0.3888889   0.5048119), wk =   0.0051982
        k(  251) = (   0.1111111   0.4444444   0.0000000), wk =   0.0025991
        k(  252) = (   0.1111111   0.4444444   0.0560902), wk =   0.0051982
        k(  253) = (   0.1111111   0.4444444   0.1121804), wk =   0.0051982
        k(  254) = (   0.1111111   0.4444444   0.1682706), wk =   0.0051982
        k(  255) = (   0.1111111   0.4444444   0.2243608), wk =   0.0051982
        k(  256) = (   0.1111111   0.4444444   0.2804510), wk =   0.0051982
        k(  257) = (   0.1111111   0.4444444   0.3365412), wk =   0.0051982
        k(  258) = (   0.1111111   0.4444444   0.3926314), wk =   0.0051982
        k(  259) = (   0.1111111   0.4444444   0.4487217), wk =   0.0051982
        k(  260) = (   0.1111111   0.4444444   0.5048119), wk =   0.0051982
        k(  261) = (   0.1111111  -0.5000000   0.0000000), wk =   0.0012995
        k(  262) = (   0.1111111  -0.5000000   0.0560902), wk =   0.0025991
        k(  263) = (   0.1111111  -0.5000000   0.1121804), wk =   0.0025991
        k(  264) = (   0.1111111  -0.5000000   0.1682706), wk =   0.0025991
        k(  265) = (   0.1111111  -0.5000000   0.2243608), wk =   0.0025991
        k(  266) = (   0.1111111  -0.5000000   0.2804510), wk =   0.0025991
        k(  267) = (   0.1111111  -0.5000000   0.3365412), wk =   0.0025991
        k(  268) = (   0.1111111  -0.5000000   0.3926314), wk =   0.0025991
        k(  269) = (   0.1111111  -0.5000000   0.4487217), wk =   0.0025991
        k(  270) = (   0.1111111  -0.5000000   0.5048119), wk =   0.0025991
        k(  271) = (   0.1666667   0.1666667   0.0000000), wk =   0.0012995
        k(  272) = (   0.1666667   0.1666667   0.0560902), wk =   0.0025991
        k(  273) = (   0.1666667   0.1666667   0.1121804), wk =   0.0025991
        k(  274) = (   0.1666667   0.1666667   0.1682706), wk =   0.0025991
        k(  275) = (   0.1666667   0.1666667   0.2243608), wk =   0.0025991
        k(  276) = (   0.1666667   0.1666667   0.2804510), wk =   0.0025991
        k(  277) = (   0.1666667   0.1666667   0.3365412), wk =   0.0025991
        k(  278) = (   0.1666667   0.1666667   0.3926314), wk =   0.0025991
        k(  279) = (   0.1666667   0.1666667   0.4487217), wk =   0.0025991
        k(  280) = (   0.1666667   0.1666667   0.5048119), wk =   0.0025991
        k(  281) = (   0.1666667   0.2222222   0.0000000), wk =   0.0025991
        k(  282) = (   0.1666667   0.2222222   0.0560902), wk =   0.0051982
        k(  283) = (   0.1666667   0.2222222   0.1121804), wk =   0.0051982
        k(  284) = (   0.1666667   0.2222222   0.1682706), wk =   0.0051982
        k(  285) = (   0.1666667   0.2222222   0.2243608), wk =   0.0051982
        k(  286) = (   0.1666667   0.2222222   0.2804510), wk =   0.0051982
        k(  287) = (   0.1666667   0.2222222   0.3365412), wk =   0.0051982
        k(  288) = (   0.1666667   0.2222222   0.3926314), wk =   0.0051982
        k(  289) = (   0.1666667   0.2222222   0.4487217), wk =   0.0051982
        k(  290) = (   0.1666667   0.2222222   0.5048119), wk =   0.0051982
        k(  291) = (   0.1666667   0.2777778   0.0000000), wk =   0.0025991
        k(  292) = (   0.1666667   0.2777778   0.0560902), wk =   0.0051982
        k(  293) = (   0.1666667   0.2777778   0.1121804), wk =   0.0051982
        k(  294) = (   0.1666667   0.2777778   0.1682706), wk =   0.0051982
        k(  295) = (   0.1666667   0.2777778   0.2243608), wk =   0.0051982
        k(  296) = (   0.1666667   0.2777778   0.2804510), wk =   0.0051982
        k(  297) = (   0.1666667   0.2777778   0.3365412), wk =   0.0051982
        k(  298) = (   0.1666667   0.2777778   0.3926314), wk =   0.0051982
        k(  299) = (   0.1666667   0.2777778   0.4487217), wk =   0.0051982
        k(  300) = (   0.1666667   0.2777778   0.5048119), wk =   0.0051982
        k(  301) = (   0.1666667   0.3333333   0.0000000), wk =   0.0025991
        k(  302) = (   0.1666667   0.3333333   0.0560902), wk =   0.0051982
        k(  303) = (   0.1666667   0.3333333   0.1121804), wk =   0.0051982
        k(  304) = (   0.1666667   0.3333333   0.1682706), wk =   0.0051982
        k(  305) = (   0.1666667   0.3333333   0.2243608), wk =   0.0051982
        k(  306) = (   0.1666667   0.3333333   0.2804510), wk =   0.0051982
        k(  307) = (   0.1666667   0.3333333   0.3365412), wk =   0.0051982
        k(  308) = (   0.1666667   0.3333333   0.3926314), wk =   0.0051982
        k(  309) = (   0.1666667   0.3333333   0.4487217), wk =   0.0051982
        k(  310) = (   0.1666667   0.3333333   0.5048119), wk =   0.0051982
        k(  311) = (   0.1666667   0.3888889   0.0000000), wk =   0.0025991
        k(  312) = (   0.1666667   0.3888889   0.0560902), wk =   0.0051982
        k(  313) = (   0.1666667   0.3888889   0.1121804), wk =   0.0051982
        k(  314) = (   0.1666667   0.3888889   0.1682706), wk =   0.0051982
        k(  315) = (   0.1666667   0.3888889   0.2243608), wk =   0.0051982
        k(  316) = (   0.1666667   0.3888889   0.2804510), wk =   0.0051982
        k(  317) = (   0.1666667   0.3888889   0.3365412), wk =   0.0051982
        k(  318) = (   0.1666667   0.3888889   0.3926314), wk =   0.0051982
        k(  319) = (   0.1666667   0.3888889   0.4487217), wk =   0.0051982
        k(  320) = (   0.1666667   0.3888889   0.5048119), wk =   0.0051982
        k(  321) = (   0.1666667   0.4444444   0.0000000), wk =   0.0025991
        k(  322) = (   0.1666667   0.4444444   0.0560902), wk =   0.0051982
        k(  323) = (   0.1666667   0.4444444   0.1121804), wk =   0.0051982
        k(  324) = (   0.1666667   0.4444444   0.1682706), wk =   0.0051982
        k(  325) = (   0.1666667   0.4444444   0.2243608), wk =   0.0051982
        k(  326) = (   0.1666667   0.4444444   0.2804510), wk =   0.0051982
        k(  327) = (   0.1666667   0.4444444   0.3365412), wk =   0.0051982
        k(  328) = (   0.1666667   0.4444444   0.3926314), wk =   0.0051982
        k(  329) = (   0.1666667   0.4444444   0.4487217), wk =   0.0051982
        k(  330) = (   0.1666667   0.4444444   0.5048119), wk =   0.0051982
        k(  331) = (   0.1666667  -0.5000000   0.0000000), wk =   0.0012995
        k(  332) = (   0.1666667  -0.5000000   0.0560902), wk =   0.0025991
        k(  333) = (   0.1666667  -0.5000000   0.1121804), wk =   0.0025991
        k(  334) = (   0.1666667  -0.5000000   0.1682706), wk =   0.0025991
        k(  335) = (   0.1666667  -0.5000000   0.2243608), wk =   0.0025991
        k(  336) = (   0.1666667  -0.5000000   0.2804510), wk =   0.0025991
        k(  337) = (   0.1666667  -0.5000000   0.3365412), wk =   0.0025991
        k(  338) = (   0.1666667  -0.5000000   0.3926314), wk =   0.0025991
        k(  339) = (   0.1666667  -0.5000000   0.4487217), wk =   0.0025991
        k(  340) = (   0.1666667  -0.5000000   0.5048119), wk =   0.0025991
        k(  341) = (   0.2222222   0.2222222   0.0000000), wk =   0.0012995
        k(  342) = (   0.2222222   0.2222222   0.0560902), wk =   0.0025991
        k(  343) = (   0.2222222   0.2222222   0.1121804), wk =   0.0025991
        k(  344) = (   0.2222222   0.2222222   0.1682706), wk =   0.0025991
        k(  345) = (   0.2222222   0.2222222   0.2243608), wk =   0.0025991
        k(  346) = (   0.2222222   0.2222222   0.2804510), wk =   0.0025991
        k(  347) = (   0.2222222   0.2222222   0.3365412), wk =   0.0025991
        k(  348) = (   0.2222222   0.2222222   0.3926314), wk =   0.0025991
        k(  349) = (   0.2222222   0.2222222   0.4487217), wk =   0.0025991
        k(  350) = (   0.2222222   0.2222222   0.5048119), wk =   0.0025991
        k(  351) = (   0.2222222   0.2777778   0.0000000), wk =   0.0025991
        k(  352) = (   0.2222222   0.2777778   0.0560902), wk =   0.0051982
        k(  353) = (   0.2222222   0.2777778   0.1121804), wk =   0.0051982
        k(  354) = (   0.2222222   0.2777778   0.1682706), wk =   0.0051982
        k(  355) = (   0.2222222   0.2777778   0.2243608), wk =   0.0051982
        k(  356) = (   0.2222222   0.2777778   0.2804510), wk =   0.0051982
        k(  357) = (   0.2222222   0.2777778   0.3365412), wk =   0.0051982
        k(  358) = (   0.2222222   0.2777778   0.3926314), wk =   0.0051982
        k(  359) = (   0.2222222   0.2777778   0.4487217), wk =   0.0051982
        k(  360) = (   0.2222222   0.2777778   0.5048119), wk =   0.0051982
        k(  361) = (   0.2222222   0.3333333   0.0000000), wk =   0.0025991
        k(  362) = (   0.2222222   0.3333333   0.0560902), wk =   0.0051982
        k(  363) = (   0.2222222   0.3333333   0.1121804), wk =   0.0051982
        k(  364) = (   0.2222222   0.3333333   0.1682706), wk =   0.0051982
        k(  365) = (   0.2222222   0.3333333   0.2243608), wk =   0.0051982
        k(  366) = (   0.2222222   0.3333333   0.2804510), wk =   0.0051982
        k(  367) = (   0.2222222   0.3333333   0.3365412), wk =   0.0051982
        k(  368) = (   0.2222222   0.3333333   0.3926314), wk =   0.0051982
        k(  369) = (   0.2222222   0.3333333   0.4487217), wk =   0.0051982
        k(  370) = (   0.2222222   0.3333333   0.5048119), wk =   0.0051982
        k(  371) = (   0.2222222   0.3888889   0.0000000), wk =   0.0025991
        k(  372) = (   0.2222222   0.3888889   0.0560902), wk =   0.0051982
        k(  373) = (   0.2222222   0.3888889   0.1121804), wk =   0.0051982
        k(  374) = (   0.2222222   0.3888889   0.1682706), wk =   0.0051982
        k(  375) = (   0.2222222   0.3888889   0.2243608), wk =   0.0051982
        k(  376) = (   0.2222222   0.3888889   0.2804510), wk =   0.0051982
        k(  377) = (   0.2222222   0.3888889   0.3365412), wk =   0.0051982
        k(  378) = (   0.2222222   0.3888889   0.3926314), wk =   0.0051982
        k(  379) = (   0.2222222   0.3888889   0.4487217), wk =   0.0051982
        k(  380) = (   0.2222222   0.3888889   0.5048119), wk =   0.0051982
        k(  381) = (   0.2222222   0.4444444   0.0000000), wk =   0.0025991
        k(  382) = (   0.2222222   0.4444444   0.0560902), wk =   0.0051982
        k(  383) = (   0.2222222   0.4444444   0.1121804), wk =   0.0051982
        k(  384) = (   0.2222222   0.4444444   0.1682706), wk =   0.0051982
        k(  385) = (   0.2222222   0.4444444   0.2243608), wk =   0.0051982
        k(  386) = (   0.2222222   0.4444444   0.2804510), wk =   0.0051982
        k(  387) = (   0.2222222   0.4444444   0.3365412), wk =   0.0051982
        k(  388) = (   0.2222222   0.4444444   0.3926314), wk =   0.0051982
        k(  389) = (   0.2222222   0.4444444   0.4487217), wk =   0.0051982
        k(  390) = (   0.2222222   0.4444444   0.5048119), wk =   0.0051982
        k(  391) = (   0.2222222  -0.5000000   0.0000000), wk =   0.0012995
        k(  392) = (   0.2222222  -0.5000000   0.0560902), wk =   0.0025991
        k(  393) = (   0.2222222  -0.5000000   0.1121804), wk =   0.0025991
        k(  394) = (   0.2222222  -0.5000000   0.1682706), wk =   0.0025991
        k(  395) = (   0.2222222  -0.5000000   0.2243608), wk =   0.0025991
        k(  396) = (   0.2222222  -0.5000000   0.2804510), wk =   0.0025991
        k(  397) = (   0.2222222  -0.5000000   0.3365412), wk =   0.0025991
        k(  398) = (   0.2222222  -0.5000000   0.3926314), wk =   0.0025991
        k(  399) = (   0.2222222  -0.5000000   0.4487217), wk =   0.0025991
        k(  400) = (   0.2222222  -0.5000000   0.5048119), wk =   0.0025991
        k(  401) = (   0.2777778   0.2777778   0.0000000), wk =   0.0012995
        k(  402) = (   0.2777778   0.2777778   0.0560902), wk =   0.0025991
        k(  403) = (   0.2777778   0.2777778   0.1121804), wk =   0.0025991
        k(  404) = (   0.2777778   0.2777778   0.1682706), wk =   0.0025991
        k(  405) = (   0.2777778   0.2777778   0.2243608), wk =   0.0025991
        k(  406) = (   0.2777778   0.2777778   0.2804510), wk =   0.0025991
        k(  407) = (   0.2777778   0.2777778   0.3365412), wk =   0.0025991
        k(  408) = (   0.2777778   0.2777778   0.3926314), wk =   0.0025991
        k(  409) = (   0.2777778   0.2777778   0.4487217), wk =   0.0025991
        k(  410) = (   0.2777778   0.2777778   0.5048119), wk =   0.0025991
        k(  411) = (   0.2777778   0.3333333   0.0000000), wk =   0.0025991
        k(  412) = (   0.2777778   0.3333333   0.0560902), wk =   0.0051982
        k(  413) = (   0.2777778   0.3333333   0.1121804), wk =   0.0051982
        k(  414) = (   0.2777778   0.3333333   0.1682706), wk =   0.0051982
        k(  415) = (   0.2777778   0.3333333   0.2243608), wk =   0.0051982
        k(  416) = (   0.2777778   0.3333333   0.2804510), wk =   0.0051982
        k(  417) = (   0.2777778   0.3333333   0.3365412), wk =   0.0051982
        k(  418) = (   0.2777778   0.3333333   0.3926314), wk =   0.0051982
        k(  419) = (   0.2777778   0.3333333   0.4487217), wk =   0.0051982
        k(  420) = (   0.2777778   0.3333333   0.5048119), wk =   0.0051982
        k(  421) = (   0.2777778   0.3888889   0.0000000), wk =   0.0025991
        k(  422) = (   0.2777778   0.3888889   0.0560902), wk =   0.0051982
        k(  423) = (   0.2777778   0.3888889   0.1121804), wk =   0.0051982
        k(  424) = (   0.2777778   0.3888889   0.1682706), wk =   0.0051982
        k(  425) = (   0.2777778   0.3888889   0.2243608), wk =   0.0051982
        k(  426) = (   0.2777778   0.3888889   0.2804510), wk =   0.0051982
        k(  427) = (   0.2777778   0.3888889   0.3365412), wk =   0.0051982
        k(  428) = (   0.2777778   0.3888889   0.3926314), wk =   0.0051982
        k(  429) = (   0.2777778   0.3888889   0.4487217), wk =   0.0051982
        k(  430) = (   0.2777778   0.3888889   0.5048119), wk =   0.0051982
        k(  431) = (   0.2777778   0.4444444   0.0000000), wk =   0.0025991
        k(  432) = (   0.2777778   0.4444444   0.0560902), wk =   0.0051982
        k(  433) = (   0.2777778   0.4444444   0.1121804), wk =   0.0051982
        k(  434) = (   0.2777778   0.4444444   0.1682706), wk =   0.0051982
        k(  435) = (   0.2777778   0.4444444   0.2243608), wk =   0.0051982
        k(  436) = (   0.2777778   0.4444444   0.2804510), wk =   0.0051982
        k(  437) = (   0.2777778   0.4444444   0.3365412), wk =   0.0051982
        k(  438) = (   0.2777778   0.4444444   0.3926314), wk =   0.0051982
        k(  439) = (   0.2777778   0.4444444   0.4487217), wk =   0.0051982
        k(  440) = (   0.2777778   0.4444444   0.5048119), wk =   0.0051982
        k(  441) = (   0.2777778  -0.5000000   0.0000000), wk =   0.0012995
        k(  442) = (   0.2777778  -0.5000000   0.0560902), wk =   0.0025991
        k(  443) = (   0.2777778  -0.5000000   0.1121804), wk =   0.0025991
        k(  444) = (   0.2777778  -0.5000000   0.1682706), wk =   0.0025991
        k(  445) = (   0.2777778  -0.5000000   0.2243608), wk =   0.0025991
        k(  446) = (   0.2777778  -0.5000000   0.2804510), wk =   0.0025991
        k(  447) = (   0.2777778  -0.5000000   0.3365412), wk =   0.0025991
        k(  448) = (   0.2777778  -0.5000000   0.3926314), wk =   0.0025991
        k(  449) = (   0.2777778  -0.5000000   0.4487217), wk =   0.0025991
        k(  450) = (   0.2777778  -0.5000000   0.5048119), wk =   0.0025991
        k(  451) = (   0.3333333   0.3333333   0.0000000), wk =   0.0012995
        k(  452) = (   0.3333333   0.3333333   0.0560902), wk =   0.0025991
        k(  453) = (   0.3333333   0.3333333   0.1121804), wk =   0.0025991
        k(  454) = (   0.3333333   0.3333333   0.1682706), wk =   0.0025991
        k(  455) = (   0.3333333   0.3333333   0.2243608), wk =   0.0025991
        k(  456) = (   0.3333333   0.3333333   0.2804510), wk =   0.0025991
        k(  457) = (   0.3333333   0.3333333   0.3365412), wk =   0.0025991
        k(  458) = (   0.3333333   0.3333333   0.3926314), wk =   0.0025991
        k(  459) = (   0.3333333   0.3333333   0.4487217), wk =   0.0025991
        k(  460) = (   0.3333333   0.3333333   0.5048119), wk =   0.0025991
        k(  461) = (   0.3333333   0.3888889   0.0000000), wk =   0.0025991
        k(  462) = (   0.3333333   0.3888889   0.0560902), wk =   0.0051982
        k(  463) = (   0.3333333   0.3888889   0.1121804), wk =   0.0051982
        k(  464) = (   0.3333333   0.3888889   0.1682706), wk =   0.0051982
        k(  465) = (   0.3333333   0.3888889   0.2243608), wk =   0.0051982
        k(  466) = (   0.3333333   0.3888889   0.2804510), wk =   0.0051982
        k(  467) = (   0.3333333   0.3888889   0.3365412), wk =   0.0051982
        k(  468) = (   0.3333333   0.3888889   0.3926314), wk =   0.0051982
        k(  469) = (   0.3333333   0.3888889   0.4487217), wk =   0.0051982
        k(  470) = (   0.3333333   0.3888889   0.5048119), wk =   0.0051982
        k(  471) = (   0.3333333   0.4444444   0.0000000), wk =   0.0025991
        k(  472) = (   0.3333333   0.4444444   0.0560902), wk =   0.0051982
        k(  473) = (   0.3333333   0.4444444   0.1121804), wk =   0.0051982
        k(  474) = (   0.3333333   0.4444444   0.1682706), wk =   0.0051982
        k(  475) = (   0.3333333   0.4444444   0.2243608), wk =   0.0051982
        k(  476) = (   0.3333333   0.4444444   0.2804510), wk =   0.0051982
        k(  477) = (   0.3333333   0.4444444   0.3365412), wk =   0.0051982
        k(  478) = (   0.3333333   0.4444444   0.3926314), wk =   0.0051982
        k(  479) = (   0.3333333   0.4444444   0.4487217), wk =   0.0051982
        k(  480) = (   0.3333333   0.4444444   0.5048119), wk =   0.0051982
        k(  481) = (   0.3333333  -0.5000000   0.0000000), wk =   0.0012995
        k(  482) = (   0.3333333  -0.5000000   0.0560902), wk =   0.0025991
        k(  483) = (   0.3333333  -0.5000000   0.1121804), wk =   0.0025991
        k(  484) = (   0.3333333  -0.5000000   0.1682706), wk =   0.0025991
        k(  485) = (   0.3333333  -0.5000000   0.2243608), wk =   0.0025991
        k(  486) = (   0.3333333  -0.5000000   0.2804510), wk =   0.0025991
        k(  487) = (   0.3333333  -0.5000000   0.3365412), wk =   0.0025991
        k(  488) = (   0.3333333  -0.5000000   0.3926314), wk =   0.0025991
        k(  489) = (   0.3333333  -0.5000000   0.4487217), wk =   0.0025991
        k(  490) = (   0.3333333  -0.5000000   0.5048119), wk =   0.0025991
        k(  491) = (   0.3888889   0.3888889   0.0000000), wk =   0.0012995
        k(  492) = (   0.3888889   0.3888889   0.0560902), wk =   0.0025991
        k(  493) = (   0.3888889   0.3888889   0.1121804), wk =   0.0025991
        k(  494) = (   0.3888889   0.3888889   0.1682706), wk =   0.0025991
        k(  495) = (   0.3888889   0.3888889   0.2243608), wk =   0.0025991
        k(  496) = (   0.3888889   0.3888889   0.2804510), wk =   0.0025991
        k(  497) = (   0.3888889   0.3888889   0.3365412), wk =   0.0025991
        k(  498) = (   0.3888889   0.3888889   0.3926314), wk =   0.0025991
        k(  499) = (   0.3888889   0.3888889   0.4487217), wk =   0.0025991
        k(  500) = (   0.3888889   0.3888889   0.5048119), wk =   0.0025991
        k(  501) = (   0.3888889   0.4444444   0.0000000), wk =   0.0025991
        k(  502) = (   0.3888889   0.4444444   0.0560902), wk =   0.0051982
        k(  503) = (   0.3888889   0.4444444   0.1121804), wk =   0.0051982
        k(  504) = (   0.3888889   0.4444444   0.1682706), wk =   0.0051982
        k(  505) = (   0.3888889   0.4444444   0.2243608), wk =   0.0051982
        k(  506) = (   0.3888889   0.4444444   0.2804510), wk =   0.0051982
        k(  507) = (   0.3888889   0.4444444   0.3365412), wk =   0.0051982
        k(  508) = (   0.3888889   0.4444444   0.3926314), wk =   0.0051982
        k(  509) = (   0.3888889   0.4444444   0.4487217), wk =   0.0051982
        k(  510) = (   0.3888889   0.4444444   0.5048119), wk =   0.0051982
        k(  511) = (   0.3888889  -0.5000000   0.0000000), wk =   0.0012995
        k(  512) = (   0.3888889  -0.5000000   0.0560902), wk =   0.0025991
        k(  513) = (   0.3888889  -0.5000000   0.1121804), wk =   0.0025991
        k(  514) = (   0.3888889  -0.5000000   0.1682706), wk =   0.0025991
        k(  515) = (   0.3888889  -0.5000000   0.2243608), wk =   0.0025991
        k(  516) = (   0.3888889  -0.5000000   0.2804510), wk =   0.0025991
        k(  517) = (   0.3888889  -0.5000000   0.3365412), wk =   0.0025991
        k(  518) = (   0.3888889  -0.5000000   0.3926314), wk =   0.0025991
        k(  519) = (   0.3888889  -0.5000000   0.4487217), wk =   0.0025991
        k(  520) = (   0.3888889  -0.5000000   0.5048119), wk =   0.0025991
        k(  521) = (   0.4444444   0.4444444   0.0000000), wk =   0.0012995
        k(  522) = (   0.4444444   0.4444444   0.0560902), wk =   0.0025991
        k(  523) = (   0.4444444   0.4444444   0.1121804), wk =   0.0025991
        k(  524) = (   0.4444444   0.4444444   0.1682706), wk =   0.0025991
        k(  525) = (   0.4444444   0.4444444   0.2243608), wk =   0.0025991
        k(  526) = (   0.4444444   0.4444444   0.2804510), wk =   0.0025991
        k(  527) = (   0.4444444   0.4444444   0.3365412), wk =   0.0025991
        k(  528) = (   0.4444444   0.4444444   0.3926314), wk =   0.0025991
        k(  529) = (   0.4444444   0.4444444   0.4487217), wk =   0.0025991
        k(  530) = (   0.4444444   0.4444444   0.5048119), wk =   0.0025991
        k(  531) = (   0.4444444  -0.5000000   0.0000000), wk =   0.0012995
        k(  532) = (   0.4444444  -0.5000000   0.0560902), wk =   0.0025991
        k(  533) = (   0.4444444  -0.5000000   0.1121804), wk =   0.0025991
        k(  534) = (   0.4444444  -0.5000000   0.1682706), wk =   0.0025991
        k(  535) = (   0.4444444  -0.5000000   0.2243608), wk =   0.0025991
        k(  536) = (   0.4444444  -0.5000000   0.2804510), wk =   0.0025991
        k(  537) = (   0.4444444  -0.5000000   0.3365412), wk =   0.0025991
        k(  538) = (   0.4444444  -0.5000000   0.3926314), wk =   0.0025991
        k(  539) = (   0.4444444  -0.5000000   0.4487217), wk =   0.0025991
        k(  540) = (   0.4444444  -0.5000000   0.5048119), wk =   0.0025991
        k(  541) = (  -0.5000000  -0.5000000   0.0000000), wk =   0.0003249
        k(  542) = (  -0.5000000  -0.5000000   0.0560902), wk =   0.0006498
        k(  543) = (  -0.5000000  -0.5000000   0.1121804), wk =   0.0006498
        k(  544) = (  -0.5000000  -0.5000000   0.1682706), wk =   0.0006498
        k(  545) = (  -0.5000000  -0.5000000   0.2243608), wk =   0.0006498
        k(  546) = (  -0.5000000  -0.5000000   0.2804510), wk =   0.0006498
        k(  547) = (  -0.5000000  -0.5000000   0.3365412), wk =   0.0006498
        k(  548) = (  -0.5000000  -0.5000000   0.3926314), wk =   0.0006498
        k(  549) = (  -0.5000000  -0.5000000   0.4487217), wk =   0.0006498
        k(  550) = (  -0.5000000  -0.5000000   0.5048119), wk =   0.0006498

                       cryst. coord.
        k(    1) = (   0.0000000   0.0000000   0.0000000), wk =   0.0003249
        k(    2) = (   0.0000000   0.0000000   0.0526316), wk =   0.0006498
        k(    3) = (   0.0000000   0.0000000   0.1052632), wk =   0.0006498
        k(    4) = (   0.0000000   0.0000000   0.1578947), wk =   0.0006498
        k(    5) = (   0.0000000   0.0000000   0.2105263), wk =   0.0006498
        k(    6) = (   0.0000000   0.0000000   0.2631579), wk =   0.0006498
        k(    7) = (   0.0000000   0.0000000   0.3157895), wk =   0.0006498
        k(    8) = (   0.0000000   0.0000000   0.3684211), wk =   0.0006498
        k(    9) = (   0.0000000   0.0000000   0.4210526), wk =   0.0006498
        k(   10) = (   0.0000000   0.0000000   0.4736842), wk =   0.0006498
        k(   11) = (   0.0000000   0.0555556   0.0000000), wk =   0.0012995
        k(   12) = (   0.0000000   0.0555556   0.0526316), wk =   0.0025991
        k(   13) = (   0.0000000   0.0555556   0.1052632), wk =   0.0025991
        k(   14) = (   0.0000000   0.0555556   0.1578947), wk =   0.0025991
        k(   15) = (   0.0000000   0.0555556   0.2105263), wk =   0.0025991
        k(   16) = (   0.0000000   0.0555556   0.2631579), wk =   0.0025991
        k(   17) = (   0.0000000   0.0555556   0.3157895), wk =   0.0025991
        k(   18) = (   0.0000000   0.0555556   0.3684211), wk =   0.0025991
        k(   19) = (   0.0000000   0.0555556   0.4210526), wk =   0.0025991
        k(   20) = (   0.0000000   0.0555556   0.4736842), wk =   0.0025991
        k(   21) = (   0.0000000   0.1111111   0.0000000), wk =   0.0012995
        k(   22) = (   0.0000000   0.1111111   0.0526316), wk =   0.0025991
        k(   23) = (   0.0000000   0.1111111   0.1052632), wk =   0.0025991
        k(   24) = (   0.0000000   0.1111111   0.1578947), wk =   0.0025991
        k(   25) = (   0.0000000   0.1111111   0.2105263), wk =   0.0025991
        k(   26) = (   0.0000000   0.1111111   0.2631579), wk =   0.0025991
        k(   27) = (   0.0000000   0.1111111   0.3157895), wk =   0.0025991
        k(   28) = (   0.0000000   0.1111111   0.3684211), wk =   0.0025991
        k(   29) = (   0.0000000   0.1111111   0.4210526), wk =   0.0025991
        k(   30) = (   0.0000000   0.1111111   0.4736842), wk =   0.0025991
        k(   31) = (   0.0000000   0.1666667   0.0000000), wk =   0.0012995
        k(   32) = (   0.0000000   0.1666667   0.0526316), wk =   0.0025991
        k(   33) = (   0.0000000   0.1666667   0.1052632), wk =   0.0025991
        k(   34) = (   0.0000000   0.1666667   0.1578947), wk =   0.0025991
        k(   35) = (   0.0000000   0.1666667   0.2105263), wk =   0.0025991
        k(   36) = (   0.0000000   0.1666667   0.2631579), wk =   0.0025991
        k(   37) = (   0.0000000   0.1666667   0.3157895), wk =   0.0025991
        k(   38) = (   0.0000000   0.1666667   0.3684211), wk =   0.0025991
        k(   39) = (   0.0000000   0.1666667   0.4210526), wk =   0.0025991
        k(   40) = (   0.0000000   0.1666667   0.4736842), wk =   0.0025991
        k(   41) = (   0.0000000   0.2222222   0.0000000), wk =   0.0012995
        k(   42) = (   0.0000000   0.2222222   0.0526316), wk =   0.0025991
        k(   43) = (   0.0000000   0.2222222   0.1052632), wk =   0.0025991
        k(   44) = (   0.0000000   0.2222222   0.1578947), wk =   0.0025991
        k(   45) = (   0.0000000   0.2222222   0.2105263), wk =   0.0025991
        k(   46) = (   0.0000000   0.2222222   0.2631579), wk =   0.0025991
        k(   47) = (   0.0000000   0.2222222   0.3157895), wk =   0.0025991
        k(   48) = (   0.0000000   0.2222222   0.3684211), wk =   0.0025991
        k(   49) = (   0.0000000   0.2222222   0.4210526), wk =   0.0025991
        k(   50) = (   0.0000000   0.2222222   0.4736842), wk =   0.0025991
        k(   51) = (   0.0000000   0.2777778   0.0000000), wk =   0.0012995
        k(   52) = (   0.0000000   0.2777778   0.0526316), wk =   0.0025991
        k(   53) = (   0.0000000   0.2777778   0.1052632), wk =   0.0025991
        k(   54) = (   0.0000000   0.2777778   0.1578947), wk =   0.0025991
        k(   55) = (   0.0000000   0.2777778   0.2105263), wk =   0.0025991
        k(   56) = (   0.0000000   0.2777778   0.2631579), wk =   0.0025991
        k(   57) = (   0.0000000   0.2777778   0.3157895), wk =   0.0025991
        k(   58) = (   0.0000000   0.2777778   0.3684211), wk =   0.0025991
        k(   59) = (   0.0000000   0.2777778   0.4210526), wk =   0.0025991
        k(   60) = (   0.0000000   0.2777778   0.4736842), wk =   0.0025991
        k(   61) = (   0.0000000   0.3333333   0.0000000), wk =   0.0012995
        k(   62) = (   0.0000000   0.3333333   0.0526316), wk =   0.0025991
        k(   63) = (   0.0000000   0.3333333   0.1052632), wk =   0.0025991
        k(   64) = (   0.0000000   0.3333333   0.1578947), wk =   0.0025991
        k(   65) = (   0.0000000   0.3333333   0.2105263), wk =   0.0025991
        k(   66) = (   0.0000000   0.3333333   0.2631579), wk =   0.0025991
        k(   67) = (   0.0000000   0.3333333   0.3157895), wk =   0.0025991
        k(   68) = (   0.0000000   0.3333333   0.3684211), wk =   0.0025991
        k(   69) = (   0.0000000   0.3333333   0.4210526), wk =   0.0025991
        k(   70) = (   0.0000000   0.3333333   0.4736842), wk =   0.0025991
        k(   71) = (   0.0000000   0.3888889   0.0000000), wk =   0.0012995
        k(   72) = (   0.0000000   0.3888889   0.0526316), wk =   0.0025991
        k(   73) = (   0.0000000   0.3888889   0.1052632), wk =   0.0025991
        k(   74) = (   0.0000000   0.3888889   0.1578947), wk =   0.0025991
        k(   75) = (   0.0000000   0.3888889   0.2105263), wk =   0.0025991
        k(   76) = (   0.0000000   0.3888889   0.2631579), wk =   0.0025991
        k(   77) = (   0.0000000   0.3888889   0.3157895), wk =   0.0025991
        k(   78) = (   0.0000000   0.3888889   0.3684211), wk =   0.0025991
        k(   79) = (   0.0000000   0.3888889   0.4210526), wk =   0.0025991
        k(   80) = (   0.0000000   0.3888889   0.4736842), wk =   0.0025991
        k(   81) = (   0.0000000   0.4444444   0.0000000), wk =   0.0012995
        k(   82) = (   0.0000000   0.4444444   0.0526316), wk =   0.0025991
        k(   83) = (   0.0000000   0.4444444   0.1052632), wk =   0.0025991
        k(   84) = (   0.0000000   0.4444444   0.1578947), wk =   0.0025991
        k(   85) = (   0.0000000   0.4444444   0.2105263), wk =   0.0025991
        k(   86) = (   0.0000000   0.4444444   0.2631579), wk =   0.0025991
        k(   87) = (   0.0000000   0.4444444   0.3157895), wk =   0.0025991
        k(   88) = (   0.0000000   0.4444444   0.3684211), wk =   0.0025991
        k(   89) = (   0.0000000   0.4444444   0.4210526), wk =   0.0025991
        k(   90) = (   0.0000000   0.4444444   0.4736842), wk =   0.0025991
        k(   91) = (   0.0000000  -0.5000000   0.0000000), wk =   0.0006498
        k(   92) = (   0.0000000  -0.5000000   0.0526316), wk =   0.0012995
        k(   93) = (   0.0000000  -0.5000000   0.1052632), wk =   0.0012995
        k(   94) = (   0.0000000  -0.5000000   0.1578947), wk =   0.0012995
        k(   95) = (   0.0000000  -0.5000000   0.2105263), wk =   0.0012995
        k(   96) = (   0.0000000  -0.5000000   0.2631579), wk =   0.0012995
        k(   97) = (   0.0000000  -0.5000000   0.3157895), wk =   0.0012995
        k(   98) = (   0.0000000  -0.5000000   0.3684211), wk =   0.0012995
        k(   99) = (   0.0000000  -0.5000000   0.4210526), wk =   0.0012995
        k(  100) = (   0.0000000  -0.5000000   0.4736842), wk =   0.0012995
        k(  101) = (   0.0555556   0.0555556   0.0000000), wk =   0.0012995
        k(  102) = (   0.0555556   0.0555556   0.0526316), wk =   0.0025991
        k(  103) = (   0.0555556   0.0555556   0.1052632), wk =   0.0025991
        k(  104) = (   0.0555556   0.0555556   0.1578947), wk =   0.0025991
        k(  105) = (   0.0555556   0.0555556   0.2105263), wk =   0.0025991
        k(  106) = (   0.0555556   0.0555556   0.2631579), wk =   0.0025991
        k(  107) = (   0.0555556   0.0555556   0.3157895), wk =   0.0025991
        k(  108) = (   0.0555556   0.0555556   0.3684211), wk =   0.0025991
        k(  109) = (   0.0555556   0.0555556   0.4210526), wk =   0.0025991
        k(  110) = (   0.0555556   0.0555556   0.4736842), wk =   0.0025991
        k(  111) = (   0.0555556   0.1111111   0.0000000), wk =   0.0025991
        k(  112) = (   0.0555556   0.1111111   0.0526316), wk =   0.0051982
        k(  113) = (   0.0555556   0.1111111   0.1052632), wk =   0.0051982
        k(  114) = (   0.0555556   0.1111111   0.1578947), wk =   0.0051982
        k(  115) = (   0.0555556   0.1111111   0.2105263), wk =   0.0051982
        k(  116) = (   0.0555556   0.1111111   0.2631579), wk =   0.0051982
        k(  117) = (   0.0555556   0.1111111   0.3157895), wk =   0.0051982
        k(  118) = (   0.0555556   0.1111111   0.3684211), wk =   0.0051982
        k(  119) = (   0.0555556   0.1111111   0.4210526), wk =   0.0051982
        k(  120) = (   0.0555556   0.1111111   0.4736842), wk =   0.0051982
        k(  121) = (   0.0555556   0.1666667   0.0000000), wk =   0.0025991
        k(  122) = (   0.0555556   0.1666667   0.0526316), wk =   0.0051982
        k(  123) = (   0.0555556   0.1666667   0.1052632), wk =   0.0051982
        k(  124) = (   0.0555556   0.1666667   0.1578947), wk =   0.0051982
        k(  125) = (   0.0555556   0.1666667   0.2105263), wk =   0.0051982
        k(  126) = (   0.0555556   0.1666667   0.2631579), wk =   0.0051982
        k(  127) = (   0.0555556   0.1666667   0.3157895), wk =   0.0051982
        k(  128) = (   0.0555556   0.1666667   0.3684211), wk =   0.0051982
        k(  129) = (   0.0555556   0.1666667   0.4210526), wk =   0.0051982
        k(  130) = (   0.0555556   0.1666667   0.4736842), wk =   0.0051982
        k(  131) = (   0.0555556   0.2222222   0.0000000), wk =   0.0025991
        k(  132) = (   0.0555556   0.2222222   0.0526316), wk =   0.0051982
        k(  133) = (   0.0555556   0.2222222   0.1052632), wk =   0.0051982
        k(  134) = (   0.0555556   0.2222222   0.1578947), wk =   0.0051982
        k(  135) = (   0.0555556   0.2222222   0.2105263), wk =   0.0051982
        k(  136) = (   0.0555556   0.2222222   0.2631579), wk =   0.0051982
        k(  137) = (   0.0555556   0.2222222   0.3157895), wk =   0.0051982
        k(  138) = (   0.0555556   0.2222222   0.3684211), wk =   0.0051982
        k(  139) = (   0.0555556   0.2222222   0.4210526), wk =   0.0051982
        k(  140) = (   0.0555556   0.2222222   0.4736842), wk =   0.0051982
        k(  141) = (   0.0555556   0.2777778   0.0000000), wk =   0.0025991
        k(  142) = (   0.0555556   0.2777778   0.0526316), wk =   0.0051982
        k(  143) = (   0.0555556   0.2777778   0.1052632), wk =   0.0051982
        k(  144) = (   0.0555556   0.2777778   0.1578947), wk =   0.0051982
        k(  145) = (   0.0555556   0.2777778   0.2105263), wk =   0.0051982
        k(  146) = (   0.0555556   0.2777778   0.2631579), wk =   0.0051982
        k(  147) = (   0.0555556   0.2777778   0.3157895), wk =   0.0051982
        k(  148) = (   0.0555556   0.2777778   0.3684211), wk =   0.0051982
        k(  149) = (   0.0555556   0.2777778   0.4210526), wk =   0.0051982
        k(  150) = (   0.0555556   0.2777778   0.4736842), wk =   0.0051982
        k(  151) = (   0.0555556   0.3333333   0.0000000), wk =   0.0025991
        k(  152) = (   0.0555556   0.3333333   0.0526316), wk =   0.0051982
        k(  153) = (   0.0555556   0.3333333   0.1052632), wk =   0.0051982
        k(  154) = (   0.0555556   0.3333333   0.1578947), wk =   0.0051982
        k(  155) = (   0.0555556   0.3333333   0.2105263), wk =   0.0051982
        k(  156) = (   0.0555556   0.3333333   0.2631579), wk =   0.0051982
        k(  157) = (   0.0555556   0.3333333   0.3157895), wk =   0.0051982
        k(  158) = (   0.0555556   0.3333333   0.3684211), wk =   0.0051982
        k(  159) = (   0.0555556   0.3333333   0.4210526), wk =   0.0051982
        k(  160) = (   0.0555556   0.3333333   0.4736842), wk =   0.0051982
        k(  161) = (   0.0555556   0.3888889   0.0000000), wk =   0.0025991
        k(  162) = (   0.0555556   0.3888889   0.0526316), wk =   0.0051982
        k(  163) = (   0.0555556   0.3888889   0.1052632), wk =   0.0051982
        k(  164) = (   0.0555556   0.3888889   0.1578947), wk =   0.0051982
        k(  165) = (   0.0555556   0.3888889   0.2105263), wk =   0.0051982
        k(  166) = (   0.0555556   0.3888889   0.2631579), wk =   0.0051982
        k(  167) = (   0.0555556   0.3888889   0.3157895), wk =   0.0051982
        k(  168) = (   0.0555556   0.3888889   0.3684211), wk =   0.0051982
        k(  169) = (   0.0555556   0.3888889   0.4210526), wk =   0.0051982
        k(  170) = (   0.0555556   0.3888889   0.4736842), wk =   0.0051982
        k(  171) = (   0.0555556   0.4444444   0.0000000), wk =   0.0025991
        k(  172) = (   0.0555556   0.4444444   0.0526316), wk =   0.0051982
        k(  173) = (   0.0555556   0.4444444   0.1052632), wk =   0.0051982
        k(  174) = (   0.0555556   0.4444444   0.1578947), wk =   0.0051982
        k(  175) = (   0.0555556   0.4444444   0.2105263), wk =   0.0051982
        k(  176) = (   0.0555556   0.4444444   0.2631579), wk =   0.0051982
        k(  177) = (   0.0555556   0.4444444   0.3157895), wk =   0.0051982
        k(  178) = (   0.0555556   0.4444444   0.3684211), wk =   0.0051982
        k(  179) = (   0.0555556   0.4444444   0.4210526), wk =   0.0051982
        k(  180) = (   0.0555556   0.4444444   0.4736842), wk =   0.0051982
        k(  181) = (   0.0555556  -0.5000000   0.0000000), wk =   0.0012995
        k(  182) = (   0.0555556  -0.5000000   0.0526316), wk =   0.0025991
        k(  183) = (   0.0555556  -0.5000000   0.1052632), wk =   0.0025991
        k(  184) = (   0.0555556  -0.5000000   0.1578947), wk =   0.0025991
        k(  185) = (   0.0555556  -0.5000000   0.2105263), wk =   0.0025991
        k(  186) = (   0.0555556  -0.5000000   0.2631579), wk =   0.0025991
        k(  187) = (   0.0555556  -0.5000000   0.3157895), wk =   0.0025991
        k(  188) = (   0.0555556  -0.5000000   0.3684211), wk =   0.0025991
        k(  189) = (   0.0555556  -0.5000000   0.4210526), wk =   0.0025991
        k(  190) = (   0.0555556  -0.5000000   0.4736842), wk =   0.0025991
        k(  191) = (   0.1111111   0.1111111   0.0000000), wk =   0.0012995
        k(  192) = (   0.1111111   0.1111111   0.0526316), wk =   0.0025991
        k(  193) = (   0.1111111   0.1111111   0.1052632), wk =   0.0025991
        k(  194) = (   0.1111111   0.1111111   0.1578947), wk =   0.0025991
        k(  195) = (   0.1111111   0.1111111   0.2105263), wk =   0.0025991
        k(  196) = (   0.1111111   0.1111111   0.2631579), wk =   0.0025991
        k(  197) = (   0.1111111   0.1111111   0.3157895), wk =   0.0025991
        k(  198) = (   0.1111111   0.1111111   0.3684211), wk =   0.0025991
        k(  199) = (   0.1111111   0.1111111   0.4210526), wk =   0.0025991
        k(  200) = (   0.1111111   0.1111111   0.4736842), wk =   0.0025991
        k(  201) = (   0.1111111   0.1666667   0.0000000), wk =   0.0025991
        k(  202) = (   0.1111111   0.1666667   0.0526316), wk =   0.0051982
        k(  203) = (   0.1111111   0.1666667   0.1052632), wk =   0.0051982
        k(  204) = (   0.1111111   0.1666667   0.1578947), wk =   0.0051982
        k(  205) = (   0.1111111   0.1666667   0.2105263), wk =   0.0051982
        k(  206) = (   0.1111111   0.1666667   0.2631579), wk =   0.0051982
        k(  207) = (   0.1111111   0.1666667   0.3157895), wk =   0.0051982
        k(  208) = (   0.1111111   0.1666667   0.3684211), wk =   0.0051982
        k(  209) = (   0.1111111   0.1666667   0.4210526), wk =   0.0051982
        k(  210) = (   0.1111111   0.1666667   0.4736842), wk =   0.0051982
        k(  211) = (   0.1111111   0.2222222   0.0000000), wk =   0.0025991
        k(  212) = (   0.1111111   0.2222222   0.0526316), wk =   0.0051982
        k(  213) = (   0.1111111   0.2222222   0.1052632), wk =   0.0051982
        k(  214) = (   0.1111111   0.2222222   0.1578947), wk =   0.0051982
        k(  215) = (   0.1111111   0.2222222   0.2105263), wk =   0.0051982
        k(  216) = (   0.1111111   0.2222222   0.2631579), wk =   0.0051982
        k(  217) = (   0.1111111   0.2222222   0.3157895), wk =   0.0051982
        k(  218) = (   0.1111111   0.2222222   0.3684211), wk =   0.0051982
        k(  219) = (   0.1111111   0.2222222   0.4210526), wk =   0.0051982
        k(  220) = (   0.1111111   0.2222222   0.4736842), wk =   0.0051982
        k(  221) = (   0.1111111   0.2777778   0.0000000), wk =   0.0025991
        k(  222) = (   0.1111111   0.2777778   0.0526316), wk =   0.0051982
        k(  223) = (   0.1111111   0.2777778   0.1052632), wk =   0.0051982
        k(  224) = (   0.1111111   0.2777778   0.1578947), wk =   0.0051982
        k(  225) = (   0.1111111   0.2777778   0.2105263), wk =   0.0051982
        k(  226) = (   0.1111111   0.2777778   0.2631579), wk =   0.0051982
        k(  227) = (   0.1111111   0.2777778   0.3157895), wk =   0.0051982
        k(  228) = (   0.1111111   0.2777778   0.3684211), wk =   0.0051982
        k(  229) = (   0.1111111   0.2777778   0.4210526), wk =   0.0051982
        k(  230) = (   0.1111111   0.2777778   0.4736842), wk =   0.0051982
        k(  231) = (   0.1111111   0.3333333   0.0000000), wk =   0.0025991
        k(  232) = (   0.1111111   0.3333333   0.0526316), wk =   0.0051982
        k(  233) = (   0.1111111   0.3333333   0.1052632), wk =   0.0051982
        k(  234) = (   0.1111111   0.3333333   0.1578947), wk =   0.0051982
        k(  235) = (   0.1111111   0.3333333   0.2105263), wk =   0.0051982
        k(  236) = (   0.1111111   0.3333333   0.2631579), wk =   0.0051982
        k(  237) = (   0.1111111   0.3333333   0.3157895), wk =   0.0051982
        k(  238) = (   0.1111111   0.3333333   0.3684211), wk =   0.0051982
        k(  239) = (   0.1111111   0.3333333   0.4210526), wk =   0.0051982
        k(  240) = (   0.1111111   0.3333333   0.4736842), wk =   0.0051982
        k(  241) = (   0.1111111   0.3888889   0.0000000), wk =   0.0025991
        k(  242) = (   0.1111111   0.3888889   0.0526316), wk =   0.0051982
        k(  243) = (   0.1111111   0.3888889   0.1052632), wk =   0.0051982
        k(  244) = (   0.1111111   0.3888889   0.1578947), wk =   0.0051982
        k(  245) = (   0.1111111   0.3888889   0.2105263), wk =   0.0051982
        k(  246) = (   0.1111111   0.3888889   0.2631579), wk =   0.0051982
        k(  247) = (   0.1111111   0.3888889   0.3157895), wk =   0.0051982
        k(  248) = (   0.1111111   0.3888889   0.3684211), wk =   0.0051982
        k(  249) = (   0.1111111   0.3888889   0.4210526), wk =   0.0051982
        k(  250) = (   0.1111111   0.3888889   0.4736842), wk =   0.0051982
        k(  251) = (   0.1111111   0.4444444   0.0000000), wk =   0.0025991
        k(  252) = (   0.1111111   0.4444444   0.0526316), wk =   0.0051982
        k(  253) = (   0.1111111   0.4444444   0.1052632), wk =   0.0051982
        k(  254) = (   0.1111111   0.4444444   0.1578947), wk =   0.0051982
        k(  255) = (   0.1111111   0.4444444   0.2105263), wk =   0.0051982
        k(  256) = (   0.1111111   0.4444444   0.2631579), wk =   0.0051982
        k(  257) = (   0.1111111   0.4444444   0.3157895), wk =   0.0051982
        k(  258) = (   0.1111111   0.4444444   0.3684211), wk =   0.0051982
        k(  259) = (   0.1111111   0.4444444   0.4210526), wk =   0.0051982
        k(  260) = (   0.1111111   0.4444444   0.4736842), wk =   0.0051982
        k(  261) = (   0.1111111  -0.5000000   0.0000000), wk =   0.0012995
        k(  262) = (   0.1111111  -0.5000000   0.0526316), wk =   0.0025991
        k(  263) = (   0.1111111  -0.5000000   0.1052632), wk =   0.0025991
        k(  264) = (   0.1111111  -0.5000000   0.1578947), wk =   0.0025991
        k(  265) = (   0.1111111  -0.5000000   0.2105263), wk =   0.0025991
        k(  266) = (   0.1111111  -0.5000000   0.2631579), wk =   0.0025991
        k(  267) = (   0.1111111  -0.5000000   0.3157895), wk =   0.0025991
        k(  268) = (   0.1111111  -0.5000000   0.3684211), wk =   0.0025991
        k(  269) = (   0.1111111  -0.5000000   0.4210526), wk =   0.0025991
        k(  270) = (   0.1111111  -0.5000000   0.4736842), wk =   0.0025991
        k(  271) = (   0.1666667   0.1666667   0.0000000), wk =   0.0012995
        k(  272) = (   0.1666667   0.1666667   0.0526316), wk =   0.0025991
        k(  273) = (   0.1666667   0.1666667   0.1052632), wk =   0.0025991
        k(  274) = (   0.1666667   0.1666667   0.1578947), wk =   0.0025991
        k(  275) = (   0.1666667   0.1666667   0.2105263), wk =   0.0025991
        k(  276) = (   0.1666667   0.1666667   0.2631579), wk =   0.0025991
        k(  277) = (   0.1666667   0.1666667   0.3157895), wk =   0.0025991
        k(  278) = (   0.1666667   0.1666667   0.3684211), wk =   0.0025991
        k(  279) = (   0.1666667   0.1666667   0.4210526), wk =   0.0025991
        k(  280) = (   0.1666667   0.1666667   0.4736842), wk =   0.0025991
        k(  281) = (   0.1666667   0.2222222   0.0000000), wk =   0.0025991
        k(  282) = (   0.1666667   0.2222222   0.0526316), wk =   0.0051982
        k(  283) = (   0.1666667   0.2222222   0.1052632), wk =   0.0051982
        k(  284) = (   0.1666667   0.2222222   0.1578947), wk =   0.0051982
        k(  285) = (   0.1666667   0.2222222   0.2105263), wk =   0.0051982
        k(  286) = (   0.1666667   0.2222222   0.2631579), wk =   0.0051982
        k(  287) = (   0.1666667   0.2222222   0.3157895), wk =   0.0051982
        k(  288) = (   0.1666667   0.2222222   0.3684211), wk =   0.0051982
        k(  289) = (   0.1666667   0.2222222   0.4210526), wk =   0.0051982
        k(  290) = (   0.1666667   0.2222222   0.4736842), wk =   0.0051982
        k(  291) = (   0.1666667   0.2777778   0.0000000), wk =   0.0025991
        k(  292) = (   0.1666667   0.2777778   0.0526316), wk =   0.0051982
        k(  293) = (   0.1666667   0.2777778   0.1052632), wk =   0.0051982
        k(  294) = (   0.1666667   0.2777778   0.1578947), wk =   0.0051982
        k(  295) = (   0.1666667   0.2777778   0.2105263), wk =   0.0051982
        k(  296) = (   0.1666667   0.2777778   0.2631579), wk =   0.0051982
        k(  297) = (   0.1666667   0.2777778   0.3157895), wk =   0.0051982
        k(  298) = (   0.1666667   0.2777778   0.3684211), wk =   0.0051982
        k(  299) = (   0.1666667   0.2777778   0.4210526), wk =   0.0051982
        k(  300) = (   0.1666667   0.2777778   0.4736842), wk =   0.0051982
        k(  301) = (   0.1666667   0.3333333   0.0000000), wk =   0.0025991
        k(  302) = (   0.1666667   0.3333333   0.0526316), wk =   0.0051982
        k(  303) = (   0.1666667   0.3333333   0.1052632), wk =   0.0051982
        k(  304) = (   0.1666667   0.3333333   0.1578947), wk =   0.0051982
        k(  305) = (   0.1666667   0.3333333   0.2105263), wk =   0.0051982
        k(  306) = (   0.1666667   0.3333333   0.2631579), wk =   0.0051982
        k(  307) = (   0.1666667   0.3333333   0.3157895), wk =   0.0051982
        k(  308) = (   0.1666667   0.3333333   0.3684211), wk =   0.0051982
        k(  309) = (   0.1666667   0.3333333   0.4210526), wk =   0.0051982
        k(  310) = (   0.1666667   0.3333333   0.4736842), wk =   0.0051982
        k(  311) = (   0.1666667   0.3888889   0.0000000), wk =   0.0025991
        k(  312) = (   0.1666667   0.3888889   0.0526316), wk =   0.0051982
        k(  313) = (   0.1666667   0.3888889   0.1052632), wk =   0.0051982
        k(  314) = (   0.1666667   0.3888889   0.1578947), wk =   0.0051982
        k(  315) = (   0.1666667   0.3888889   0.2105263), wk =   0.0051982
        k(  316) = (   0.1666667   0.3888889   0.2631579), wk =   0.0051982
        k(  317) = (   0.1666667   0.3888889   0.3157895), wk =   0.0051982
        k(  318) = (   0.1666667   0.3888889   0.3684211), wk =   0.0051982
        k(  319) = (   0.1666667   0.3888889   0.4210526), wk =   0.0051982
        k(  320) = (   0.1666667   0.3888889   0.4736842), wk =   0.0051982
        k(  321) = (   0.1666667   0.4444444   0.0000000), wk =   0.0025991
        k(  322) = (   0.1666667   0.4444444   0.0526316), wk =   0.0051982
        k(  323) = (   0.1666667   0.4444444   0.1052632), wk =   0.0051982
        k(  324) = (   0.1666667   0.4444444   0.1578947), wk =   0.0051982
        k(  325) = (   0.1666667   0.4444444   0.2105263), wk =   0.0051982
        k(  326) = (   0.1666667   0.4444444   0.2631579), wk =   0.0051982
        k(  327) = (   0.1666667   0.4444444   0.3157895), wk =   0.0051982
        k(  328) = (   0.1666667   0.4444444   0.3684211), wk =   0.0051982
        k(  329) = (   0.1666667   0.4444444   0.4210526), wk =   0.0051982
        k(  330) = (   0.1666667   0.4444444   0.4736842), wk =   0.0051982
        k(  331) = (   0.1666667  -0.5000000   0.0000000), wk =   0.0012995
        k(  332) = (   0.1666667  -0.5000000   0.0526316), wk =   0.0025991
        k(  333) = (   0.1666667  -0.5000000   0.1052632), wk =   0.0025991
        k(  334) = (   0.1666667  -0.5000000   0.1578947), wk =   0.0025991
        k(  335) = (   0.1666667  -0.5000000   0.2105263), wk =   0.0025991
        k(  336) = (   0.1666667  -0.5000000   0.2631579), wk =   0.0025991
        k(  337) = (   0.1666667  -0.5000000   0.3157895), wk =   0.0025991
        k(  338) = (   0.1666667  -0.5000000   0.3684211), wk =   0.0025991
        k(  339) = (   0.1666667  -0.5000000   0.4210526), wk =   0.0025991
        k(  340) = (   0.1666667  -0.5000000   0.4736842), wk =   0.0025991
        k(  341) = (   0.2222222   0.2222222   0.0000000), wk =   0.0012995
        k(  342) = (   0.2222222   0.2222222   0.0526316), wk =   0.0025991
        k(  343) = (   0.2222222   0.2222222   0.1052632), wk =   0.0025991
        k(  344) = (   0.2222222   0.2222222   0.1578947), wk =   0.0025991
        k(  345) = (   0.2222222   0.2222222   0.2105263), wk =   0.0025991
        k(  346) = (   0.2222222   0.2222222   0.2631579), wk =   0.0025991
        k(  347) = (   0.2222222   0.2222222   0.3157895), wk =   0.0025991
        k(  348) = (   0.2222222   0.2222222   0.3684211), wk =   0.0025991
        k(  349) = (   0.2222222   0.2222222   0.4210526), wk =   0.0025991
        k(  350) = (   0.2222222   0.2222222   0.4736842), wk =   0.0025991
        k(  351) = (   0.2222222   0.2777778   0.0000000), wk =   0.0025991
        k(  352) = (   0.2222222   0.2777778   0.0526316), wk =   0.0051982
        k(  353) = (   0.2222222   0.2777778   0.1052632), wk =   0.0051982
        k(  354) = (   0.2222222   0.2777778   0.1578947), wk =   0.0051982
        k(  355) = (   0.2222222   0.2777778   0.2105263), wk =   0.0051982
        k(  356) = (   0.2222222   0.2777778   0.2631579), wk =   0.0051982
        k(  357) = (   0.2222222   0.2777778   0.3157895), wk =   0.0051982
        k(  358) = (   0.2222222   0.2777778   0.3684211), wk =   0.0051982
[...]
    12.3651  12.4292

     occupation numbers 
     1.0000   1.0000   1.0000   1.0000   0.0828   0.0000   0.0000   0.0000
     0.0000   0.0000

          k = 0.3889 0.3889 0.0561 (   890 PWs)   bands (ev):

    -0.2854   1.6816   1.6816   3.6196   8.2790  10.1281  10.1281  11.0608
    11.9720  12.8704

     occupation numbers 
     1.0000   1.0000   1.0000   1.0000   1.0170   0.0000   0.0000   0.0000
     0.0000   0.0000

          k = 0.3889 0.3889 0.1122 (   891 PWs)   bands (ev):

    -0.2013   1.7645   1.7645   3.7001   7.5057   9.3676   9.3676  11.2230
    11.9738  13.7401

     occupation numbers 
     1.0000   1.0000   1.0000   1.0000   1.0000   0.0000   0.0000   0.0000
     0.0000   0.0000

          k = 0.3889 0.3889 0.1683 (   885 PWs)   bands (ev):

    -0.0612   1.9025   1.9025   3.8332   6.6848   8.5558   8.5558  10.4209
    13.0274  14.6735

     occupation numbers 
     1.0000   1.0000   1.0000   1.0000   1.0000   0.6292   0.6292   0.0000
     0.0000   0.0000

          k = 0.3889 0.3889 0.2244 (   881 PWs)   bands (ev):

     0.1348   2.0954   2.0954   4.0158   5.8866   7.7605   7.7605   9.6340
    14.1522  15.2828

     occupation numbers 
     1.0000   1.0000   1.0000   1.0000   1.0000   1.0000   1.0000   0.0000
     0.0000   0.0000

          k = 0.3889 0.3889 0.2805 (   881 PWs)   bands (ev):

     0.3863   2.3427   2.3427   4.2307   5.1471   7.0014   7.0014   8.8821
    15.3254  15.5895

     occupation numbers 
     1.0000   1.0000   1.0000   1.0000   1.0000   1.0000   1.0000   0.0002
     0.0000   0.0000

          k = 0.3889 0.3889 0.3365 (   885 PWs)   bands (ev):

     0.6931   2.6436   2.6436   4.2232   4.7281   6.2867   6.2867   8.1732
    15.8842  15.8842

     occupation numbers 
     1.0000   1.0000   1.0000   1.0000   1.0000   1.0000   1.0000   1.0008
     0.0000   0.0000

          k = 0.3889 0.3889 0.3926 (   889 PWs)   bands (ev):

     1.0546   2.9966   2.9966   3.6433   4.9833   5.6215   5.6215   7.5111
    16.2106  16.2106

     occupation numbers 
     1.0000   1.0000   1.0000   1.0000   1.0000   1.0000   1.0000   1.0000
     0.0000   0.0000

          k = 0.3889 0.3889 0.4487 (   884 PWs)   bands (ev):

     1.4704   3.0314   3.3967   3.3967   5.0123   5.0123   5.3738   6.8983
    16.5698  16.5699

     occupation numbers 
     1.0000   1.0000   1.0000   1.0000   1.0000   1.0000   1.0000   1.0000
     0.0000   0.0000

          k = 0.3889 0.3889 0.5048 (   892 PWs)   bands (ev):

     1.9396   2.4608   3.8119   3.8119   4.4925   4.4925   5.8275   6.3365
    16.9260  16.9261

     occupation numbers 
     1.0000   1.0000   1.0000   1.0000   1.0000   1.0000   1.0000   1.0000
     0.0000   0.0000

          k = 0.3889 0.4444 0.0000 (   895 PWs)   bands (ev):

     0.0989   1.0834   2.0606   3.0309   9.0743   9.9941  10.9130  10.9943
    11.8304  11.9123

     occupation numbers 
     1.0000   1.0000   1.0000   1.0000   0.0000   0.0000   0.0000   0.0000
     0.0000   0.0000

          k = 0.3889 0.4444 0.0561 (   889 PWs)   bands (ev):

     0.1269   1.1112   2.0882   3.0581   8.6652   9.5902  10.5139  11.4361
    11.4495  12.3593

     occupation numbers 
     1.0000   1.0000   1.0000   1.0000   0.1394   0.0000   0.0000   0.0000
     0.0000   0.0000

          k = 0.3889 0.4444 0.1122 (   894 PWs)   bands (ev):

     0.2108   1.1944   2.1707   3.1396   7.8946   8.8264   9.7564  10.6846
    12.3577  13.2504

     occupation numbers 
     1.0000   1.0000   1.0000   1.0000   1.0000   0.0017   0.0000   0.0000
     0.0000   0.0000

          k = 0.3889 0.4444 0.1683 (   886 PWs)   bands (ev):

     0.3505   1.3331   2.3082   3.2750   7.0746   8.0114   8.9466   9.8797
    13.4059  14.2659

     occupation numbers 
     1.0000   1.0000   1.0000   1.0000   1.0000   1.0000   0.0000   0.0000
     0.0000   0.0000

          k = 0.3889 0.4444 0.2244 (   882 PWs)   bands (ev):

     0.5459   1.5270   2.5001   3.4630   6.2738   7.2134   8.1528   9.0902
    14.5227  15.2724

     occupation numbers 
     1.0000   1.0000   1.0000   1.0000   1.0000   1.0000   1.0004   0.0000
     0.0000   0.0000

          k = 0.3889 0.4444 0.2805 (   877 PWs)   bands (ev):

     0.7967   1.7757   2.7459   3.7003   5.5148   6.4523   7.3949   8.3361
    15.6783  15.8824

     occupation numbers 
     1.0000   1.0000   1.0000   1.0000   1.0000   1.0000   1.0000   1.0479
     0.0000   0.0000

          k = 0.3889 0.4444 0.3365 (   881 PWs)   bands (ev):

     1.1024   2.0788   3.0441   3.9672   4.8243   5.7370   6.6807   7.6250
    16.2155  16.7481

     occupation numbers 
     1.0000   1.0000   1.0000   1.0000   1.0000   1.0000   1.0000   1.0000
     0.0000   0.0000

          k = 0.3889 0.4444 0.3926 (   887 PWs)   bands (ev):

     1.4628   2.4353   3.3903   3.9667   4.5030   5.0750   6.0147   6.9611
    16.5517  17.1961

     occupation numbers 
     1.0000   1.0000   1.0000   1.0000   1.0000   1.0000   1.0000   1.0000
     0.0000   0.0000

          k = 0.3889 0.4444 0.4487 (   891 PWs)   bands (ev):

     1.8769   2.8435   3.4215   3.7581   4.4951   4.8298   5.4005   6.3469
    16.9217  17.5722

     occupation numbers 
     1.0000   1.0000   1.0000   1.0000   1.0000   1.0000   1.0000   1.0000
     0.0000   0.0000

          k = 0.3889 0.4444 0.5048 (   893 PWs)   bands (ev):

     2.3437   2.8609   3.2979   3.7599   4.3855   4.8443   5.2763   5.7844
    17.3246  17.7274

     occupation numbers 
     1.0000   1.0000   1.0000   1.0000   1.0000   1.0000   1.0000   1.0000
     0.0000   0.0000

          k = 0.3889-0.5000 0.0000 (   888 PWs)   bands (ev):

     0.5647   0.5648   2.5199   2.5199   9.5087   9.5088  11.3464  11.3464
    11.4320  11.4321

     occupation numbers 
     1.0000   1.0000   1.0000   1.0000   0.0000   0.0000   0.0000   0.0000
     0.0000   0.0000

          k = 0.3889-0.5000 0.0561 (   888 PWs)   bands (ev):

     0.5926   0.5927   2.5473   2.5473   9.1024   9.1024  10.9500  10.9500
    11.8834  11.8834

     occupation numbers 
     1.0000   1.0000   1.0000   1.0000   0.0000   0.0000   0.0000   0.0000
     0.0000   0.0000

          k = 0.3889-0.5000 0.1122 (   892 PWs)   bands (ev):

     0.6762   0.6763   2.6294   2.6294   8.3351   8.3351  10.1955  10.1955
    12.7848  12.7849

     occupation numbers 
     1.0000   1.0000   1.0000   1.0000   1.0473   1.0473   0.0000   0.0000
     0.0000   0.0000

          k = 0.3889-0.5000 0.1683 (   888 PWs)   bands (ev):

     0.8155   0.8155   2.7660   2.7660   7.5172   7.5173   9.3880   9.3880
    13.8228  13.8229

     occupation numbers 
     1.0000   1.0000   1.0000   1.0000   1.0000   1.0000   0.0000   0.0000
     0.0000   0.0000

          k = 0.3889-0.5000 0.2244 (   878 PWs)   bands (ev):

     1.0102   1.0102   2.9565   2.9565   6.7172   6.7172   8.5963   8.5963
    14.9179  14.9180

     occupation numbers 
     1.0000   1.0000   1.0000   1.0000   1.0000   1.0000   0.4101   0.4101
     0.0000   0.0000

          k = 0.3889-0.5000 0.2805 (   878 PWs)   bands (ev):

     1.2600   1.2601   3.1997   3.1997   5.9554   5.9554   7.8400   7.8400
    15.9737  15.9739

     occupation numbers 
     1.0000   1.0000   1.0000   1.0000   1.0000   1.0000   1.0000   1.0000
     0.0000   0.0000

          k = 0.3889-0.5000 0.3365 (   882 PWs)   bands (ev):

     1.5646   1.5647   3.4916   3.4916   5.2431   5.2431   7.1272   7.1272
    16.5442  16.5443

     occupation numbers 
     1.0000   1.0000   1.0000   1.0000   1.0000   1.0000   1.0000   1.0000
     0.0000   0.0000

          k = 0.3889-0.5000 0.3926 (   888 PWs)   bands (ev):

     1.9233   1.9234   3.8096   3.8098   4.6061   4.6062   6.4619   6.4619
    16.9000  16.9001

     occupation numbers 
     1.0000   1.0000   1.0000   1.0000   1.0000   1.0000   1.0000   1.0000
     0.0000   0.0000

          k = 0.3889-0.5000 0.4487 (   890 PWs)   bands (ev):

     2.3352   2.3352   3.8117   3.8119   4.3887   4.3888   5.8469   5.8469
    17.2752  17.2752

     occupation numbers 
     1.0000   1.0000   1.0000   1.0000   1.0000   1.0000   1.0000   1.0000
     0.0000   0.0000

          k = 0.3889-0.5000 0.5048 (   890 PWs)   bands (ev):

     2.7982   2.7983   3.3062   3.3062   4.7833   4.7834   5.2852   5.2852
    17.6866  17.6867

     occupation numbers 
     1.0000   1.0000   1.0000   1.0000   1.0000   1.0000   1.0000   1.0000
     0.0000   0.0000

          k = 0.4444 0.4444 0.0000 (   890 PWs)   bands (ev):

     0.5101   1.4918   1.4918   2.4664   9.4576  10.3770  10.3771  11.2953
    11.3887  12.3124

     occupation numbers 
     1.0000   1.0000   1.0000   1.0000   0.0000   0.0000   0.0000   0.0000
     0.0000   0.0000

          k = 0.4444 0.4444 0.0561 (   892 PWs)   bands (ev):

     0.5380   1.5195   1.5195   2.4938   9.0514   9.9762   9.9762  10.8994
    11.8406  12.7574

     occupation numbers 
     1.0000   1.0000   1.0000   1.0000   0.0000   0.0000   0.0000   0.0000
     0.0000   0.0000

          k = 0.4444 0.4444 0.1122 (   888 PWs)   bands (ev):

     0.6217   1.6025   1.6025   2.5760   8.2839   9.2155   9.2155  10.1451
    12.7452  13.6497

     occupation numbers 
     1.0000   1.0000   1.0000   1.0000   1.0189   0.0000   0.0000   0.0000
     0.0000   0.0000

          k = 0.4444 0.4444 0.1683 (   884 PWs)   bands (ev):

     0.7610   1.7407   1.7407   2.7126   7.4656   8.4025   8.4025   9.3373
    13.7906  14.6779

     occupation numbers 
     1.0000   1.0000   1.0000   1.0000   1.0000   1.0832   1.0832   0.0000
     0.0000   0.0000

          k = 0.4444 0.4444 0.2244 (   881 PWs)   bands (ev):

     0.9558   1.9338   1.9338   2.9032   6.6651   7.6060   7.6060   8.5453
    14.9058  15.7620

     occupation numbers 
     1.0000   1.0000   1.0000   1.0000   1.0000   1.0000   1.0000   0.6868
     0.0000   0.0000

          k = 0.4444 0.4444 0.2805 (   883 PWs)   bands (ev):

     1.2057   2.1814   2.1814   3.1465   5.9029   6.8458   6.8458   7.7887
    16.0661  16.8171

     occupation numbers 
     1.0000   1.0000   1.0000   1.0000   1.0000   1.0000   1.0000   1.0000
     0.0000   0.0000

          k = 0.4444 0.4444 0.3365 (   881 PWs)   bands (ev):

     1.5104   2.4828   2.4828   3.4387   5.1901   6.1300   6.1300   7.0755
    17.2536  17.3860

     occupation numbers 
     1.0000   1.0000   1.0000   1.0000   1.0000   1.0000   1.0000   1.0000
     0.0000   0.0000

          k = 0.4444 0.4444 0.3926 (   890 PWs)   bands (ev):

     1.8693   2.8363   2.8363   3.7571   4.5527   5.4637   5.4637   6.4099
    17.7291  17.7291

     occupation numbers 
     1.0000   1.0000   1.0000   1.0000   1.0000   1.0000   1.0000   1.0000
     0.0000   0.0000

          k = 0.4444 0.4444 0.4487 (   892 PWs)   bands (ev):

     2.2814   3.2372   3.2372   3.7591   4.3353   4.8535   4.8535   5.7947
    18.0904  18.0904

     occupation numbers 
     1.0000   1.0000   1.0000   1.0000   1.0000   1.0000   1.0000   1.0000
     0.0000   0.0000

          k = 0.4444 0.4444 0.5048 (   888 PWs)   bands (ev):

     2.7446   3.2529   3.6539   3.6539   4.3320   4.3320   4.7305   5.2327
    18.4630  18.4631

     occupation numbers 
     1.0000   1.0000   1.0000   1.0000   1.0000   1.0000   1.0000   1.0000
     0.0000   0.0000

          k = 0.4444-0.5000 0.0000 (   886 PWs)   bands (ev):

     0.9746   0.9747   1.9530   1.9530   9.8918   9.8919  10.8108  10.8108
    11.8286  11.8286

     occupation numbers 
     1.0000   1.0000   1.0000   1.0000   0.0000   0.0000   0.0000   0.0000
     0.0000   0.0000

          k = 0.4444-0.5000 0.0561 (   890 PWs)   bands (ev):

     1.0024   1.0025   1.9806   1.9806   9.4885   9.4885  10.4126  10.4127
    12.2772  12.2772

     occupation numbers 
     1.0000   1.0000   1.0000   1.0000   0.0000   0.0000   0.0000   0.0000
     0.0000   0.0000

          k = 0.4444-0.5000 0.1122 (   882 PWs)   bands (ev):

     1.0858   1.0859   2.0632   2.0633   8.7244   8.7244   9.6552   9.6552
    13.1765  13.1766

     occupation numbers 
     1.0000   1.0000   1.0000   1.0000   0.0379   0.0379   0.0000   0.0000
     0.0000   0.0000

          k = 0.4444-0.5000 0.1683 (   886 PWs)   bands (ev):

     1.2246   1.2247   2.2008   2.2008   7.9086   7.9086   8.8447   8.8447
    14.2156  14.2156

     occupation numbers 
     1.0000   1.0000   1.0000   1.0000   1.0000   1.0000   0.0009   0.0009
     0.0000   0.0000

          k = 0.4444-0.5000 0.2244 (   886 PWs)   bands (ev):

     1.4186   1.4187   2.3929   2.3929   7.1097   7.1097   8.0502   8.0502
    15.3214  15.3214

     occupation numbers 
     1.0000   1.0000   1.0000   1.0000   1.0000   1.0000   1.0000   1.0000
     0.0000   0.0000

          k = 0.4444-0.5000 0.2805 (   886 PWs)   bands (ev):

     1.6676   1.6676   2.6389   2.6389   6.3479   6.3479   7.2916   7.2916
    16.4629  16.4630

     occupation numbers 
     1.0000   1.0000   1.0000   1.0000   1.0000   1.0000   1.0000   1.0000
     0.0000   0.0000

          k = 0.4444-0.5000 0.3365 (   884 PWs)   bands (ev):

     1.9709   1.9709   2.9374   2.9374   5.6317   5.6318   6.5768   6.5768
    17.5317  17.5320

     occupation numbers 
     1.0000   1.0000   1.0000   1.0000   1.0000   1.0000   1.0000   1.0000
     0.0000   0.0000

          k = 0.4444-0.5000 0.3926 (   886 PWs)   bands (ev):

     2.3277   2.3278   3.2841   3.2842   4.9691   4.9691   5.9101   5.9102
    17.9706  17.9706

     occupation numbers 
     1.0000   1.0000   1.0000   1.0000   1.0000   1.0000   1.0000   1.0000
     0.0000   0.0000

          k = 0.4444-0.5000 0.4487 (   892 PWs)   bands (ev):

     2.7363   2.7364   3.6527   3.6528   4.3880   4.3881   5.2952   5.2952
    18.3402  18.3403

     occupation numbers 
     1.0000   1.0000   1.0000   1.0000   1.0000   1.0000   1.0000   1.0000
     0.0000   0.0000

          k = 0.4444-0.5000 0.5048 (   890 PWs)   bands (ev):

     3.1913   3.1914   3.6544   3.6546   4.2783   4.2784   4.7384   4.7384
    18.7446  18.7447

     occupation numbers 
     1.0000   1.0000   1.0000   1.0000   1.0000   1.0000   1.0000   1.0000
     0.0000   0.0000

          k =-0.5000-0.5000 0.0000 (   880 PWs)   bands (ev):

     1.4376   1.4377   1.4377   1.4377  10.3259  10.3259  10.3259  10.3260
    12.2698  12.2698

     occupation numbers 
     1.0000   1.0000   1.0000   1.0000   0.0000   0.0000   0.0000   0.0000
     0.0000   0.0000

          k =-0.5000-0.5000 0.0561 (   888 PWs)   bands (ev):

     1.4653   1.4654   1.4654   1.4654   9.9253   9.9254   9.9254   9.9254
    12.7153  12.7153

     occupation numbers 
     1.0000   1.0000   1.0000   1.0000   0.0000   0.0000   0.0000   0.0000
     0.0000   0.0000

          k =-0.5000-0.5000 0.1122 (   888 PWs)   bands (ev):

     1.5484   1.5484   1.5484   1.5484   9.1646   9.1646   9.1646   9.1646
    13.6103  13.6103

     occupation numbers 
     1.0000   1.0000   1.0000   1.0000   0.0000   0.0000   0.0000   0.0000
     0.0000   0.0000

          k =-0.5000-0.5000 0.1683 (   888 PWs)   bands (ev):

     1.6866   1.6866   1.6866   1.6867   8.3513   8.3513   8.3513   8.3513
    14.6452  14.6452

     occupation numbers 
     1.0000   1.0000   1.0000   1.0000   1.0584   1.0584   1.0584   1.0584
     0.0000   0.0000

          k =-0.5000-0.5000 0.2244 (   888 PWs)   bands (ev):

     1.8798   1.8798   1.8798   1.8799   7.5544   7.5544   7.5544   7.5544
    15.7467  15.7467

     occupation numbers 
     1.0000   1.0000   1.0000   1.0000   1.0000   1.0000   1.0000   1.0000
     0.0000   0.0000

          k =-0.5000-0.5000 0.2805 (   888 PWs)   bands (ev):

     2.1275   2.1276   2.1276   2.1276   6.7938   6.7938   6.7938   6.7938
    16.8867  16.8867

     occupation numbers 
     1.0000   1.0000   1.0000   1.0000   1.0000   1.0000   1.0000   1.0000
     0.0000   0.0000

          k =-0.5000-0.5000 0.3365 (   884 PWs)   bands (ev):

     2.4290   2.4291   2.4291   2.4291   6.0777   6.0777   6.0777   6.0777
    18.0396  18.0397

     occupation numbers 
     1.0000   1.0000   1.0000   1.0000   1.0000   1.0000   1.0000   1.0000
     0.0000   0.0000

          k =-0.5000-0.5000 0.3926 (   896 PWs)   bands (ev):

     2.7828   2.7828   2.7828   2.7829   5.4110   5.4110   5.4110   5.4110
    18.7231  18.7233

     occupation numbers 
     1.0000   1.0000   1.0000   1.0000   1.0000   1.0000   1.0000   1.0000
     0.0000   0.0000

          k =-0.5000-0.5000 0.4487 (   896 PWs)   bands (ev):

     3.1839   3.1840   3.1840   3.1841   4.8004   4.8005   4.8005   4.8005
    19.0853  19.0854

     occupation numbers 
     1.0000   1.0000   1.0000   1.0000   1.0000   1.0000   1.0000   1.0000
     0.0000   0.0000

          k =-0.5000-0.5000 0.5048 (   896 PWs)   bands (ev):

     3.6010   3.6012   3.6012   3.6013   4.2783   4.2784   4.2784   4.2785
    19.4889  19.4892

     occupation numbers 
     1.0000   1.0000   1.0000   1.0000   1.0000   1.0000   1.0000   1.0000
     0.0000   0.0000

     the Fermi energy is     8.5982 ev

!    total energy              =     -26.82289187 Ry
     Harris-Foulkes estimate   =     -26.82289188 Ry
     estimated scf accuracy    <       0.00000004 Ry

     The total energy is the sum of the following terms:

     one-electron contribution =      12.54955157 Ry
     hartree contribution      =       0.03532851 Ry
     xc contribution           =     -17.31955018 Ry
     ewald contribution        =     -22.08816257 Ry
     smearing contrib. (-TS)   =      -0.00005921 Ry

     convergence has been achieved in   5 iterations
 
     init_run     :    106.28s CPU      5.79s WALL (       1 calls)
     electrons    :   1264.91s CPU     66.49s WALL (       1 calls)

     Called by init_run:
     wfcinit      :    105.98s CPU      5.59s WALL (       1 calls)
     wfcinit:atom :      2.23s CPU      0.12s WALL (     550 calls)
     wfcinit:wfcr :     94.25s CPU      4.97s WALL (     550 calls)
     potinit      :      0.06s CPU      0.01s WALL (       1 calls)

     Called by electrons:
     c_bands      :   1080.68s CPU     56.82s WALL (       6 calls)
     sum_band     :    182.57s CPU      9.58s WALL (       6 calls)
     v_of_rho     :      0.65s CPU      0.04s WALL (       6 calls)
     v_h          :      0.02s CPU      0.00s WALL (       6 calls)
     v_xc         :      0.62s CPU      0.04s WALL (       6 calls)
     newd         :      0.53s CPU      0.03s WALL (       6 calls)
     mix_rho      :      0.13s CPU      0.01s WALL (       6 calls)

     Called by c_bands:
     init_us_2    :     38.67s CPU      2.04s WALL (    7150 calls)
     cegterg      :    984.41s CPU     51.78s WALL (    3300 calls)

     Called by sum_band:
     sum_band:bec :      1.16s CPU      0.06s WALL (    3300 calls)
     addusdens    :      0.78s CPU      0.04s WALL (       6 calls)

     Called by *egterg:
     h_psi        :    946.18s CPU     49.71s WALL (   11579 calls)
     s_psi        :      7.22s CPU      0.39s WALL (   11579 calls)
     g_psi        :      7.64s CPU      0.41s WALL (    7729 calls)
     cdiaghg      :     39.36s CPU      2.10s WALL (   10479 calls)
     cegterg:over :      8.29s CPU      0.44s WALL (    7729 calls)
     cegterg:upda :     10.86s CPU      0.58s WALL (    7729 calls)
     cegterg:last :      4.04s CPU      0.21s WALL (    3303 calls)

     Called by h_psi:
     h_psi:pot    :    936.76s CPU     49.20s WALL (   11579 calls)
     h_psi:calbec :     22.69s CPU      1.21s WALL (   11579 calls)
     vloc_psi     :    893.67s CPU     46.91s WALL (   11579 calls)
     add_vuspsi   :     10.97s CPU      0.58s WALL (   11579 calls)

     General routines
     calbec       :     23.03s CPU      1.22s WALL (   14879 calls)
     fft          :      0.21s CPU      0.02s WALL (      80 calls)
     fftw         :    891.91s CPU     46.87s WALL (  216310 calls)
 
     Parallel routines
 
     PWSCF        : 22m51.36s CPU     1m12.33s WALL

 
   This run was terminated on:  17: 8:32  24Jan2019            

=------------------------------------------------------------------------------=
   JOB DONE.
=------------------------------------------------------------------------------=
