
     Program PWSCF v.6.2 (svn rev. 14038) starts on 31Jan2019 at  0: 9:53 

     This program is part of the open-source Quantum ESPRESSO suite
     for quantum simulation of materials; please cite
         "P. Giannozzi et al., J. Phys.:Condens. Matter 21 395502 (2009);
         "P. Giannozzi et al., J. Phys.:Condens. Matter 29 465901 (2017);
          URL http://www.quantum-espresso.org", 
     in publications or presentations arising from this work. More details at
     http://www.quantum-espresso.org/quote

     Parallel version (MPI), running on     1 processors

     MPI processes distributed on     1 nodes
     Reading input from ./c65841f6eb11.in
Warning: card &CELL ignored
Warning: card / ignored

     Current dimensions of program PWSCF are:
     Max number of different atomic species (ntypx) = 10
     Max number of k-points (npk) =  40000
     Max angular momentum in pseudopotentials (lmaxx) =  3
     Message from routine iosys:
     minimal I/O required, wf_collect reset to FALSE

     Subspace diagonalization in iterative solution of the eigenvalue problem:
     a serial algorithm will be used

 
     G-vector sticks info
     --------------------
     sticks:   dense  smooth     PW     G-vecs:    dense   smooth      PW
     Sum         295     295    109                 3287     3287     701
 


     bravais-lattice index     =            0
     lattice parameter (alat)  =       5.5029  a.u.
     unit-cell volume          =     117.8340 (a.u.)^3
     number of atoms/cell      =            1
     number of atomic types    =            1
     number of electrons       =         4.00
     number of Kohn-Sham states=            6
     kinetic-energy cutoff     =      35.0000  Ry
     charge density cutoff     =     140.0000  Ry
     convergence threshold     =      1.0E-06
     mixing beta               =       0.7000
     number of iterations used =            8  plain     mixing
     Exchange-correlation      = SLA  PW   PBE  PBE ( 1  4  3  4 0 0)
     nstep                     =           50


     celldm(1)=   5.502945  celldm(2)=   0.000000  celldm(3)=   0.000000
     celldm(4)=   0.000000  celldm(5)=   0.000000  celldm(6)=   0.000000

     crystal axes: (cart. coord. in units of alat)
               a(1) = (   0.866026   0.000000   0.500000 )  
               a(2) = (   0.288675   0.816497   0.500000 )  
               a(3) = (   0.000000   0.000000   1.000000 )  

     reciprocal axes: (cart. coord. in units 2 pi/alat)
               b(1) = (  1.154700 -0.408248  0.000000 )  
               b(2) = (  0.000000  1.224745  0.000000 )  
               b(3) = ( -0.577350 -0.408248  1.000000 )  


     PseudoPot. # 1 for Si read from file:
     ./si_pbe_v1.uspp.F.UPF
     MD5 check sum: a056efeee980c13900f22a371efd63c1
     Pseudo is Ultrasoft + core correction, Zval =  4.0
     Generated by new atomic code, or converted to UPF format
     Using radial grid of  899 points,  6 beta functions with: 
                l(1) =   0
                l(2) =   0
                l(3) =   1
                l(4) =   1
                l(5) =   2
                l(6) =   2
     Q(r) pseudized with  8 coefficients,  rinner =    0.900   0.900   0.900
                                                       0.900   0.900

     atomic species   valence    mass     pseudopotential
        Si             4.00    28.08550     Si( 1.00)

      4 Sym. Ops., with inversion, found


                                    s                        frac. trans.

      isym =  1     identity                                     

 cryst.   s( 1) = (     1          0          0      )
                  (     0          1          0      )
                  (     0          0          1      )

 cart.    s( 1) = (  1.0000000 -0.0000000  0.0000000 )
                  (  0.0000000  1.0000000  0.0000000 )
                  (  0.0000000  0.0000000  1.0000000 )


      isym =  2     180 deg rotation - cart. axis [0,0,1]        

 cryst.   s( 2) = (    -1          0          1      )
                  (     0         -1          1      )
                  (     0          0          1      )

 cart.    s( 2) = ( -1.0000000  0.0000000  0.0000000 )
                  (  0.0000000 -1.0000000  0.0000000 )
                  (  0.0000008  0.0000006  1.0000000 )


      isym =  3     inversion                                    

 cryst.   s( 3) = (    -1          0          0      )
                  (     0         -1          0      )
                  (     0          0         -1      )

 cart.    s( 3) = ( -1.0000000  0.0000000  0.0000000 )
                  (  0.0000000 -1.0000000  0.0000000 )
                  (  0.0000000  0.0000000 -1.0000000 )


      isym =  4     inv. 180 deg rotation - cart. axis [0,0,1]   

 cryst.   s( 4) = (     1          0         -1      )
                  (     0          1         -1      )
                  (     0          0         -1      )

 cart.    s( 4) = (  1.0000000 -0.0000000  0.0000000 )
                  (  0.0000000  1.0000000  0.0000000 )
                  ( -0.0000008 -0.0000006 -1.0000000 )


   Cartesian axes

     site n.     atom                  positions (alat units)
         1           Si  tau(   1) = (   0.0000000   0.0000000   0.0000000  )

   Crystallographic axes

     site n.     atom                  positions (cryst. coord.)
         1           Si  tau(   1) = (  0.0000000  0.0000000  0.0000000  )

     number of k points=   476  Marzari-Vanderbilt smearing, width (Ry)=  0.0038
                       cart. coord. in units 2pi/alat
        k(    1) = (   0.0000000   0.0000000   0.0000000), wk =   0.0011574
        k(    2) = (  -0.0481125  -0.0340207   0.0833333), wk =   0.0046296
        k(    3) = (  -0.0962250  -0.0680414   0.1666666), wk =   0.0046296
        k(    4) = (  -0.1443374  -0.1020620   0.2499999), wk =   0.0046296
        k(    5) = (  -0.1924499  -0.1360827   0.3333332), wk =   0.0046296
        k(    6) = (  -0.2405624  -0.1701034   0.4166665), wk =   0.0046296
        k(    7) = (   0.2886749   0.2041241  -0.4999999), wk =   0.0023148
        k(    8) = (   0.0000000   0.1020621   0.0000000), wk =   0.0023148
        k(    9) = (  -0.0481125   0.0680414   0.0833333), wk =   0.0046296
        k(   10) = (  -0.0962250   0.0340207   0.1666666), wk =   0.0046296
        k(   11) = (  -0.1443374   0.0000000   0.2499999), wk =   0.0046296
        k(   12) = (  -0.1924499  -0.0340207   0.3333332), wk =   0.0046296
        k(   13) = (  -0.2405624  -0.0680413   0.4166665), wk =   0.0046296
        k(   14) = (   0.2886749   0.3061862  -0.4999999), wk =   0.0046296
        k(   15) = (   0.2405624   0.2721655  -0.4166665), wk =   0.0046296
        k(   16) = (   0.1924499   0.2381448  -0.3333332), wk =   0.0046296
        k(   17) = (   0.1443374   0.2041241  -0.2499999), wk =   0.0046296
        k(   18) = (   0.0962250   0.1701034  -0.1666666), wk =   0.0046296
        k(   19) = (   0.0481125   0.1360828  -0.0833333), wk =   0.0046296
        k(   20) = (   0.0000000   0.2041242   0.0000000), wk =   0.0023148
        k(   21) = (  -0.0481125   0.1701035   0.0833333), wk =   0.0046296
        k(   22) = (  -0.0962250   0.1360828   0.1666666), wk =   0.0046296
        k(   23) = (  -0.1443374   0.1020621   0.2499999), wk =   0.0046296
        k(   24) = (  -0.1924499   0.0680414   0.3333332), wk =   0.0046296
        k(   25) = (  -0.2405624   0.0340207   0.4166665), wk =   0.0046296
        k(   26) = (   0.2886749   0.4082482  -0.4999999), wk =   0.0046296
        k(   27) = (   0.2405624   0.3742276  -0.4166665), wk =   0.0046296
        k(   28) = (   0.1924499   0.3402069  -0.3333332), wk =   0.0046296
        k(   29) = (   0.1443374   0.3061862  -0.2499999), wk =   0.0046296
        k(   30) = (   0.0962250   0.2721655  -0.1666666), wk =   0.0046296
        k(   31) = (   0.0481125   0.2381448  -0.0833333), wk =   0.0046296
        k(   32) = (   0.0000000   0.3061862   0.0000000), wk =   0.0023148
        k(   33) = (  -0.0481125   0.2721655   0.0833333), wk =   0.0046296
        k(   34) = (  -0.0962250   0.2381449   0.1666666), wk =   0.0046296
        k(   35) = (  -0.1443374   0.2041242   0.2499999), wk =   0.0046296
        k(   36) = (  -0.1924499   0.1701035   0.3333332), wk =   0.0046296
        k(   37) = (  -0.2405624   0.1360828   0.4166665), wk =   0.0046296
        k(   38) = (   0.2886749   0.5103103  -0.4999999), wk =   0.0046296
        k(   39) = (   0.2405624   0.4762896  -0.4166665), wk =   0.0046296
        k(   40) = (   0.1924499   0.4422690  -0.3333332), wk =   0.0046296
        k(   41) = (   0.1443374   0.4082483  -0.2499999), wk =   0.0046296
        k(   42) = (   0.0962250   0.3742276  -0.1666666), wk =   0.0046296
        k(   43) = (   0.0481125   0.3402069  -0.0833333), wk =   0.0046296
        k(   44) = (   0.0000000   0.4082483   0.0000000), wk =   0.0023148
        k(   45) = (  -0.0481125   0.3742276   0.0833333), wk =   0.0046296
        k(   46) = (  -0.0962250   0.3402069   0.1666666), wk =   0.0046296
        k(   47) = (  -0.1443374   0.3061863   0.2499999), wk =   0.0046296
        k(   48) = (  -0.1924499   0.2721656   0.3333332), wk =   0.0046296
        k(   49) = (  -0.2405624   0.2381449   0.4166665), wk =   0.0046296
        k(   50) = (   0.2886749   0.6123724  -0.4999999), wk =   0.0046296
        k(   51) = (   0.2405624   0.5783517  -0.4166665), wk =   0.0046296
        k(   52) = (   0.1924499   0.5443310  -0.3333332), wk =   0.0046296
        k(   53) = (   0.1443374   0.5103104  -0.2499999), wk =   0.0046296
        k(   54) = (   0.0962250   0.4762897  -0.1666666), wk =   0.0046296
        k(   55) = (   0.0481125   0.4422690  -0.0833333), wk =   0.0046296
        k(   56) = (   0.0000000   0.5103104   0.0000000), wk =   0.0023148
        k(   57) = (  -0.0481125   0.4762897   0.0833333), wk =   0.0046296
        k(   58) = (  -0.0962250   0.4422690   0.1666666), wk =   0.0046296
        k(   59) = (  -0.1443374   0.4082483   0.2499999), wk =   0.0046296
        k(   60) = (  -0.1924499   0.3742277   0.3333332), wk =   0.0046296
        k(   61) = (  -0.2405624   0.3402070   0.4166665), wk =   0.0046296
        k(   62) = (   0.2886749   0.7144345  -0.4999999), wk =   0.0046296
        k(   63) = (   0.2405624   0.6804138  -0.4166665), wk =   0.0046296
        k(   64) = (   0.1924499   0.6463931  -0.3333332), wk =   0.0046296
        k(   65) = (   0.1443374   0.6123724  -0.2499999), wk =   0.0046296
        k(   66) = (   0.0962250   0.5783517  -0.1666666), wk =   0.0046296
        k(   67) = (   0.0481125   0.5443311  -0.0833333), wk =   0.0046296
        k(   68) = (   0.0000000  -0.6123725   0.0000000), wk =   0.0011574
        k(   69) = (  -0.0481125  -0.6463931   0.0833333), wk =   0.0046296
        k(   70) = (  -0.0962250  -0.6804138   0.1666666), wk =   0.0046296
        k(   71) = (  -0.1443374  -0.7144345   0.2499999), wk =   0.0046296
        k(   72) = (  -0.1924499  -0.7484552   0.3333332), wk =   0.0046296
        k(   73) = (  -0.2405624  -0.7824759   0.4166665), wk =   0.0046296
        k(   74) = (   0.2886749  -0.4082484  -0.4999999), wk =   0.0023148
        k(   75) = (   0.0962250  -0.0340207   0.0000000), wk =   0.0023148
        k(   76) = (   0.0000001  -0.1020620   0.1666666), wk =   0.0046296
        k(   77) = (  -0.0481124  -0.1360827   0.2499999), wk =   0.0046296
        k(   78) = (  -0.0962249  -0.1701034   0.3333332), wk =   0.0046296
        k(   79) = (  -0.1443374  -0.2041241   0.4166665), wk =   0.0046296
        k(   80) = (   0.3848999   0.1701034  -0.4999999), wk =   0.0046296
        k(   81) = (   0.3367874   0.1360827  -0.4166665), wk =   0.0046296
        k(   82) = (   0.2886750   0.1020621  -0.3333332), wk =   0.0046296
        k(   83) = (   0.2405625   0.0680414  -0.2499999), wk =   0.0046296
        k(   84) = (   0.1924500   0.0340207  -0.1666666), wk =   0.0046296
        k(   85) = (   0.1443375   0.0000000  -0.0833333), wk =   0.0046296
        k(   86) = (   0.0962250   0.0680414   0.0000000), wk =   0.0023148
        k(   87) = (   0.0000001   0.0000000   0.1666666), wk =   0.0023148
        k(   88) = (  -0.0481124  -0.0340206   0.2499999), wk =   0.0046296
        k(   89) = (  -0.0962249  -0.0680413   0.3333332), wk =   0.0046296
        k(   90) = (  -0.1443374  -0.1020620   0.4166665), wk =   0.0046296
        k(   91) = (   0.3848999   0.2721655  -0.4999999), wk =   0.0046296
        k(   92) = (   0.3367874   0.2381448  -0.4166665), wk =   0.0046296
        k(   93) = (   0.2886750   0.2041241  -0.3333332), wk =   0.0046296
        k(   94) = (   0.2405625   0.1701035  -0.2499999), wk =   0.0046296
        k(   95) = (   0.1924500   0.1360828  -0.1666666), wk =   0.0046296
        k(   96) = (   0.1443375   0.1020621  -0.0833333), wk =   0.0046296
        k(   97) = (   0.0962250   0.1701035   0.0000000), wk =   0.0023148
        k(   98) = (  -0.0481124   0.0680414   0.2499999), wk =   0.0046296
        k(   99) = (  -0.0962249   0.0340208   0.3333332), wk =   0.0046296
        k(  100) = (  -0.1443374   0.0000001   0.4166665), wk =   0.0046296
        k(  101) = (   0.3848999   0.3742276  -0.4999999), wk =   0.0046296
        k(  102) = (   0.3367874   0.3402069  -0.4166665), wk =   0.0046296
        k(  103) = (   0.2886750   0.3061862  -0.3333332), wk =   0.0046296
        k(  104) = (   0.2405625   0.2721655  -0.2499999), wk =   0.0046296
        k(  105) = (   0.1924500   0.2381449  -0.1666666), wk =   0.0046296
        k(  106) = (   0.1443375   0.2041242  -0.0833333), wk =   0.0046296
        k(  107) = (   0.0962250   0.2721656   0.0000000), wk =   0.0023148
        k(  108) = (   0.0000001   0.2041242   0.1666666), wk =   0.0046296
        k(  109) = (  -0.0481124   0.1701035   0.2499999), wk =   0.0046296
        k(  110) = (  -0.0962249   0.1360828   0.3333332), wk =   0.0046296
        k(  111) = (  -0.1443374   0.1020622   0.4166665), wk =   0.0046296
        k(  112) = (   0.3848999   0.4762897  -0.4999999), wk =   0.0046296
        k(  113) = (   0.3367874   0.4422690  -0.4166665), wk =   0.0046296
        k(  114) = (   0.2886750   0.4082483  -0.3333332), wk =   0.0046296
        k(  115) = (   0.2405625   0.3742276  -0.2499999), wk =   0.0046296
        k(  116) = (   0.1924500   0.3402069  -0.1666666), wk =   0.0046296
        k(  117) = (   0.1443375   0.3061862  -0.0833333), wk =   0.0046296
        k(  118) = (   0.0962250   0.3742276   0.0000000), wk =   0.0023148
        k(  119) = (   0.0000001   0.3061863   0.1666666), wk =   0.0046296
        k(  120) = (  -0.0481124   0.2721656   0.2499999), wk =   0.0046296
        k(  121) = (  -0.0962249   0.2381449   0.3333332), wk =   0.0046296
        k(  122) = (  -0.1443374   0.2041242   0.4166665), wk =   0.0046296
        k(  123) = (   0.3848999   0.5783517  -0.4999999), wk =   0.0046296
        k(  124) = (   0.3367874   0.5443311  -0.4166665), wk =   0.0046296
        k(  125) = (   0.2886750   0.5103104  -0.3333332), wk =   0.0046296
        k(  126) = (   0.2405625   0.4762897  -0.2499999), wk =   0.0046296
        k(  127) = (   0.1924500   0.4422690  -0.1666666), wk =   0.0046296
        k(  128) = (   0.1443375   0.4082483  -0.0833333), wk =   0.0046296
        k(  129) = (   0.0962250   0.4762897   0.0000000), wk =   0.0023148
        k(  130) = (   0.0000001   0.4082484   0.1666666), wk =   0.0046296
        k(  131) = (  -0.0481124   0.3742277   0.2499999), wk =   0.0046296
        k(  132) = (  -0.0962249   0.3402070   0.3333332), wk =   0.0046296
        k(  133) = (  -0.1443374   0.3061863   0.4166665), wk =   0.0046296
        k(  134) = (   0.3848999   0.6804138  -0.4999999), wk =   0.0046296
        k(  135) = (   0.3367874   0.6463931  -0.4166665), wk =   0.0046296
        k(  136) = (   0.2886750   0.6123724  -0.3333332), wk =   0.0046296
        k(  137) = (   0.2405625   0.5783518  -0.2499999), wk =   0.0046296
        k(  138) = (   0.1924500   0.5443311  -0.1666666), wk =   0.0046296
        k(  139) = (   0.1443375   0.5103104  -0.0833333), wk =   0.0046296
        k(  140) = (   0.0962250  -0.6463931   0.0000000), wk =   0.0023148
        k(  141) = (   0.0000001  -0.7144345   0.1666666), wk =   0.0046296
        k(  142) = (  -0.0481124  -0.7484552   0.2499999), wk =   0.0046296
        k(  143) = (  -0.0962249  -0.7824759   0.3333332), wk =   0.0046296
        k(  144) = (  -0.1443374  -0.8164965   0.4166665), wk =   0.0046296
        k(  145) = (   0.3848999  -0.4422690  -0.4999999), wk =   0.0046296
        k(  146) = (   0.3367874  -0.4762897  -0.4166665), wk =   0.0046296
        k(  147) = (   0.2886750  -0.5103104  -0.3333332), wk =   0.0046296
        k(  148) = (   0.2405625  -0.5443311  -0.2499999), wk =   0.0046296
        k(  149) = (   0.1924500  -0.5783518  -0.1666666), wk =   0.0046296
        k(  150) = (   0.1443375  -0.6123724  -0.0833333), wk =   0.0046296
        k(  151) = (   0.0962250  -0.5443310   0.0000000), wk =   0.0023148
        k(  152) = (   0.0000001  -0.6123724   0.1666666), wk =   0.0023148
        k(  153) = (  -0.0481124  -0.6463931   0.2499999), wk =   0.0046296
        k(  154) = (  -0.0962249  -0.6804138   0.3333332), wk =   0.0046296
        k(  155) = (  -0.1443374  -0.7144345   0.4166665), wk =   0.0046296
        k(  156) = (   0.3848999  -0.3402070  -0.4999999), wk =   0.0046296
        k(  157) = (   0.3367874  -0.3742276  -0.4166665), wk =   0.0046296
        k(  158) = (   0.2886750  -0.4082483  -0.3333332), wk =   0.0046296
        k(  159) = (   0.2405625  -0.4422690  -0.2499999), wk =   0.0046296
        k(  160) = (   0.1924500  -0.4762897  -0.1666666), wk =   0.0046296
        k(  161) = (   0.1443375  -0.5103104  -0.0833333), wk =   0.0046296
        k(  162) = (   0.0962250  -0.4422690   0.0000000), wk =   0.0023148
        k(  163) = (  -0.0481124  -0.5443310   0.2499999), wk =   0.0046296
        k(  164) = (  -0.0962249  -0.5783517   0.3333332), wk =   0.0046296
        k(  165) = (  -0.1443374  -0.6123724   0.4166665), wk =   0.0046296
        k(  166) = (   0.3848999  -0.2381449  -0.4999999), wk =   0.0046296
        k(  167) = (   0.3367874  -0.2721656  -0.4166665), wk =   0.0046296
        k(  168) = (   0.2886750  -0.3061862  -0.3333332), wk =   0.0046296
        k(  169) = (   0.2405625  -0.3402069  -0.2499999), wk =   0.0046296
        k(  170) = (   0.1924500  -0.3742276  -0.1666666), wk =   0.0046296
        k(  171) = (   0.1443375  -0.4082483  -0.0833333), wk =   0.0046296
        k(  172) = (   0.0962250  -0.3402069   0.0000000), wk =   0.0023148
        k(  173) = (  -0.0481124  -0.4422689   0.2499999), wk =   0.0046296
        k(  174) = (  -0.0962249  -0.4762896   0.3333332), wk =   0.0046296
        k(  175) = (  -0.1443374  -0.5103103   0.4166665), wk =   0.0046296
        k(  176) = (   0.3848999  -0.1360828  -0.4999999), wk =   0.0046296
        k(  177) = (   0.3367874  -0.1701035  -0.4166665), wk =   0.0046296
        k(  178) = (   0.2886750  -0.2041242  -0.3333332), wk =   0.0046296
        k(  179) = (   0.2405625  -0.2381448  -0.2499999), wk =   0.0046296
        k(  180) = (   0.1924500  -0.2721655  -0.1666666), wk =   0.0046296
        k(  181) = (   0.1443375  -0.3061862  -0.0833333), wk =   0.0046296
        k(  182) = (   0.0962250  -0.2381448   0.0000000), wk =   0.0023148
        k(  183) = (  -0.0481124  -0.3402069   0.2499999), wk =   0.0046296
        k(  184) = (  -0.0962249  -0.3742275   0.3333332), wk =   0.0046296
        k(  185) = (  -0.1443374  -0.4082482   0.4166665), wk =   0.0046296
        k(  186) = (   0.3848999  -0.0340207  -0.4999999), wk =   0.0046296
        k(  187) = (   0.3367874  -0.0680414  -0.4166665), wk =   0.0046296
        k(  188) = (   0.2886750  -0.1020621  -0.3333332), wk =   0.0046296
        k(  189) = (   0.2405625  -0.1360828  -0.2499999), wk =   0.0046296
        k(  190) = (   0.1924500  -0.1701035  -0.1666666), wk =   0.0046296
        k(  191) = (   0.1443375  -0.2041241  -0.0833333), wk =   0.0046296
        k(  192) = (   0.0962250  -0.1360827   0.0000000), wk =   0.0023148
        k(  193) = (  -0.0481124  -0.2381448   0.2499999), wk =   0.0046296
        k(  194) = (  -0.0962249  -0.2721655   0.3333332), wk =   0.0046296
        k(  195) = (  -0.1443374  -0.3061862   0.4166665), wk =   0.0046296
        k(  196) = (   0.3848999   0.0680414  -0.4999999), wk =   0.0046296
        k(  197) = (   0.3367874   0.0340207  -0.4166665), wk =   0.0046296
        k(  198) = (   0.2886750  -0.0000000  -0.3333332), wk =   0.0046296
        k(  199) = (   0.2405625  -0.0340207  -0.2499999), wk =   0.0046296
        k(  200) = (   0.1924500  -0.0680414  -0.1666666), wk =   0.0046296
        k(  201) = (   0.1443375  -0.1020621  -0.0833333), wk =   0.0046296
        k(  202) = (   0.1924501  -0.0680413   0.0000000), wk =   0.0023148
        k(  203) = (   0.0000001  -0.2041241   0.3333332), wk =   0.0046296
        k(  204) = (  -0.0481124  -0.2381447   0.4166665), wk =   0.0046296
        k(  205) = (   0.4811250   0.1360828  -0.4999999), wk =   0.0046296
        k(  206) = (   0.4330125   0.1020621  -0.4166665), wk =   0.0046296
        k(  207) = (   0.3849000   0.0680414  -0.3333332), wk =   0.0046296
        k(  208) = (   0.3367875   0.0340207  -0.2499999), wk =   0.0046296
        k(  209) = (   0.2886750   0.0000000  -0.1666666), wk =   0.0046296
        k(  210) = (   0.2405625  -0.0340206  -0.0833333), wk =   0.0046296
        k(  211) = (   0.1924501   0.0340207   0.0000000), wk =   0.0023148
        k(  212) = (   0.0000001  -0.1020620   0.3333332), wk =   0.0046296
        k(  213) = (  -0.0481124  -0.1360827   0.4166665), wk =   0.0046296
        k(  214) = (   0.4811250   0.2381448  -0.4999999), wk =   0.0046296
        k(  215) = (   0.4330125   0.2041242  -0.4166665), wk =   0.0046296
        k(  216) = (   0.3849000   0.1701035  -0.3333332), wk =   0.0046296
        k(  217) = (   0.3367875   0.1360828  -0.2499999), wk =   0.0046296
        k(  218) = (   0.2886750   0.1020621  -0.1666666), wk =   0.0046296
        k(  219) = (   0.2405625   0.0680414  -0.0833333), wk =   0.0046296
        k(  220) = (   0.1924501   0.1360828   0.0000000), wk =   0.0023148
        k(  221) = (   0.0000001   0.0000001   0.3333332), wk =   0.0023148
        k(  222) = (  -0.0481124  -0.0340206   0.4166665), wk =   0.0046296
        k(  223) = (   0.4811250   0.3402069  -0.4999999), wk =   0.0046296
        k(  224) = (   0.4330125   0.3061862  -0.4166665), wk =   0.0046296
        k(  225) = (   0.3849000   0.2721656  -0.3333332), wk =   0.0046296
        k(  226) = (   0.3367875   0.2381449  -0.2499999), wk =   0.0046296
        k(  227) = (   0.2886750   0.2041242  -0.1666666), wk =   0.0046296
        k(  228) = (   0.2405625   0.1701035  -0.0833333), wk =   0.0046296
        k(  229) = (   0.1924501   0.2381449   0.0000000), wk =   0.0023148
        k(  230) = (  -0.0481124   0.0680415   0.4166665), wk =   0.0046296
        k(  231) = (   0.4811250   0.4422690  -0.4999999), wk =   0.0046296
        k(  232) = (   0.4330125   0.4082483  -0.4166665), wk =   0.0046296
        k(  233) = (   0.3849000   0.3742276  -0.3333332), wk =   0.0046296
        k(  234) = (   0.3367875   0.3402069  -0.2499999), wk =   0.0046296
        k(  235) = (   0.2886750   0.3061863  -0.1666666), wk =   0.0046296
        k(  236) = (   0.2405625   0.2721656  -0.0833333), wk =   0.0046296
        k(  237) = (   0.1924501   0.3402070   0.0000000), wk =   0.0023148
        k(  238) = (  -0.0481124   0.1701036   0.4166665), wk =   0.0046296
        k(  239) = (   0.4811250   0.5443311  -0.4999999), wk =   0.0046296
        k(  240) = (   0.4330125   0.5103104  -0.4166665), wk =   0.0046296
        k(  241) = (   0.3849000   0.4762897  -0.3333332), wk =   0.0046296
        k(  242) = (   0.3367875   0.4422690  -0.2499999), wk =   0.0046296
        k(  243) = (   0.2886750   0.4082483  -0.1666666), wk =   0.0046296
        k(  244) = (   0.2405625   0.3742277  -0.0833333), wk =   0.0046296
        k(  245) = (   0.1924501   0.4422691   0.0000000), wk =   0.0023148
        k(  246) = (   0.0000001   0.3061863   0.3333332), wk =   0.0046296
        k(  247) = (  -0.0481124   0.2721656   0.4166665), wk =   0.0046296
        k(  248) = (   0.4811250   0.6463931  -0.4999999), wk =   0.0046296
        k(  249) = (   0.4330125   0.6123725  -0.4166665), wk =   0.0046296
        k(  250) = (   0.3849000   0.5783518  -0.3333332), wk =   0.0046296
        k(  251) = (   0.3367875   0.5443311  -0.2499999), wk =   0.0046296
        k(  252) = (   0.2886750   0.5103104  -0.1666666), wk =   0.0046296
        k(  253) = (   0.2405625   0.4762897  -0.0833333), wk =   0.0046296
        k(  254) = (   0.1924501  -0.6804138   0.0000000), wk =   0.0023148
        k(  255) = (   0.0000001  -0.8164965   0.3333332), wk =   0.0046296
        k(  256) = (  -0.0481124  -0.8505172   0.4166665), wk =   0.0046296
        k(  257) = (   0.4811250  -0.4762897  -0.4999999), wk =   0.0046296
        k(  258) = (   0.4330125  -0.5103104  -0.4166665), wk =   0.0046296
        k(  259) = (   0.3849000  -0.5443311  -0.3333332), wk =   0.0046296
        k(  260) = (   0.3367875  -0.5783517  -0.2499999), wk =   0.0046296
        k(  261) = (   0.2886750  -0.6123724  -0.1666666), wk =   0.0046296
        k(  262) = (   0.2405625  -0.6463931  -0.0833333), wk =   0.0046296
        k(  263) = (   0.1924501  -0.5783517   0.0000000), wk =   0.0023148
        k(  264) = (   0.0000001  -0.7144344   0.3333332), wk =   0.0046296
        k(  265) = (  -0.0481124  -0.7484551   0.4166665), wk =   0.0046296
        k(  266) = (   0.4811250  -0.3742276  -0.4999999), wk =   0.0046296
        k(  267) = (   0.4330125  -0.4082483  -0.4166665), wk =   0.0046296
        k(  268) = (   0.3849000  -0.4422690  -0.3333332), wk =   0.0046296
        k(  269) = (   0.3367875  -0.4762897  -0.2499999), wk =   0.0046296
        k(  270) = (   0.2886750  -0.5103104  -0.1666666), wk =   0.0046296
        k(  271) = (   0.2405625  -0.5443310  -0.0833333), wk =   0.0046296
        k(  272) = (   0.1924501  -0.4762896   0.0000000), wk =   0.0023148
        k(  273) = (   0.0000001  -0.6123724   0.3333332), wk =   0.0023148
        k(  274) = (  -0.0481124  -0.6463931   0.4166665), wk =   0.0046296
        k(  275) = (   0.4811250  -0.2721655  -0.4999999), wk =   0.0046296
        k(  276) = (   0.4330125  -0.3061862  -0.4166665), wk =   0.0046296
        k(  277) = (   0.3849000  -0.3402069  -0.3333332), wk =   0.0046296
        k(  278) = (   0.3367875  -0.3742276  -0.2499999), wk =   0.0046296
        k(  279) = (   0.2886750  -0.4082483  -0.1666666), wk =   0.0046296
        k(  280) = (   0.2405625  -0.4422690  -0.0833333), wk =   0.0046296
        k(  281) = (   0.1924501  -0.3742276   0.0000000), wk =   0.0023148
        k(  282) = (  -0.0481124  -0.5443310   0.4166665), wk =   0.0046296
        k(  283) = (   0.4811250  -0.1701035  -0.4999999), wk =   0.0046296
        k(  284) = (   0.4330125  -0.2041241  -0.4166665), wk =   0.0046296
        k(  285) = (   0.3849000  -0.2381448  -0.3333332), wk =   0.0046296
        k(  286) = (   0.3367875  -0.2721655  -0.2499999), wk =   0.0046296
        k(  287) = (   0.2886750  -0.3061862  -0.1666666), wk =   0.0046296
        k(  288) = (   0.2405625  -0.3402069  -0.0833333), wk =   0.0046296
        k(  289) = (   0.1924501  -0.2721655   0.0000000), wk =   0.0023148
        k(  290) = (  -0.0481124  -0.4422689   0.4166665), wk =   0.0046296
        k(  291) = (   0.4811250  -0.0680414  -0.4999999), wk =   0.0046296
        k(  292) = (   0.4330125  -0.1020621  -0.4166665), wk =   0.0046296
        k(  293) = (   0.3849000  -0.1360828  -0.3333332), wk =   0.0046296
        k(  294) = (   0.3367875  -0.1701034  -0.2499999), wk =   0.0046296
        k(  295) = (   0.2886750  -0.2041241  -0.1666666), wk =   0.0046296
        k(  296) = (   0.2405625  -0.2381448  -0.0833333), wk =   0.0046296
        k(  297) = (   0.1924501  -0.1701034   0.0000000), wk =   0.0023148
        k(  298) = (  -0.0481124  -0.3402068   0.4166665), wk =   0.0046296
        k(  299) = (   0.4811250   0.0340207  -0.4999999), wk =   0.0046296
        k(  300) = (   0.4330125   0.0000000  -0.4166665), wk =   0.0046296
        k(  301) = (   0.3849000  -0.0340207  -0.3333332), wk =   0.0046296
        k(  302) = (   0.3367875  -0.0680414  -0.2499999), wk =   0.0046296
        k(  303) = (   0.2886750  -0.1020620  -0.1666666), wk =   0.0046296
        k(  304) = (   0.2405625  -0.1360827  -0.0833333), wk =   0.0046296
        k(  305) = (   0.2886751  -0.1020620   0.0000000), wk =   0.0023148
        k(  306) = (   0.5773500   0.1020621  -0.4999999), wk =   0.0046296
        k(  307) = (   0.5292375   0.0680414  -0.4166665), wk =   0.0046296
        k(  308) = (   0.4811250   0.0340207  -0.3333332), wk =   0.0046296
        k(  309) = (   0.4330125   0.0000001  -0.2499999), wk =   0.0046296
        k(  310) = (   0.3849001  -0.0340206  -0.1666666), wk =   0.0046296
        k(  311) = (   0.3367876  -0.0680413  -0.0833333), wk =   0.0046296
        k(  312) = (   0.2886751   0.0000001   0.0000000), wk =   0.0023148
        k(  313) = (   0.5773500   0.2041242  -0.4999999), wk =   0.0046296
        k(  314) = (   0.5292375   0.1701035  -0.4166665), wk =   0.0046296
        k(  315) = (   0.4811250   0.1360828  -0.3333332), wk =   0.0046296
        k(  316) = (   0.4330125   0.1020621  -0.2499999), wk =   0.0046296
        k(  317) = (   0.3849001   0.0680414  -0.1666666), wk =   0.0046296
        k(  318) = (   0.3367876   0.0340208  -0.0833333), wk =   0.0046296
        k(  319) = (   0.2886751   0.1020622   0.0000000), wk =   0.0023148
        k(  320) = (   0.5773500   0.3061863  -0.4999999), wk =   0.0046296
        k(  321) = (   0.5292375   0.2721656  -0.4166665), wk =   0.0046296
        k(  322) = (   0.4811250   0.2381449  -0.3333332), wk =   0.0046296
        k(  323) = (   0.4330125   0.2041242  -0.2499999), wk =   0.0046296
        k(  324) = (   0.3849001   0.1701035  -0.1666666), wk =   0.0046296
        k(  325) = (   0.3367876   0.1360828  -0.0833333), wk =   0.0046296
        k(  326) = (   0.2886751   0.2041242   0.0000000), wk =   0.0023148
        k(  327) = (   0.5773500   0.4082483  -0.4999999), wk =   0.0023148
        k(  328) = (   0.5292375   0.3742276  -0.4166665), wk =   0.0046296
        k(  329) = (   0.4811250   0.3402070  -0.3333332), wk =   0.0046296
        k(  330) = (   0.4330125   0.3061863  -0.2499999), wk =   0.0046296
        k(  331) = (   0.3849001   0.2721656  -0.1666666), wk =   0.0046296
        k(  332) = (   0.3367876   0.2381449  -0.0833333), wk =   0.0046296
        k(  333) = (   0.2886751   0.3061863   0.0000000), wk =   0.0023148
        k(  334) = (   0.5292375   0.4762897  -0.4166665), wk =   0.0046296
        k(  335) = (   0.4811250   0.4422690  -0.3333332), wk =   0.0046296
        k(  336) = (   0.4330125   0.4082484  -0.2499999), wk =   0.0046296
        k(  337) = (   0.3849001   0.3742277  -0.1666666), wk =   0.0046296
        k(  338) = (   0.3367876   0.3402070  -0.0833333), wk =   0.0046296
        k(  339) = (   0.2886751   0.4082484   0.0000000), wk =   0.0023148
        k(  340) = (   0.5292375   0.5783518  -0.4166665), wk =   0.0046296
        k(  341) = (   0.4811250   0.5443311  -0.3333332), wk =   0.0046296
        k(  342) = (   0.4330125   0.5103104  -0.2499999), wk =   0.0046296
        k(  343) = (   0.3849001   0.4762898  -0.1666666), wk =   0.0046296
        k(  344) = (   0.3367876   0.4422691  -0.0833333), wk =   0.0046296
        k(  345) = (   0.2886751  -0.7144345   0.0000000), wk =   0.0023148
        k(  346) = (   0.5292375  -0.5443310  -0.4166665), wk =   0.0046296
        k(  347) = (   0.4811250  -0.5783517  -0.3333332), wk =   0.0046296
        k(  348) = (   0.4330125  -0.6123724  -0.2499999), wk =   0.0046296
        k(  349) = (   0.3849001  -0.6463931  -0.1666666), wk =   0.0046296
        k(  350) = (   0.3367876  -0.6804138  -0.0833333), wk =   0.0046296
        k(  351) = (   0.2886751  -0.6123724   0.0000000), wk =   0.0023148
        k(  352) = (   0.5773500  -0.4082483  -0.4999999), wk =   0.0046296
        k(  353) = (   0.5292375  -0.4422690  -0.4166665), wk =   0.0046296
        k(  354) = (   0.4811250  -0.4762897  -0.3333332), wk =   0.0046296
        k(  355) = (   0.4330125  -0.5103103  -0.2499999), wk =   0.0046296
        k(  356) = (   0.3849001  -0.5443310  -0.1666666), wk =   0.0046296
        k(  357) = (   0.3367876  -0.5783517  -0.0833333), wk =   0.0046296
        k(  358) = (   0.2886751  -0.5103103   0.0000000), wk =   0.0023148
        k(  359) = (   0.5773500  -0.3061862  -0.4999999), wk =   0.0046296
        k(  360) = (   0.5292375  -0.3402069  -0.4166665), wk =   0.0046296
        k(  361) = (   0.4811250  -0.3742276  -0.3333332), wk =   0.0046296
        k(  362) = (   0.4330125  -0.4082483  -0.2499999), wk =   0.0046296
        k(  363) = (   0.3849001  -0.4422689  -0.1666666), wk =   0.0046296
        k(  364) = (   0.3367876  -0.4762896  -0.0833333), wk =   0.0046296
        k(  365) = (   0.2886751  -0.4082482   0.0000000), wk =   0.0023148
        k(  366) = (   0.5773500  -0.2041241  -0.4999999), wk =   0.0023148
        k(  367) = (   0.5292375  -0.2381448  -0.4166665), wk =   0.0046296
        k(  368) = (   0.4811250  -0.2721655  -0.3333332), wk =   0.0046296
        k(  369) = (   0.4330125  -0.3061862  -0.2499999), wk =   0.0046296
        k(  370) = (   0.3849001  -0.3402069  -0.1666666), wk =   0.0046296
        k(  371) = (   0.3367876  -0.3742275  -0.0833333), wk =   0.0046296
        k(  372) = (   0.2886751  -0.3061861   0.0000000), wk =   0.0023148
        k(  373) = (   0.5292375  -0.1360827  -0.4166665), wk =   0.0046296
        k(  374) = (   0.4811250  -0.1701034  -0.3333332), wk =   0.0046296
        k(  375) = (   0.4330125  -0.2041241  -0.2499999), wk =   0.0046296
        k(  376) = (   0.3849001  -0.2381448  -0.1666666), wk =   0.0046296
        k(  377) = (   0.3367876  -0.2721655  -0.0833333), wk =   0.0046296
        k(  378) = (   0.2886751  -0.2041241   0.0000000), wk =   0.0023148
        k(  379) = (   0.5292375  -0.0340207  -0.4166665), wk =   0.0046296
        k(  380) = (   0.4811250  -0.0680413  -0.3333332), wk =   0.0046296
        k(  381) = (   0.4330125  -0.1020620  -0.2499999), wk =   0.0046296
        k(  382) = (   0.3849001  -0.1360827  -0.1666666), wk =   0.0046296
        k(  383) = (   0.3367876  -0.1701034  -0.0833333), wk =   0.0046296
        k(  384) = (   0.3849001  -0.1360827   0.0000000), wk =   0.0023148
        k(  385) = (   0.5773501   0.0000001  -0.3333332), wk =   0.0046296
        k(  386) = (   0.5292376  -0.0340206  -0.2499999), wk =   0.0046296
        k(  387) = (   0.4811251  -0.0680413  -0.1666666), wk =   0.0046296
        k(  388) = (   0.4330126  -0.1020620  -0.0833333), wk =   0.0046296
        k(  389) = (   0.3849001  -0.0340206   0.0000000), wk =   0.0023148
        k(  390) = (   0.5773501   0.1020621  -0.3333332), wk =   0.0046296
        k(  391) = (   0.5292376   0.0680415  -0.2499999), wk =   0.0046296
        k(  392) = (   0.4811251   0.0340208  -0.1666666), wk =   0.0046296
        k(  393) = (   0.4330126   0.0000001  -0.0833333), wk =   0.0046296
        k(  394) = (   0.3849001   0.0680415   0.0000000), wk =   0.0023148
        k(  395) = (   0.5773501   0.2041242  -0.3333332), wk =   0.0046296
        k(  396) = (   0.5292376   0.1701035  -0.2499999), wk =   0.0046296
        k(  397) = (   0.4811251   0.1360829  -0.1666666), wk =   0.0046296
        k(  398) = (   0.4330126   0.1020622  -0.0833333), wk =   0.0046296
        k(  399) = (   0.3849001   0.1701036   0.0000000), wk =   0.0023148
        k(  400) = (   0.5773501   0.3061863  -0.3333332), wk =   0.0046296
        k(  401) = (   0.5292376   0.2721656  -0.2499999), wk =   0.0046296
        k(  402) = (   0.4811251   0.2381449  -0.1666666), wk =   0.0046296
        k(  403) = (   0.4330126   0.2041243  -0.0833333), wk =   0.0046296
        k(  404) = (   0.3849001   0.2721656   0.0000000), wk =   0.0023148
        k(  405) = (   0.5773501   0.4082484  -0.3333332), wk =   0.0023148
        k(  406) = (   0.5292376   0.3742277  -0.2499999), wk =   0.0046296
        k(  407) = (   0.4811251   0.3402070  -0.1666666), wk =   0.0046296
        k(  408) = (   0.4330126   0.3061863  -0.0833333), wk =   0.0046296
        k(  409) = (   0.3849001   0.3742277   0.0000000), wk =   0.0023148
        k(  410) = (   0.5292376   0.4762898  -0.2499999), wk =   0.0046296
        k(  411) = (   0.4811251   0.4422691  -0.1666666), wk =   0.0046296
        k(  412) = (   0.4330126   0.4082484  -0.0833333), wk =   0.0046296
        k(  413) = (   0.3849001  -0.7484551   0.0000000), wk =   0.0023148
        k(  414) = (   0.5292376  -0.6463931  -0.2499999), wk =   0.0046296
        k(  415) = (   0.4811251  -0.6804138  -0.1666666), wk =   0.0046296
        k(  416) = (   0.4330126  -0.7144344  -0.0833333), wk =   0.0046296
        k(  417) = (   0.3849001  -0.6463930   0.0000000), wk =   0.0023148
        k(  418) = (   0.5292376  -0.5443310  -0.2499999), wk =   0.0046296
        k(  419) = (   0.4811251  -0.5783517  -0.1666666), wk =   0.0046296
        k(  420) = (   0.4330126  -0.6123724  -0.0833333), wk =   0.0046296
        k(  421) = (   0.3849001  -0.5443310   0.0000000), wk =   0.0023148
        k(  422) = (   0.5292376  -0.4422689  -0.2499999), wk =   0.0046296
        k(  423) = (   0.4811251  -0.4762896  -0.1666666), wk =   0.0046296
        k(  424) = (   0.4330126  -0.5103103  -0.0833333), wk =   0.0046296
        k(  425) = (   0.3849001  -0.4422689   0.0000000), wk =   0.0023148
        k(  426) = (   0.5773501  -0.3061862  -0.3333332), wk =   0.0046296
        k(  427) = (   0.5292376  -0.3402068  -0.2499999), wk =   0.0046296
        k(  428) = (   0.4811251  -0.3742275  -0.1666666), wk =   0.0046296
        k(  429) = (   0.4330126  -0.4082482  -0.0833333), wk =   0.0046296
        k(  430) = (   0.3849001  -0.3402068   0.0000000), wk =   0.0023148
        k(  431) = (   0.5773501  -0.2041241  -0.3333332), wk =   0.0023148
        k(  432) = (   0.5292376  -0.2381448  -0.2499999), wk =   0.0046296
        k(  433) = (   0.4811251  -0.2721655  -0.1666666), wk =   0.0046296
        k(  434) = (   0.4330126  -0.3061861  -0.0833333), wk =   0.0046296
        k(  435) = (   0.3849001  -0.2381447   0.0000000), wk =   0.0023148
        k(  436) = (   0.5292376  -0.1360827  -0.2499999), wk =   0.0046296
        k(  437) = (   0.4811251  -0.1701034  -0.1666666), wk =   0.0046296
        k(  438) = (   0.4330126  -0.2041241  -0.0833333), wk =   0.0046296
        k(  439) = (   0.4811252  -0.1701033   0.0000000), wk =   0.0023148
        k(  440) = (   0.5773501  -0.1020620  -0.1666666), wk =   0.0046296
        k(  441) = (   0.5292376  -0.1360826  -0.0833333), wk =   0.0046296
        k(  442) = (   0.4811252  -0.0680412   0.0000000), wk =   0.0023148
        k(  443) = (   0.5773501   0.0000001  -0.1666666), wk =   0.0046296
        k(  444) = (   0.5292376  -0.0340206  -0.0833333), wk =   0.0046296
        k(  445) = (   0.4811252   0.0340208   0.0000000), wk =   0.0023148
        k(  446) = (   0.5773501   0.1020622  -0.1666666), wk =   0.0046296
        k(  447) = (   0.5292376   0.0680415  -0.0833333), wk =   0.0046296
        k(  448) = (   0.4811252   0.1360829   0.0000000), wk =   0.0023148
        k(  449) = (   0.5773501   0.2041243  -0.1666666), wk =   0.0046296
        k(  450) = (   0.5292376   0.1701036  -0.0833333), wk =   0.0046296
        k(  451) = (   0.4811252   0.2381450   0.0000000), wk =   0.0023148
        k(  452) = (   0.5773501   0.3061863  -0.1666666), wk =   0.0046296
        k(  453) = (   0.5292376   0.2721657  -0.0833333), wk =   0.0046296
        k(  454) = (   0.4811252   0.3402071   0.0000000), wk =   0.0023148
        k(  455) = (   0.5773501   0.4082484  -0.1666666), wk =   0.0023148
        k(  456) = (   0.5292376   0.3742277  -0.0833333), wk =   0.0046296
        k(  457) = (   0.4811252  -0.7824758   0.0000000), wk =   0.0023148
        k(  458) = (   0.5292376  -0.7484551  -0.0833333), wk =   0.0046296
        k(  459) = (   0.4811252  -0.6804137   0.0000000), wk =   0.0023148
        k(  460) = (   0.5292376  -0.6463930  -0.0833333), wk =   0.0046296
        k(  461) = (   0.4811252  -0.5783516   0.0000000), wk =   0.0023148
        k(  462) = (   0.5292376  -0.5443310  -0.0833333), wk =   0.0046296
        k(  463) = (   0.4811252  -0.4762896   0.0000000), wk =   0.0023148
        k(  464) = (   0.5292376  -0.4422689  -0.0833333), wk =   0.0046296
        k(  465) = (   0.4811252  -0.3742275   0.0000000), wk =   0.0023148
        k(  466) = (   0.5292376  -0.3402068  -0.0833333), wk =   0.0046296
        k(  467) = (   0.4811252  -0.2721654   0.0000000), wk =   0.0023148
        k(  468) = (   0.5773501  -0.2041240  -0.1666666), wk =   0.0023148
        k(  469) = (   0.5292376  -0.2381447  -0.0833333), wk =   0.0046296
        k(  470) = (  -0.5773502   0.2041240   0.0000000), wk =   0.0011574
        k(  471) = (  -0.5773502   0.3061861   0.0000000), wk =   0.0023148
        k(  472) = (  -0.5773502   0.4082481   0.0000000), wk =   0.0023148
        k(  473) = (  -0.5773502   0.5103102   0.0000000), wk =   0.0023148
        k(  474) = (  -0.5773502   0.6123723   0.0000000), wk =   0.0023148
        k(  475) = (  -0.5773502   0.7144344   0.0000000), wk =   0.0023148
        k(  476) = (  -0.5773502  -0.4082485   0.0000000), wk =   0.0011574

                       cryst. coord.
        k(    1) = (   0.0000000   0.0000000   0.0000000), wk =   0.0011574
        k(    2) = (  -0.0000000  -0.0000000   0.0833333), wk =   0.0046296
        k(    3) = (  -0.0000000  -0.0000000   0.1666667), wk =   0.0046296
        k(    4) = (   0.0000000   0.0000000   0.2500000), wk =   0.0046296
        k(    5) = (  -0.0000000  -0.0000000   0.3333333), wk =   0.0046296
        k(    6) = (   0.0000000   0.0000000   0.4166667), wk =   0.0046296
        k(    7) = (   0.0000000   0.0000000  -0.5000000), wk =   0.0023148
        k(    8) = (   0.0000000   0.0833333   0.0000000), wk =   0.0023148
        k(    9) = (  -0.0000000   0.0833333   0.0833333), wk =   0.0046296
        k(   10) = (  -0.0000000   0.0833333   0.1666667), wk =   0.0046296
        k(   11) = (   0.0000000   0.0833333   0.2500000), wk =   0.0046296
        k(   12) = (  -0.0000000   0.0833333   0.3333333), wk =   0.0046296
        k(   13) = (   0.0000000   0.0833333   0.4166667), wk =   0.0046296
        k(   14) = (   0.0000000   0.0833333  -0.5000000), wk =   0.0046296
        k(   15) = (   0.0000000   0.0833333  -0.4166667), wk =   0.0046296
        k(   16) = (   0.0000000   0.0833333  -0.3333333), wk =   0.0046296
        k(   17) = (   0.0000000   0.0833333  -0.2500000), wk =   0.0046296
        k(   18) = (   0.0000000   0.0833333  -0.1666667), wk =   0.0046296
        k(   19) = (   0.0000000   0.0833333  -0.0833333), wk =   0.0046296
        k(   20) = (   0.0000000   0.1666667   0.0000000), wk =   0.0023148
        k(   21) = (  -0.0000000   0.1666667   0.0833333), wk =   0.0046296
        k(   22) = (  -0.0000000   0.1666667   0.1666667), wk =   0.0046296
        k(   23) = (   0.0000000   0.1666667   0.2500000), wk =   0.0046296
        k(   24) = (  -0.0000000   0.1666667   0.3333333), wk =   0.0046296
        k(   25) = (   0.0000000   0.1666667   0.4166667), wk =   0.0046296
        k(   26) = (   0.0000000   0.1666667  -0.5000000), wk =   0.0046296
        k(   27) = (   0.0000000   0.1666667  -0.4166667), wk =   0.0046296
        k(   28) = (   0.0000000   0.1666667  -0.3333333), wk =   0.0046296
        k(   29) = (   0.0000000   0.1666667  -0.2500000), wk =   0.0046296
        k(   30) = (   0.0000000   0.1666667  -0.1666667), wk =   0.0046296
        k(   31) = (   0.0000000   0.1666667  -0.0833333), wk =   0.0046296
        k(   32) = (   0.0000000   0.2500000   0.0000000), wk =   0.0023148
        k(   33) = (  -0.0000000   0.2500000   0.0833333), wk =   0.0046296
        k(   34) = (  -0.0000000   0.2500000   0.1666667), wk =   0.0046296
        k(   35) = (   0.0000000   0.2500000   0.2500000), wk =   0.0046296
        k(   36) = (  -0.0000000   0.2500000   0.3333333), wk =   0.0046296
        k(   37) = (   0.0000000   0.2500000   0.4166667), wk =   0.0046296
        k(   38) = (   0.0000000   0.2500000  -0.5000000), wk =   0.0046296
        k(   39) = (   0.0000000   0.2500000  -0.4166667), wk =   0.0046296
        k(   40) = (   0.0000000   0.2500000  -0.3333333), wk =   0.0046296
        k(   41) = (   0.0000000   0.2500000  -0.2500000), wk =   0.0046296
        k(   42) = (   0.0000000   0.2500000  -0.1666667), wk =   0.0046296
        k(   43) = (   0.0000000   0.2500000  -0.0833333), wk =   0.0046296
        k(   44) = (   0.0000000   0.3333333   0.0000000), wk =   0.0023148
        k(   45) = (  -0.0000000   0.3333333   0.0833333), wk =   0.0046296
        k(   46) = (  -0.0000000   0.3333333   0.1666667), wk =   0.0046296
        k(   47) = (   0.0000000   0.3333333   0.2500000), wk =   0.0046296
        k(   48) = (  -0.0000000   0.3333333   0.3333333), wk =   0.0046296
        k(   49) = (   0.0000000   0.3333333   0.4166667), wk =   0.0046296
        k(   50) = (   0.0000000   0.3333333  -0.5000000), wk =   0.0046296
        k(   51) = (   0.0000000   0.3333333  -0.4166667), wk =   0.0046296
        k(   52) = (   0.0000000   0.3333333  -0.3333333), wk =   0.0046296
        k(   53) = (   0.0000000   0.3333333  -0.2500000), wk =   0.0046296
        k(   54) = (   0.0000000   0.3333333  -0.1666667), wk =   0.0046296
        k(   55) = (   0.0000000   0.3333333  -0.0833333), wk =   0.0046296
        k(   56) = (   0.0000000   0.4166667   0.0000000), wk =   0.0023148
        k(   57) = (  -0.0000000   0.4166667   0.0833333), wk =   0.0046296
        k(   58) = (  -0.0000000   0.4166667   0.1666667), wk =   0.0046296
        k(   59) = (   0.0000000   0.4166667   0.2500000), wk =   0.0046296
        k(   60) = (  -0.0000000   0.4166667   0.3333333), wk =   0.0046296
        k(   61) = (   0.0000000   0.4166667   0.4166667), wk =   0.0046296
        k(   62) = (   0.0000000   0.4166667  -0.5000000), wk =   0.0046296
        k(   63) = (   0.0000000   0.4166667  -0.4166667), wk =   0.0046296
        k(   64) = (   0.0000000   0.4166667  -0.3333333), wk =   0.0046296
        k(   65) = (   0.0000000   0.4166667  -0.2500000), wk =   0.0046296
        k(   66) = (   0.0000000   0.4166667  -0.1666667), wk =   0.0046296
        k(   67) = (   0.0000000   0.4166667  -0.0833333), wk =   0.0046296
        k(   68) = (   0.0000000  -0.5000000   0.0000000), wk =   0.0011574
        k(   69) = (  -0.0000000  -0.5000000   0.0833333), wk =   0.0046296
        k(   70) = (  -0.0000000  -0.5000000   0.1666667), wk =   0.0046296
        k(   71) = (   0.0000000  -0.5000000   0.2500000), wk =   0.0046296
        k(   72) = (  -0.0000000  -0.5000000   0.3333333), wk =   0.0046296
        k(   73) = (   0.0000000  -0.5000000   0.4166667), wk =   0.0046296
        k(   74) = (   0.0000000  -0.5000000  -0.5000000), wk =   0.0023148
        k(   75) = (   0.0833333   0.0000000   0.0000000), wk =   0.0023148
        k(   76) = (   0.0833333  -0.0000000   0.1666667), wk =   0.0046296
        k(   77) = (   0.0833333   0.0000000   0.2500000), wk =   0.0046296
        k(   78) = (   0.0833333  -0.0000000   0.3333333), wk =   0.0046296
        k(   79) = (   0.0833333   0.0000000   0.4166667), wk =   0.0046296
        k(   80) = (   0.0833333   0.0000000  -0.5000000), wk =   0.0046296
        k(   81) = (   0.0833333   0.0000000  -0.4166667), wk =   0.0046296
        k(   82) = (   0.0833333   0.0000000  -0.3333333), wk =   0.0046296
        k(   83) = (   0.0833333   0.0000000  -0.2500000), wk =   0.0046296
        k(   84) = (   0.0833333   0.0000000  -0.1666667), wk =   0.0046296
        k(   85) = (   0.0833333   0.0000000  -0.0833333), wk =   0.0046296
        k(   86) = (   0.0833333   0.0833333   0.0000000), wk =   0.0023148
        k(   87) = (   0.0833333   0.0833333   0.1666667), wk =   0.0023148
        k(   88) = (   0.0833333   0.0833333   0.2500000), wk =   0.0046296
        k(   89) = (   0.0833333   0.0833333   0.3333333), wk =   0.0046296
        k(   90) = (   0.0833333   0.0833333   0.4166667), wk =   0.0046296
        k(   91) = (   0.0833333   0.0833333  -0.5000000), wk =   0.0046296
        k(   92) = (   0.0833333   0.0833333  -0.4166667), wk =   0.0046296
        k(   93) = (   0.0833333   0.0833333  -0.3333333), wk =   0.0046296
        k(   94) = (   0.0833333   0.0833333  -0.2500000), wk =   0.0046296
        k(   95) = (   0.0833333   0.0833333  -0.1666667), wk =   0.0046296
        k(   96) = (   0.0833333   0.0833333  -0.0833333), wk =   0.0046296
        k(   97) = (   0.0833333   0.1666667   0.0000000), wk =   0.0023148
        k(   98) = (   0.0833333   0.1666667   0.2500000), wk =   0.0046296
        k(   99) = (   0.0833333   0.1666667   0.3333333), wk =   0.0046296
        k(  100) = (   0.0833333   0.1666667   0.4166667), wk =   0.0046296
        k(  101) = (   0.0833333   0.1666667  -0.5000000), wk =   0.0046296
        k(  102) = (   0.0833333   0.1666667  -0.4166667), wk =   0.0046296
        k(  103) = (   0.0833333   0.1666667  -0.3333333), wk =   0.0046296
        k(  104) = (   0.0833333   0.1666667  -0.2500000), wk =   0.0046296
        k(  105) = (   0.0833333   0.1666667  -0.1666667), wk =   0.0046296
        k(  106) = (   0.0833333   0.1666667  -0.0833333), wk =   0.0046296
        k(  107) = (   0.0833333   0.2500000   0.0000000), wk =   0.0023148
        k(  108) = (   0.0833333   0.2500000   0.1666667), wk =   0.0046296
        k(  109) = (   0.0833333   0.2500000   0.2500000), wk =   0.0046296
        k(  110) = (   0.0833333   0.2500000   0.3333333), wk =   0.0046296
        k(  111) = (   0.0833333   0.2500000   0.4166667), wk =   0.0046296
        k(  112) = (   0.0833333   0.2500000  -0.5000000), wk =   0.0046296
        k(  113) = (   0.0833333   0.2500000  -0.4166667), wk =   0.0046296
        k(  114) = (   0.0833333   0.2500000  -0.3333333), wk =   0.0046296
        k(  115) = (   0.0833333   0.2500000  -0.2500000), wk =   0.0046296
        k(  116) = (   0.0833333   0.2500000  -0.1666667), wk =   0.0046296
        k(  117) = (   0.0833333   0.2500000  -0.0833333), wk =   0.0046296
        k(  118) = (   0.0833333   0.3333333   0.0000000), wk =   0.0023148
        k(  119) = (   0.0833333   0.3333333   0.1666667), wk =   0.0046296
        k(  120) = (   0.0833333   0.3333333   0.2500000), wk =   0.0046296
        k(  121) = (   0.0833333   0.3333333   0.3333333), wk =   0.0046296
        k(  122) = (   0.0833333   0.3333333   0.4166667), wk =   0.0046296
        k(  123) = (   0.0833333   0.3333333  -0.5000000), wk =   0.0046296
        k(  124) = (   0.0833333   0.3333333  -0.4166667), wk =   0.0046296
        k(  125) = (   0.0833333   0.3333333  -0.3333333), wk =   0.0046296
        k(  126) = (   0.0833333   0.3333333  -0.2500000), wk =   0.0046296
        k(  127) = (   0.0833333   0.3333333  -0.1666667), wk =   0.0046296
        k(  128) = (   0.0833333   0.3333333  -0.0833333), wk =   0.0046296
        k(  129) = (   0.0833333   0.4166667   0.0000000), wk =   0.0023148
        k(  130) = (   0.0833333   0.4166667   0.1666667), wk =   0.0046296
        k(  131) = (   0.0833333   0.4166667   0.2500000), wk =   0.0046296
        k(  132) = (   0.0833333   0.4166667   0.3333333), wk =   0.0046296
        k(  133) = (   0.0833333   0.4166667   0.4166667), wk =   0.0046296
        k(  134) = (   0.0833333   0.4166667  -0.5000000), wk =   0.0046296
        k(  135) = (   0.0833333   0.4166667  -0.4166667), wk =   0.0046296
        k(  136) = (   0.0833333   0.4166667  -0.3333333), wk =   0.0046296
        k(  137) = (   0.0833333   0.4166667  -0.2500000), wk =   0.0046296
        k(  138) = (   0.0833333   0.4166667  -0.1666667), wk =   0.0046296
        k(  139) = (   0.0833333   0.4166667  -0.0833333), wk =   0.0046296
        k(  140) = (   0.0833333  -0.5000000   0.0000000), wk =   0.0023148
        k(  141) = (   0.0833333  -0.5000000   0.1666667), wk =   0.0046296
        k(  142) = (   0.0833333  -0.5000000   0.2500000), wk =   0.0046296
        k(  143) = (   0.0833333  -0.5000000   0.3333333), wk =   0.0046296
        k(  144) = (   0.0833333  -0.5000000   0.4166667), wk =   0.0046296
        k(  145) = (   0.0833333  -0.5000000  -0.5000000), wk =   0.0046296
        k(  146) = (   0.0833333  -0.5000000  -0.4166667), wk =   0.0046296
        k(  147) = (   0.0833333  -0.5000000  -0.3333333), wk =   0.0046296
        k(  148) = (   0.0833333  -0.5000000  -0.2500000), wk =   0.0046296
        k(  149) = (   0.0833333  -0.5000000  -0.1666667), wk =   0.0046296
        k(  150) = (   0.0833333  -0.5000000  -0.0833333), wk =   0.0046296
        k(  151) = (   0.0833333  -0.4166667   0.0000000), wk =   0.0023148
        k(  152) = (   0.0833333  -0.4166667   0.1666667), wk =   0.0023148
        k(  153) = (   0.0833333  -0.4166667   0.2500000), wk =   0.0046296
        k(  154) = (   0.0833333  -0.4166667   0.3333333), wk =   0.0046296
        k(  155) = (   0.0833333  -0.4166667   0.4166667), wk =   0.0046296
        k(  156) = (   0.0833333  -0.4166667  -0.5000000), wk =   0.0046296
        k(  157) = (   0.0833333  -0.4166667  -0.4166667), wk =   0.0046296
        k(  158) = (   0.0833333  -0.4166667  -0.3333333), wk =   0.0046296
        k(  159) = (   0.0833333  -0.4166667  -0.2500000), wk =   0.0046296
        k(  160) = (   0.0833333  -0.4166667  -0.1666667), wk =   0.0046296
        k(  161) = (   0.0833333  -0.4166667  -0.0833333), wk =   0.0046296
        k(  162) = (   0.0833333  -0.3333333   0.0000000), wk =   0.0023148
        k(  163) = (   0.0833333  -0.3333333   0.2500000), wk =   0.0046296
        k(  164) = (   0.0833333  -0.3333333   0.3333333), wk =   0.0046296
        k(  165) = (   0.0833333  -0.3333333   0.4166667), wk =   0.0046296
        k(  166) = (   0.0833333  -0.3333333  -0.5000000), wk =   0.0046296
        k(  167) = (   0.0833333  -0.3333333  -0.4166667), wk =   0.0046296
        k(  168) = (   0.0833333  -0.3333333  -0.3333333), wk =   0.0046296
        k(  169) = (   0.0833333  -0.3333333  -0.2500000), wk =   0.0046296
        k(  170) = (   0.0833333  -0.3333333  -0.1666667), wk =   0.0046296
        k(  171) = (   0.0833333  -0.3333333  -0.0833333), wk =   0.0046296
        k(  172) = (   0.0833333  -0.2500000   0.0000000), wk =   0.0023148
        k(  173) = (   0.0833333  -0.2500000   0.2500000), wk =   0.0046296
        k(  174) = (   0.0833333  -0.2500000   0.3333333), wk =   0.0046296
        k(  175) = (   0.0833333  -0.2500000   0.4166667), wk =   0.0046296
        k(  176) = (   0.0833333  -0.2500000  -0.5000000), wk =   0.0046296
        k(  177) = (   0.0833333  -0.2500000  -0.4166667), wk =   0.0046296
        k(  178) = (   0.0833333  -0.2500000  -0.3333333), wk =   0.0046296
        k(  179) = (   0.0833333  -0.2500000  -0.2500000), wk =   0.0046296
        k(  180) = (   0.0833333  -0.2500000  -0.1666667), wk =   0.0046296
        k(  181) = (   0.0833333  -0.2500000  -0.0833333), wk =   0.0046296
        k(  182) = (   0.0833333  -0.1666667   0.0000000), wk =   0.0023148
        k(  183) = (   0.0833333  -0.1666667   0.2500000), wk =   0.0046296
        k(  184) = (   0.0833333  -0.1666667   0.3333333), wk =   0.0046296
        k(  185) = (   0.0833333  -0.1666667   0.4166667), wk =   0.0046296
        k(  186) = (   0.0833333  -0.1666667  -0.5000000), wk =   0.0046296
        k(  187) = (   0.0833333  -0.1666667  -0.4166667), wk =   0.0046296
        k(  188) = (   0.0833333  -0.1666667  -0.3333333), wk =   0.0046296
        k(  189) = (   0.0833333  -0.1666667  -0.2500000), wk =   0.0046296
        k(  190) = (   0.0833333  -0.1666667  -0.1666667), wk =   0.0046296
        k(  191) = (   0.0833333  -0.1666667  -0.0833333), wk =   0.0046296
        k(  192) = (   0.0833333  -0.0833333   0.0000000), wk =   0.0023148
        k(  193) = (   0.0833333  -0.0833333   0.2500000), wk =   0.0046296
        k(  194) = (   0.0833333  -0.0833333   0.3333333), wk =   0.0046296
        k(  195) = (   0.0833333  -0.0833333   0.4166667), wk =   0.0046296
        k(  196) = (   0.0833333  -0.0833333  -0.5000000), wk =   0.0046296
        k(  197) = (   0.0833333  -0.0833333  -0.4166667), wk =   0.0046296
        k(  198) = (   0.0833333  -0.0833333  -0.3333333), wk =   0.0046296
        k(  199) = (   0.0833333  -0.0833333  -0.2500000), wk =   0.0046296
        k(  200) = (   0.0833333  -0.0833333  -0.1666667), wk =   0.0046296
        k(  201) = (   0.0833333  -0.0833333  -0.0833333), wk =   0.0046296
        k(  202) = (   0.1666667   0.0000000   0.0000000), wk =   0.0023148
        k(  203) = (   0.1666667  -0.0000000   0.3333333), wk =   0.0046296
        k(  204) = (   0.1666667   0.0000000   0.4166667), wk =   0.0046296
        k(  205) = (   0.1666667   0.0000000  -0.5000000), wk =   0.0046296
        k(  206) = (   0.1666667   0.0000000  -0.4166667), wk =   0.0046296
        k(  207) = (   0.1666667   0.0000000  -0.3333333), wk =   0.0046296
        k(  208) = (   0.1666667   0.0000000  -0.2500000), wk =   0.0046296
        k(  209) = (   0.1666667   0.0000000  -0.1666667), wk =   0.0046296
        k(  210) = (   0.1666667   0.0000000  -0.0833333), wk =   0.0046296
        k(  211) = (   0.1666667   0.0833333   0.0000000), wk =   0.0023148
        k(  212) = (   0.1666667   0.0833333   0.3333333), wk =   0.0046296
        k(  213) = (   0.1666667   0.0833333   0.4166667), wk =   0.0046296
        k(  214) = (   0.1666667   0.0833333  -0.5000000), wk =   0.0046296
        k(  215) = (   0.1666667   0.0833333  -0.4166667), wk =   0.0046296
        k(  216) = (   0.1666667   0.0833333  -0.3333333), wk =   0.0046296
        k(  217) = (   0.1666667   0.0833333  -0.2500000), wk =   0.0046296
        k(  218) = (   0.1666667   0.0833333  -0.1666667), wk =   0.0046296
        k(  219) = (   0.1666667   0.0833333  -0.0833333), wk =   0.0046296
        k(  220) = (   0.1666667   0.1666667   0.0000000), wk =   0.0023148
        k(  221) = (   0.1666667   0.1666667   0.3333333), wk =   0.0023148
        k(  222) = (   0.1666667   0.1666667   0.4166667), wk =   0.0046296
        k(  223) = (   0.1666667   0.1666667  -0.5000000), wk =   0.0046296
        k(  224) = (   0.1666667   0.1666667  -0.4166667), wk =   0.0046296
        k(  225) = (   0.1666667   0.1666667  -0.3333333), wk =   0.0046296
        k(  226) = (   0.1666667   0.1666667  -0.2500000), wk =   0.0046296
        k(  227) = (   0.1666667   0.1666667  -0.1666667), wk =   0.0046296
        k(  228) = (   0.1666667   0.1666667  -0.0833333), wk =   0.0046296
        k(  229) = (   0.1666667   0.2500000   0.0000000), wk =   0.0023148
        k(  230) = (   0.1666667   0.2500000   0.4166667), wk =   0.0046296
        k(  231) = (   0.1666667   0.2500000  -0.5000000), wk =   0.0046296
        k(  232) = (   0.1666667   0.2500000  -0.4166667), wk =   0.0046296
        k(  233) = (   0.1666667   0.2500000  -0.3333333), wk =   0.0046296
        k(  234) = (   0.1666667   0.2500000  -0.2500000), wk =   0.0046296
        k(  235) = (   0.1666667   0.2500000  -0.1666667), wk =   0.0046296
        k(  236) = (   0.1666667   0.2500000  -0.0833333), wk =   0.0046296
        k(  237) = (   0.1666667   0.3333333   0.0000000), wk =   0.0023148
        k(  238) = (   0.1666667   0.3333333   0.4166667), wk =   0.0046296
        k(  239) = (   0.1666667   0.3333333  -0.5000000), wk =   0.0046296
        k(  240) = (   0.1666667   0.3333333  -0.4166667), wk =   0.0046296
        k(  241) = (   0.1666667   0.3333333  -0.3333333), wk =   0.0046296
        k(  242) = (   0.1666667   0.3333333  -0.2500000), wk =   0.0046296
        k(  243) = (   0.1666667   0.3333333  -0.1666667), wk =   0.0046296
        k(  244) = (   0.1666667   0.3333333  -0.0833333), wk =   0.0046296
        k(  245) = (   0.1666667   0.4166667   0.0000000), wk =   0.0023148
        k(  246) = (   0.1666667   0.4166667   0.3333333), wk =   0.0046296
        k(  247) = (   0.1666667   0.4166667   0.4166667), wk =   0.0046296
        k(  248) = (   0.1666667   0.4166667  -0.5000000), wk =   0.0046296
        k(  249) = (   0.1666667   0.4166667  -0.4166667), wk =   0.0046296
        k(  250) = (   0.1666667   0.4166667  -0.3333333), wk =   0.0046296
        k(  251) = (   0.1666667   0.4166667  -0.2500000), wk =   0.0046296
        k(  252) = (   0.1666667   0.4166667  -0.1666667), wk =   0.0046296
        k(  253) = (   0.1666667   0.4166667  -0.0833333), wk =   0.0046296
        k(  254) = (   0.1666667  -0.5000000   0.0000000), wk =   0.0023148
        k(  255) = (   0.1666667  -0.5000000   0.3333333), wk =   0.0046296
        k(  256) = (   0.1666667  -0.5000000   0.4166667), wk =   0.0046296
        k(  257) = (   0.1666667  -0.5000000  -0.5000000), wk =   0.0046296
        k(  258) = (   0.1666667  -0.5000000  -0.4166667), wk =   0.0046296
        k(  259) = (   0.1666667  -0.5000000  -0.3333333), wk =   0.0046296
        k(  260) = (   0.1666667  -0.5000000  -0.2500000), wk =   0.0046296
        k(  261) = (   0.1666667  -0.5000000  -0.1666667), wk =   0.0046296
        k(  262) = (   0.1666667  -0.5000000  -0.0833333), wk =   0.0046296
        k(  263) = (   0.1666667  -0.4166667   0.0000000), wk =   0.0023148
        k(  264) = (   0.1666667  -0.4166667   0.3333333), wk =   0.0046296
        k(  265) = (   0.1666667  -0.4166667   0.4166667), wk =   0.0046296
        k(  266) = (   0.1666667  -0.4166667  -0.5000000), wk =   0.0046296
        k(  267) = (   0.1666667  -0.4166667  -0.4166667), wk =   0.0046296
        k(  268) = (   0.1666667  -0.4166667  -0.3333333), wk =   0.0046296
        k(  269) = (   0.1666667  -0.4166667  -0.2500000), wk =   0.0046296
        k(  270) = (   0.1666667  -0.4166667  -0.1666667), wk =   0.0046296
        k(  271) = (   0.1666667  -0.4166667  -0.0833333), wk =   0.0046296
        k(  272) = (   0.1666667  -0.3333333   0.0000000), wk =   0.0023148
        k(  273) = (   0.1666667  -0.3333333   0.3333333), wk =   0.0023148
        k(  274) = (   0.1666667  -0.3333333   0.4166667), wk =   0.0046296
        k(  275) = (   0.1666667  -0.3333333  -0.5000000), wk =   0.0046296
        k(  276) = (   0.1666667  -0.3333333  -0.4166667), wk =   0.0046296
        k(  277) = (   0.1666667  -0.3333333  -0.3333333), wk =   0.0046296
        k(  278) = (   0.1666667  -0.3333333  -0.2500000), wk =   0.0046296
        k(  279) = (   0.1666667  -0.3333333  -0.1666667), wk =   0.0046296
        k(  280) = (   0.1666667  -0.3333333  -0.0833333), wk =   0.0046296
        k(  281) = (   0.1666667  -0.2500000   0.0000000), wk =   0.0023148
        k(  282) = (   0.1666667  -0.2500000   0.4166667), wk =   0.0046296
        k(  283) = (   0.1666667  -0.2500000  -0.5000000), wk =   0.0046296
        k(  284) = (   0.1666667  -0.2500000  -0.4166667), wk =   0.0046296
        k(  285) = (   0.1666667  -0.2500000  -0.3333333), wk =   0.0046296
        k(  286) = (   0.1666667  -0.2500000  -0.2500000), wk =   0.0046296
        k(  287) = (   0.1666667  -0.2500000  -0.1666667), wk =   0.0046296
        k(  288) = (   0.1666667  -0.2500000  -0.0833333), wk =   0.0046296
        k(  289) = (   0.1666667  -0.1666667   0.0000000), wk =   0.0023148
        k(  290) = (   0.1666667  -0.1666667   0.4166667), wk =   0.0046296
        k(  291) = (   0.1666667  -0.1666667  -0.5000000), wk =   0.0046296
        k(  292) = (   0.1666667  -0.1666667  -0.4166667), wk =   0.0046296
        k(  293) = (   0.1666667  -0.1666667  -0.3333333), wk =   0.0046296
        k(  294) = (   0.1666667  -0.1666667  -0.2500000), wk =   0.0046296
        k(  295) = (   0.1666667  -0.1666667  -0.1666667), wk =   0.0046296
        k(  296) = (   0.1666667  -0.1666667  -0.0833333), wk =   0.0046296
        k(  297) = (   0.1666667  -0.0833333   0.0000000), wk =   0.0023148
        k(  298) = (   0.1666667  -0.0833333   0.4166667), wk =   0.0046296
        k(  299) = (   0.1666667  -0.0833333  -0.5000000), wk =   0.0046296
        k(  300) = (   0.1666667  -0.0833333  -0.4166667), wk =   0.0046296
        k(  301) = (   0.1666667  -0.0833333  -0.3333333), wk =   0.0046296
        k(  302) = (   0.1666667  -0.0833333  -0.2500000), wk =   0.0046296
        k(  303) = (   0.1666667  -0.0833333  -0.1666667), wk =   0.0046296
        k(  304) = (   0.1666667  -0.0833333  -0.0833333), wk =   0.0046296
        k(  305) = (   0.2500000   0.0000000   0.0000000), wk =   0.0023148
        k(  306) = (   0.2500000   0.0000000  -0.5000000), wk =   0.0046296
        k(  307) = (   0.2500000   0.0000000  -0.4166667), wk =   0.0046296
        k(  308) = (   0.2500000   0.0000000  -0.3333333), wk =   0.0046296
        k(  309) = (   0.2500000   0.0000000  -0.2500000), wk =   0.0046296
        k(  310) = (   0.2500000   0.0000000  -0.1666667), wk =   0.0046296
        k(  311) = (   0.2500000  -0.0000000  -0.0833333), wk =   0.0046296
        k(  312) = (   0.2500000   0.0833333   0.0000000), wk =   0.0023148
        k(  313) = (   0.2500000   0.0833333  -0.5000000), wk =   0.0046296
        k(  314) = (   0.2500000   0.0833333  -0.4166667), wk =   0.0046296
        k(  315) = (   0.2500000   0.0833333  -0.3333333), wk =   0.0046296
        k(  316) = (   0.2500000   0.0833333  -0.2500000), wk =   0.0046296
        k(  317) = (   0.2500000   0.0833333  -0.1666667), wk =   0.0046296
        k(  318) = (   0.2500000   0.0833333  -0.0833333), wk =   0.0046296
        k(  319) = (   0.2500000   0.1666667   0.0000000), wk =   0.0023148
        k(  320) = (   0.2500000   0.1666667  -0.5000000), wk =   0.0046296
        k(  321) = (   0.2500000   0.1666667  -0.4166667), wk =   0.0046296
        k(  322) = (   0.2500000   0.1666667  -0.3333333), wk =   0.0046296
        k(  323) = (   0.2500000   0.1666667  -0.2500000), wk =   0.0046296
        k(  324) = (   0.2500000   0.1666667  -0.1666667), wk =   0.0046296
        k(  325) = (   0.2500000   0.1666667  -0.0833333), wk =   0.0046296
        k(  326) = (   0.2500000   0.2500000   0.0000000), wk =   0.0023148
        k(  327) = (   0.2500000   0.2500000  -0.5000000), wk =   0.0023148
        k(  328) = (   0.2500000   0.2500000  -0.4166667), wk =   0.0046296
        k(  329) = (   0.2500000   0.2500000  -0.3333333), wk =   0.0046296
        k(  330) = (   0.2500000   0.2500000  -0.2500000), wk =   0.0046296
        k(  331) = (   0.2500000   0.2500000  -0.1666667), wk =   0.0046296
        k(  332) = (   0.2500000   0.2500000  -0.0833333), wk =   0.0046296
        k(  333) = (   0.2500000   0.3333333   0.0000000), wk =   0.0023148
        k(  334) = (   0.2500000   0.3333333  -0.4166667), wk =   0.0046296
        k(  335) = (   0.2500000   0.3333333  -0.3333333), wk =   0.0046296
        k(  336) = (   0.2500000   0.3333333  -0.2500000), wk =   0.0046296
        k(  337) = (   0.2500000   0.3333333  -0.1666667), wk =   0.0046296
        k(  338) = (   0.2500000   0.3333333  -0.0833333), wk =   0.0046296
        k(  339) = (   0.2500000   0.4166667   0.0000000), wk =   0.0023148
        k(  340) = (   0.2500000   0.4166667  -0.4166667), wk =   0.0046296
        k(  341) = (   0.2500000   0.4166667  -0.3333333), wk =   0.0046296
        k(  342) = (   0.2500000   0.4166667  -0.2500000), wk =   0.0046296
        k(  343) = (   0.2500000   0.4166667  -0.1666667), wk =   0.0046296
        k(  344) = (   0.2500000   0.4166667  -0.0833333), wk =   0.0046296
        k(  345) = (   0.2500000  -0.5000000   0.0000000), wk =   0.0023148
        k(  346) = (   0.2500000  -0.5000000  -0.4166667), wk =   0.0046296
        k(  347) = (   0.2500000  -0.5000000  -0.3333333), wk =   0.0046296
        k(  348) = (   0.2500000  -0.5000000  -0.2500000), wk =   0.0046296
        k(  349) = (   0.2500000  -0.5000000  -0.1666667), wk =   0.0046296
        k(  350) = (   0.2500000  -0.5000000  -0.0833333), wk =   0.0046296
        k(  351) = (   0.2500000  -0.4166667   0.0000000), wk =   0.0023148
        k(  352) = (   0.2500000  -0.4166667  -0.5000000), wk =   0.0046296
        k(  353) = (   0.2500000  -0.4166667  -0.4166667), wk =   0.0046296
        k(  354) = (   0.2500000  -0.4166667  -0.3333333), wk =   0.0046296
        k(  355) = (   0.2500000  -0.4166667  -0.2500000), wk =   0.0046296
        k(  356) = (   0.2500000  -0.4166667  -0.1666667), wk =   0.0046296
        k(  357) = (   0.2500000  -0.4166667  -0.0833333), wk =   0.0046296
        k(  358) = (   0.2500000  -0.3333333   0.0000000), wk =   0.0023148
        k(  359) = (   0.2500000  -0.3333333  -0.5000000), wk =   0.0046296
        k(  360) = (   0.2500000  -0.3333333  -0.4166667), wk =   0.0046296
        k(  361) = (   0.2500000  -0.3333333  -0.3333333), wk =   0.0046296
        k(  362) = (   0.2500000  -0.3333333  -0.2500000), wk =   0.0046296
        k(  363) = (   0.2500000  -0.3333333  -0.1666667), wk =   0.0046296
        k(  364) = (   0.2500000  -0.3333333  -0.0833333), wk =   0.0046296
        k(  365) = (   0.2500000  -0.2500000   0.0000000), wk =   0.0023148
        k(  366) = (   0.2500000  -0.2500000  -0.5000000), wk =   0.0023148
        k(  367) = (   0.2500000  -0.2500000  -0.4166667), wk =   0.0046296
        k(  368) = (   0.2500000  -0.2500000  -0.3333333), wk =   0.0046296
        k(  369) = (   0.2500000  -0.2500000  -0.2500000), wk =   0.0046296
        k(  370) = (   0.2500000  -0.2500000  -0.1666667), wk =   0.0046296
        k(  371) = (   0.2500000  -0.2500000  -0.0833333), wk =   0.0046296
        k(  372) = (   0.2500000  -0.1666667   0.0000000), wk =   0.0023148
        k(  373) = (   0.2500000  -0.1666667  -0.4166667), wk =   0.0046296
        k(  374) = (   0.2500000  -0.1666667  -0.3333333), wk =   0.0046296
        k(  375) = (   0.2500000  -0.1666667  -0.2500000), wk =   0.0046296
        k(  376) = (   0.2500000  -0.1666667  -0.1666667), wk =   0.0046296
        k(  377) = (   0.2500000  -0.1666667  -0.0833333), wk =   0.0046296
        k(  378) = (   0.2500000  -0.0833333   0.0000000), wk =   0.0023148
        k(  379) = (   0.2500000  -0.0833333  -0.4166667), wk =   0.0046296
        k(  380) = (   0.2500000  -0.0833333  -0.3333333), wk =   0.0046296
        k(  381) = (   0.2500000  -0.0833333  -0.2500000), wk =   0.0046296
        k(  382) = (   0.2500000  -0.0833333  -0.1666667), wk =   0.0046296
        k(  383) = (   0.2500000  -0.0833333  -0.0833333), wk =   0.0046296
        k(  384) = (   0.3333333   0.0000000   0.0000000), wk =   0.0023148
        k(  385) = (   0.3333333   0.0000000  -0.3333333), wk =   0.0046296
        k(  386) = (   0.3333333   0.0000000  -0.2500000), wk =   0.0046296
        k(  387) = (   0.3333333   0.0000000  -0.1666667), wk =   0.0046296
        k(  388) = (   0.3333333   0.0000000  -0.0833333), wk =   0.0046296
        k(  389) = (   0.3333333   0.0833333   0.0000000), wk =   0.0023148
        k(  390) = (   0.3333333   0.0833333  -0.3333333), wk =   0.0046296
        k(  391) = (   0.3333333   0.0833333  -0.2500000), wk =   0.0046296
        k(  392) = (   0.3333333   0.0833333  -0.1666667), wk =   0.0046296
        k(  393) = (   0.3333333   0.0833333  -0.0833333), wk =   0.0046296
        k(  394) = (   0.3333333   0.1666667   0.0000000), wk =   0.0023148
        k(  395) = (   0.3333333   0.1666667  -0.3333333), wk =   0.0046296
        k(  396) = (   0.3333333   0.1666667  -0.2500000), wk =   0.0046296
        k(  397) = (   0.3333333   0.1666667  -0.1666667), wk =   0.0046296
        k(  398) = (   0.3333333   0.1666667  -0.0833333), wk =   0.0046296
        k(  399) = (   0.3333333   0.2500000   0.0000000), wk =   0.0023148
        k(  400) = (   0.3333333   0.2500000  -0.3333333), wk =   0.0046296
        k(  401) = (   0.3333333   0.2500000  -0.2500000), wk =   0.0046296
        k(  402) = (   0.3333333   0.2500000  -0.1666667), wk =   0.0046296
        k(  403) = (   0.3333333   0.2500000  -0.0833333), wk =   0.0046296
        k(  404) = (   0.3333333   0.3333333   0.0000000), wk =   0.0023148
        k(  405) = (   0.3333333   0.3333333  -0.3333333), wk =   0.0023148
        k(  406) = (   0.3333333   0.3333333  -0.2500000), wk =   0.0046296
        k(  407) = (   0.3333333   0.3333333  -0.1666667), wk =   0.0046296
        k(  408) = (   0.3333333   0.3333333  -0.0833333), wk =   0.0046296
        k(  409) = (   0.3333333   0.4166667   0.0000000), wk =   0.0023148
        k(  410) = (   0.3333333   0.4166667  -0.2500000), wk =   0.0046296
        k(  411) = (   0.3333333   0.4166667  -0.1666667), wk =   0.0046296
        k(  412) = (   0.3333333   0.4166667  -0.0833333), wk =   0.0046296
        k(  413) = (   0.3333333  -0.5000000   0.0000000), wk =   0.0023148
        k(  414) = (   0.3333333  -0.5000000  -0.2500000), wk =   0.0046296
        k(  415) = (   0.3333333  -0.5000000  -0.1666667), wk =   0.0046296
        k(  416) = (   0.3333333  -0.5000000  -0.0833333), wk =   0.0046296
        k(  417) = (   0.3333333  -0.4166667   0.0000000), wk =   0.0023148
        k(  418) = (   0.3333333  -0.4166667  -0.2500000), wk =   0.0046296
        k(  419) = (   0.3333333  -0.4166667  -0.1666667), wk =   0.0046296
        k(  420) = (   0.3333333  -0.4166667  -0.0833333), wk =   0.0046296
        k(  421) = (   0.3333333  -0.3333333   0.0000000), wk =   0.0023148
        k(  422) = (   0.3333333  -0.3333333  -0.2500000), wk =   0.0046296
        k(  423) = (   0.3333333  -0.3333333  -0.1666667), wk =   0.0046296
        k(  424) = (   0.3333333  -0.3333333  -0.0833333), wk =   0.0046296
        k(  425) = (   0.3333333  -0.2500000   0.0000000), wk =   0.0023148
        k(  426) = (   0.3333333  -0.2500000  -0.3333333), wk =   0.0046296
        k(  427) = (   0.3333333  -0.2500000  -0.2500000), wk =   0.0046296
        k(  428) = (   0.3333333  -0.2500000  -0.1666667), wk =   0.0046296
        k(  429) = (   0.3333333  -0.2500000  -0.0833333), wk =   0.0046296
        k(  430) = (   0.3333333  -0.1666667   0.0000000), wk =   0.0023148
        k(  431) = (   0.3333333  -0.1666667  -0.3333333), wk =   0.0023148
        k(  432) = (   0.3333333  -0.1666667  -0.2500000), wk =   0.0046296
        k(  433) = (   0.3333333  -0.1666667  -0.1666667), wk =   0.0046296
        k(  434) = (   0.3333333  -0.1666667  -0.0833333), wk =   0.0046296
        k(  435) = (   0.3333333  -0.0833333   0.0000000), wk =   0.0023148
        k(  436) = (   0.3333333  -0.0833333  -0.2500000), wk =   0.0046296
        k(  437) = (   0.3333333  -0.0833333  -0.1666667), wk =   0.0046296
        k(  438) = (   0.3333333  -0.0833333  -0.0833333), wk =   0.0046296
        k(  439) = (   0.4166667   0.0000000   0.0000000), wk =   0.0023148
        k(  440) = (   0.4166667   0.0000000  -0.1666667), wk =   0.0046296
        k(  441) = (   0.4166667   0.0000000  -0.0833333), wk =   0.0046296
        k(  442) = (   0.4166667   0.0833333   0.0000000), wk =   0.0023148
        k(  443) = (   0.4166667   0.0833333  -0.1666667), wk =   0.0046296
        k(  444) = (   0.4166667   0.0833333  -0.0833333), wk =   0.0046296
        k(  445) = (   0.4166667   0.1666667   0.0000000), wk =   0.0023148
        k(  446) = (   0.4166667   0.1666667  -0.1666667), wk =   0.0046296
        k(  447) = (   0.4166667   0.1666667  -0.0833333), wk =   0.0046296
        k(  448) = (   0.4166667   0.2500000   0.0000000), wk =   0.0023148
        k(  449) = (   0.4166667   0.2500000  -0.1666667), wk =   0.0046296
        k(  450) = (   0.4166667   0.2500000  -0.0833333), wk =   0.0046296
        k(  451) = (   0.4166667   0.3333333   0.0000000), wk =   0.0023148
        k(  452) = (   0.4166667   0.3333333  -0.1666667), wk =   0.0046296
        k(  453) = (   0.4166667   0.3333333  -0.0833333), wk =   0.0046296
        k(  454) = (   0.4166667   0.4166667   0.0000000), wk =   0.0023148
        k(  455) = (   0.4166667   0.4166667  -0.1666667), wk =   0.0023148
        k(  456) = (   0.4166667   0.4166667  -0.0833333), wk =   0.0046296
        k(  457) = (   0.4166667  -0.5000000   0.0000000), wk =   0.0023148
        k(  458) = (   0.4166667  -0.5000000  -0.0833333), wk =   0.0046296
        k(  459) = (   0.4166667  -0.4166667   0.0000000), wk =   0.0023148
        k(  460) = (   0.4166667  -0.4166667  -0.0833333), wk =   0.0046296
        k(  461) = (   0.4166667  -0.3333333   0.0000000), wk =   0.0023148
        k(  462) = (   0.4166667  -0.3333333  -0.0833333), wk =   0.0046296
        k(  463) = (   0.4166667  -0.2500000   0.0000000), wk =   0.0023148
        k(  464) = (   0.4166667  -0.2500000  -0.0833333), wk =   0.0046296
        k(  465) = (   0.4166667  -0.1666667   0.0000000), wk =   0.0023148
        k(  466) = (   0.4166667  -0.1666667  -0.0833333), wk =   0.0046296
        k(  467) = (   0.4166667  -0.0833333   0.0000000), wk =   0.0023148
        k(  468) = (   0.4166667  -0.0833333  -0.1666667), wk =   0.0023148
        k(  469) = (   0.4166667  -0.0833333  -0.0833333), wk =   0.0046296
        k(  470) = (  -0.5000000   0.0000000   0.0000000), wk =   0.0011574
        k(  471) = (  -0.5000000   0.0833333   0.0000000), wk =   0.0023148
        k(  472) = (  -0.5000000   0.1666667   0.0000000), wk =   0.0023148
        k(  473) = (  -0.5000000   0.2500000   0.0000000), wk =   0.0023148
        k(  474) = (  -0.5000000   0.3333333   0.0000000), wk =   0.0023148
        k(  475) = (  -0.5000000   0.4166667   0.0000000), wk =   0.0023148
        k(  476) = (  -0.5000000  -0.5000000   0.0000000), wk =   0.0011574

     Dense  grid:     3287 G-vectors     FFT dimensions: (  24,  24,  24)

     Dynamical RAM for                 wfc:       0.04 MB

     Dynamical RAM for     wfc (w. buffer):      17.99 MB

     Dynamical RAM for           str. fact:       0.05 MB

     Dynamical RAM for           local pot:       0.00 MB

     Dynamical RAM for          nlocal pot:       0.11 MB

     Dynamical RAM for                qrad:       0.83 MB

     Dynamical RAM for          rho,v,vnew:       0.47 MB

     Dynamical RAM for               rhoin:       0.16 MB

     Dynamical RAM for            rho*nmix:       0.80 MB

     Dynamical RAM for           G-vectors:       0.21 MB

     Dynamical RAM for          h,s,v(r/c):       0.03 MB

     Dynamical RAM for          <psi|beta>:       0.00 MB

     Dynamical RAM for                 psi:       0.15 MB

     Dynamical RAM for                hpsi:       0.15 MB

     Dynamical RAM for                spsi:       0.15 MB

     Dynamical RAM for      wfcinit/wfcrot:       0.08 MB

     Dynamical RAM for           addusdens:       9.38 MB

     Dynamical RAM for          addusforce:       9.41 MB

     Estimated static dynamical RAM per process >      21.25 MB

     Estimated max dynamical RAM per process >      30.66 MB

     Initial potential from superposition of free atoms

     starting charge    3.99933, renormalised to    4.00000
     Starting wfc are    4 randomized atomic wfcs +    2 random wfc

     total cpu time spent up to now is        1.5 secs

     Self-consistent Calculation

     iteration #  1     ecut=    35.00 Ry     beta= 0.70
     Davidson diagonalization with overlap
     ethr =  1.00E-02,  avg # of iterations =  4.4

     Threshold (ethr) on eigenvalues was too large:
     Diagonalizing with lowered threshold

     Davidson diagonalization with overlap
     ethr =  9.07E-05,  avg # of iterations =  2.3

     total cpu time spent up to now is       11.2 secs

     total energy              =      -9.54809999 Ry
     Harris-Foulkes estimate   =      -9.54931936 Ry
[...]

     2.3499   5.2775   7.9394  10.6866  16.4944  21.1311

     occupation numbers 
     1.0000   1.0000   1.0000   0.0000   0.0000   0.0000

          k = 0.4811 0.2381-0.1667 (   415 PWs)   bands (ev):

     0.7628   7.4791   8.9462  10.5355  16.2260  18.6217

     occupation numbers 
     1.0000   1.0000   0.0000   0.0000   0.0000   0.0000

          k = 0.4330 0.2041-0.0833 (   415 PWs)   bands (ev):

    -0.5513   9.5458  10.2032  11.1186  15.9448  16.7347

     occupation numbers 
     1.0000   0.0000   0.0000   0.0000   0.0000   0.0000

          k = 0.3849 0.2722 0.0000 (   419 PWs)   bands (ev):

    -0.7796   9.7649  11.8145  11.8145  13.9140  15.2769

     occupation numbers 
     1.0000   0.0000   0.0000   0.0000   0.0000   0.0000

          k = 0.5774 0.4082-0.3333 (   403 PWs)   bands (ev):

     2.7357   5.6086   5.9923  12.5973  15.4142  23.7303

     occupation numbers 
     1.0000   1.0000   1.0000   0.0000   0.0000   0.0000

          k = 0.5292 0.3742-0.2500 (   414 PWs)   bands (ev):

     3.3225   4.9704   6.5439  11.9490  14.6815  20.9800

     occupation numbers 
     1.0000   1.0000   1.0000   0.0000   0.0000   0.0000

          k = 0.4811 0.3402-0.1667 (   417 PWs)   bands (ev):

     1.7297   6.6655   7.8685  11.5980  14.2818  18.2729

     occupation numbers 
     1.0000   1.0000   1.0000   0.0000   0.0000   0.0000

          k = 0.4330 0.3062-0.0833 (   418 PWs)   bands (ev):

     0.3150   8.2060  10.0028  11.5527  14.1487  15.9622

     occupation numbers 
     1.0000   1.0538   0.0000   0.0000   0.0000   0.0000

          k = 0.3849 0.3742 0.0000 (   418 PWs)   bands (ev):

     0.3150   8.2060  10.0028  11.5526  14.1487  15.9622

     occupation numbers 
     1.0000   1.0538   0.0000   0.0000   0.0000   0.0000

          k = 0.5292 0.4763-0.2500 (   410 PWs)   bands (ev):

     4.1514   4.9363   5.9065  10.4330  16.2762  21.0045

     occupation numbers 
     1.0000   1.0000   1.0000   0.0000   0.0000   0.0000

          k = 0.4811 0.4423-0.1667 (   414 PWs)   bands (ev):

     3.0142   5.5849   7.5070   9.9697  15.7769  18.2194

     occupation numbers 
     1.0000   1.0000   1.0000   0.0000   0.0000   0.0000

          k = 0.4330 0.4082-0.0833 (   414 PWs)   bands (ev):

     1.5137   6.7974   9.5490  10.0360  15.2843  16.0244

     occupation numbers 
     1.0000   1.0000   0.0000   0.0000   0.0000   0.0000

          k = 0.3849-0.7485 0.0000 (   417 PWs)   bands (ev):

     1.7297   6.6655   7.8685  11.5980  14.2818  18.2729

     occupation numbers 
     1.0000   1.0000   1.0000   0.0000   0.0000   0.0000

          k = 0.5292-0.6464-0.2500 (   410 PWs)   bands (ev):

     3.7494   5.4179   6.7595   8.5358  18.9370  21.1475

     occupation numbers 
     1.0000   1.0000   1.0000   0.0000   0.0000   0.0000

          k = 0.4811-0.6804-0.1667 (   418 PWs)   bands (ev):

     4.4315   4.7119   7.3860   8.1486  18.2764  18.5858

     occupation numbers 
     1.0000   1.0000   1.0000   1.0017   0.0000   0.0000

          k = 0.4330-0.7144-0.0833 (   414 PWs)   bands (ev):

     3.0142   5.5849   7.5070   9.9697  15.7769  18.2193

     occupation numbers 
     1.0000   1.0000   1.0000   0.0000   0.0000   0.0000

          k = 0.3849-0.6464 0.0000 (   414 PWs)   bands (ev):

     3.3225   4.9704   6.5439  11.9490  14.6815  20.9800

     occupation numbers 
     1.0000   1.0000   1.0000   0.0000   0.0000   0.0000

          k = 0.5292-0.5443-0.2500 (   408 PWs)   bands (ev):

     3.1931   6.0550   6.2713   9.1457  19.4525  22.0941

     occupation numbers 
     1.0000   1.0000   1.0000   0.0000   0.0000   0.0000

          k = 0.4811-0.5784-0.1667 (   410 PWs)   bands (ev):

     3.7494   5.4179   6.7595   8.5358  18.9371  21.1474

     occupation numbers 
     1.0000   1.0000   1.0000   0.0000   0.0000   0.0000

          k = 0.4330-0.6124-0.0833 (   410 PWs)   bands (ev):

     4.1514   4.9363   5.9065  10.4330  16.2762  21.0045

     occupation numbers 
     1.0000   1.0000   1.0000   0.0000   0.0000   0.0000

          k = 0.3849-0.5443 0.0000 (   403 PWs)   bands (ev):

     2.7357   5.6086   5.9923  12.5973  15.4142  23.7303

     occupation numbers 
     1.0000   1.0000   1.0000   0.0000   0.0000   0.0000

          k = 0.5292-0.4423-0.2500 (   410 PWs)   bands (ev):

     2.8420   4.7133   7.2363  11.2303  17.0621  22.8450

     occupation numbers 
     1.0000   1.0000   1.0000   0.0000   0.0000   0.0000

          k = 0.4811-0.4763-0.1667 (   416 PWs)   bands (ev):

     2.9868   4.2468   8.4752   9.7737  19.2286  20.6266

     occupation numbers 
     1.0000   1.0000   0.0000   0.0000   0.0000   0.0000

          k = 0.4330-0.5103-0.0833 (   410 PWs)   bands (ev):

     2.8419   4.7133   7.2363  11.2303  17.0621  22.8452

     occupation numbers 
     1.0000   1.0000   1.0000   0.0000   0.0000   0.0000

          k = 0.3849-0.4423 0.0000 (   412 PWs)   bands (ev):

     1.1787   5.4885   8.1077  13.5203  16.4688  23.0514

     occupation numbers 
     1.0000   1.0000   1.0000   0.0000   0.0000   0.0000

          k = 0.5774-0.3062-0.3333 (   410 PWs)   bands (ev):

     2.8419   4.7133   7.2363  11.2303  17.0621  22.8451

     occupation numbers 
     1.0000   1.0000   1.0000   0.0000   0.0000   0.0000

          k = 0.5292-0.3402-0.2500 (   412 PWs)   bands (ev):

     2.5336   3.8137   8.5853  12.7957  15.6528  23.4770

     occupation numbers 
     1.0000   1.0000   0.0000   0.0000   0.0000   0.0000

          k = 0.4811-0.3742-0.1667 (   413 PWs)   bands (ev):

     1.9543   3.8347  10.0773  11.7668  17.4620  21.0929

     occupation numbers 
     1.0000   1.0000   0.0000   0.0000   0.0000   0.0000

          k = 0.4330-0.4082-0.0833 (   410 PWs)   bands (ev):

     1.4297   4.4668   9.5953  12.3356  18.0645  20.6744

     occupation numbers 
     1.0000   1.0000   0.0000   0.0000   0.0000   0.0000

          k = 0.3849-0.3402 0.0000 (   410 PWs)   bands (ev):

    -0.1158   5.5369  10.6959  14.6452  17.7947  20.8660

     occupation numbers 
     1.0000   1.0000   0.0000   0.0000   0.0000   0.0000

          k = 0.5774-0.2041-0.3333 (   416 PWs)   bands (ev):

     2.9868   4.2468   8.4752   9.7737  19.2285  20.6266

     occupation numbers 
     1.0000   1.0000   0.0000   0.0000   0.0000   0.0000

          k = 0.5292-0.2381-0.2500 (   413 PWs)   bands (ev):

     1.9543   3.8347  10.0773  11.7668  17.4621  21.0929

     occupation numbers 
     1.0000   1.0000   0.0000   0.0000   0.0000   0.0000

          k = 0.4811-0.2722-0.1667 (   409 PWs)   bands (ev):

     0.9754   4.0201  11.6455  13.3807  16.3860  21.6845

     occupation numbers 
     1.0000   1.0000   0.0000   0.0000   0.0000   0.0000

          k = 0.4330-0.3062-0.0833 (   411 PWs)   bands (ev):

     0.2687   4.6037  12.1163  13.6569  18.1935  19.7397

     occupation numbers 
     1.0000   1.0000   0.0000   0.0000   0.0000   0.0000

          k = 0.3849-0.2381 0.0000 (   409 PWs)   bands (ev):

    -1.0875   5.9233  13.3827  15.6396  19.1824  19.3345

     occupation numbers 
     1.0000   1.0000   0.0000   0.0000   0.0000   0.0000

          k = 0.5292-0.1361-0.2500 (   410 PWs)   bands (ev):

     1.4297   4.4668   9.5952  12.3356  18.0645  20.6743

     occupation numbers 
     1.0000   1.0000   0.0000   0.0000   0.0000   0.0000

          k = 0.4811-0.1701-0.1667 (   411 PWs)   bands (ev):

     0.2687   4.6037  12.1163  13.6569  18.1936  19.7398

     occupation numbers 
     1.0000   1.0000   0.0000   0.0000   0.0000   0.0000

          k = 0.4330-0.2041-0.0833 (   411 PWs)   bands (ev):

    -0.5770   5.0941  14.3096  14.4966  17.7229  20.3260

     occupation numbers 
     1.0000   1.0000   0.0000   0.0000   0.0000   0.0000

          k = 0.4811-0.1701 0.0000 (   416 PWs)   bands (ev):

    -0.1938   4.1602  15.3067  15.3067  18.8545  18.8545

     occupation numbers 
     1.0000   1.0000   0.0000   0.0000   0.0000   0.0000

          k = 0.5774-0.1021-0.1667 (   408 PWs)   bands (ev):

     1.4926   3.3985  11.0283  13.8853  16.9163  21.1138

     occupation numbers 
     1.0000   1.0000   0.0000   0.0000   0.0000   0.0000

          k = 0.5292-0.1361-0.0833 (   411 PWs)   bands (ev):

     0.5127   3.5787  13.5475  15.0233  18.3037  19.2603

     occupation numbers 
     1.0000   1.0000   0.0000   0.0000   0.0000   0.0000

          k = 0.4811-0.0680 0.0000 (   411 PWs)   bands (ev):

    -0.5770   5.0941  14.3095  14.4966  17.7229  20.3261

     occupation numbers 
     1.0000   1.0000   0.0000   0.0000   0.0000   0.0000

          k = 0.5774 0.0000-0.1667 (   410 PWs)   bands (ev):

     1.4297   4.4668   9.5952  12.3356  18.0645  20.6743

     occupation numbers 
     1.0000   1.0000   0.0000   0.0000   0.0000   0.0000

          k = 0.5292-0.0340-0.0833 (   411 PWs)   bands (ev):

     0.2687   4.6037  12.1163  13.6569  18.1936  19.7397

     occupation numbers 
     1.0000   1.0000   0.0000   0.0000   0.0000   0.0000

          k = 0.4811 0.0340 0.0000 (   415 PWs)   bands (ev):

    -0.6222   6.3529  12.5027  13.1590  16.2425  21.6894

     occupation numbers 
     1.0000   1.0000   0.0000   0.0000   0.0000   0.0000

          k = 0.5774 0.1021-0.1667 (   412 PWs)   bands (ev):

     1.6403   5.8972   8.3587  10.2163  19.1713  20.6915

     occupation numbers 
     1.0000   1.0000   0.0211   0.0000   0.0000   0.0000

          k = 0.5292 0.0680-0.0833 (   411 PWs)   bands (ev):

     0.3482   5.9595  10.6049  11.7625  17.1492  21.2301

     occupation numbers 
     1.0000   1.0000   0.0000   0.0000   0.0000   0.0000

          k = 0.4811 0.1361 0.0000 (   417 PWs)   bands (ev):

    -0.3247   7.8655  10.4680  12.2157  15.0536  18.8849

     occupation numbers 
     1.0000   1.0000   0.0000   0.0000   0.0000   0.0000

          k = 0.5774 0.2041-0.1667 (   412 PWs)   bands (ev):

     2.1671   6.9676   7.6082   8.7708  18.4884  18.7567

     occupation numbers 
     1.0000   1.0000   1.0000   0.0000   0.0000   0.0000

          k = 0.5292 0.1701-0.0833 (   415 PWs)   bands (ev):

     0.7628   7.4791   8.9462  10.5355  16.2260  18.6217

     occupation numbers 
     1.0000   1.0000   0.0000   0.0000   0.0000   0.0000

          k = 0.4811 0.2381 0.0000 (   418 PWs)   bands (ev):

     0.3150   8.2060  10.0028  11.5526  14.1487  15.9622

     occupation numbers 
     1.0000   1.0538   0.0000   0.0000   0.0000   0.0000

          k = 0.5774 0.3062-0.1667 (   414 PWs)   bands (ev):

     3.0142   5.5849   7.5070   9.9697  15.7769  18.2194

     occupation numbers 
     1.0000   1.0000   1.0000   0.0000   0.0000   0.0000

          k = 0.5292 0.2722-0.0833 (   414 PWs)   bands (ev):

     1.5137   6.7974   9.5490  10.0360  15.2843  16.0244

     occupation numbers 
     1.0000   1.0000   0.0000   0.0000   0.0000   0.0000

          k = 0.4811 0.3402 0.0000 (   424 PWs)   bands (ev):

     1.2924   6.6451  11.1908  11.1908  13.2171  14.4429

     occupation numbers 
     1.0000   1.0000   0.0000   0.0000   0.0000   0.0000

          k = 0.5774 0.4082-0.1667 (   412 PWs)   bands (ev):

     4.0832   4.2628   7.3153  11.3911  14.0331  18.0669

     occupation numbers 
     1.0000   1.0000   1.0000   0.0000   0.0000   0.0000

          k = 0.5292 0.3742-0.0833 (   419 PWs)   bands (ev):

     2.5948   5.2666   9.4839  11.1367  13.6577  15.4937

     occupation numbers 
     1.0000   1.0000   0.0000   0.0000   0.0000   0.0000

          k = 0.4811-0.7825 0.0000 (   419 PWs)   bands (ev):

     2.5948   5.2666   9.4839  11.1367  13.6577  15.4937

     occupation numbers 
     1.0000   1.0000   0.0000   0.0000   0.0000   0.0000

          k = 0.5292-0.7485-0.0833 (   414 PWs)   bands (ev):

     3.9398   4.0380   9.3303   9.7646  15.0627  15.7937

     occupation numbers 
     1.0000   1.0000   0.0000   0.0000   0.0000   0.0000

          k = 0.4811-0.6804 0.0000 (   412 PWs)   bands (ev):

     4.0832   4.2628   7.3153  11.3911  14.0331  18.0669

     occupation numbers 
     1.0000   1.0000   1.0000   0.0000   0.0000   0.0000

          k = 0.5292-0.6464-0.0833 (   414 PWs)   bands (ev):

     3.0142   5.5849   7.5070   9.9697  15.7769  18.2194

     occupation numbers 
     1.0000   1.0000   1.0000   0.0000   0.0000   0.0000

          k = 0.4811-0.5784 0.0000 (   414 PWs)   bands (ev):

     3.3225   4.9704   6.5439  11.9490  14.6815  20.9800

     occupation numbers 
     1.0000   1.0000   1.0000   0.0000   0.0000   0.0000

          k = 0.5292-0.5443-0.0833 (   413 PWs)   bands (ev):

     2.3499   5.2775   7.9394  10.6866  16.4944  21.1311

     occupation numbers 
     1.0000   1.0000   1.0000   0.0000   0.0000   0.0000

          k = 0.4811-0.4763 0.0000 (   412 PWs)   bands (ev):

     2.5336   3.8137   8.5854  12.7956  15.6530  23.4770

     occupation numbers 
     1.0000   1.0000   0.0000   0.0000   0.0000   0.0000

          k = 0.5292-0.4423-0.0833 (   413 PWs)   bands (ev):

     1.9543   3.8347  10.0773  11.7668  17.4620  21.0929

     occupation numbers 
     1.0000   1.0000   0.0000   0.0000   0.0000   0.0000

          k = 0.4811-0.3742 0.0000 (   408 PWs)   bands (ev):

     1.4926   3.3985  11.0284  13.8853  16.9163  21.1138

     occupation numbers 
     1.0000   1.0000   0.0000   0.0000   0.0000   0.0000

          k = 0.5292-0.3402-0.0833 (   412 PWs)   bands (ev):

     1.6169   2.9370  12.2292  13.2703  18.2471  19.3769

     occupation numbers 
     1.0000   1.0000   0.0000   0.0000   0.0000   0.0000

          k = 0.4811-0.2722 0.0000 (   411 PWs)   bands (ev):

     0.5127   3.5787  13.5475  15.0233  18.3037  19.2603

     occupation numbers 
     1.0000   1.0000   0.0000   0.0000   0.0000   0.0000

          k = 0.5774-0.2041-0.1667 (   412 PWs)   bands (ev):

     1.6169   2.9370  12.2292  13.2703  18.2471  19.3769

     occupation numbers 
     1.0000   1.0000   0.0000   0.0000   0.0000   0.0000

          k = 0.5292-0.2381-0.0833 (   411 PWs)   bands (ev):

     1.0329   2.9516  13.9443  14.5563  17.7899  19.6141

     occupation numbers 
     1.0000   1.0000   0.0000   0.0000   0.0000   0.0000

          k =-0.5774 0.2041 0.0000 (   410 PWs)   bands (ev):

     1.1535   2.4920  15.2782  15.2782  18.5907  19.6743

     occupation numbers 
     1.0000   1.0000   0.0000   0.0000   0.0000   0.0000

          k =-0.5774 0.3062 0.0000 (   411 PWs)   bands (ev):

     1.0329   2.9516  13.9443  14.5563  17.7899  19.6141

     occupation numbers 
     1.0000   1.0000   0.0000   0.0000   0.0000   0.0000

          k =-0.5774 0.4082 0.0000 (   409 PWs)   bands (ev):

     0.9754   4.0201  11.6455  13.3807  16.3861  21.6845

     occupation numbers 
     1.0000   1.0000   0.0000   0.0000   0.0000   0.0000

          k =-0.5774 0.5103 0.0000 (   416 PWs)   bands (ev):

     1.1926   5.4535   9.3792  12.3561  15.1785  21.2858

     occupation numbers 
     1.0000   1.0000   0.0000   0.0000   0.0000   0.0000

          k =-0.5774 0.6124 0.0000 (   417 PWs)   bands (ev):

     1.7297   6.6655   7.8685  11.5980  14.2818  18.2729

     occupation numbers 
     1.0000   1.0000   1.0000   0.0000   0.0000   0.0000

          k =-0.5774 0.7144 0.0000 (   419 PWs)   bands (ev):

     2.5948   5.2666   9.4839  11.1367  13.6577  15.4937

     occupation numbers 
     1.0000   1.0000   0.0000   0.0000   0.0000   0.0000

          k =-0.5774-0.4082 0.0000 (   412 PWs)   bands (ev):

     3.7529   3.8131  10.9821  10.9821  12.9835  14.1798

     occupation numbers 
     1.0000   1.0000   0.0000   0.0000   0.0000   0.0000

     the Fermi energy is     8.3023 ev

!    total energy              =      -9.54821274 Ry
     Harris-Foulkes estimate   =      -9.54821272 Ry
     estimated scf accuracy    <       0.00000083 Ry

     The total energy is the sum of the following terms:

     one-electron contribution =       4.02615474 Ry
     hartree contribution      =       0.06765702 Ry
     xc contribution           =      -4.21582741 Ry
     ewald contribution        =      -9.42618648 Ry
     smearing contrib. (-TS)   =      -0.00001062 Ry

     convergence has been achieved in   3 iterations

     Forces acting on atoms (cartesian axes, Ry/au):

     atom    1 type  1   force =     0.00000000    0.00000000    0.00000000
     The non-local contrib.  to forces
     atom    1 type  1   force =    -0.00000000    0.00000000    0.00000000
     The ionic contribution  to forces
     atom    1 type  1   force =     0.00000000    0.00000000    0.00000000
     The local contribution  to forces
     atom    1 type  1   force =    -0.00000000    0.00000000    0.00000000
     The core correction contribution to forces
     atom    1 type  1   force =    -0.00000000   -0.00000000    0.00000000
     The Hubbard contrib.    to forces
     atom    1 type  1   force =     0.00000000    0.00000000    0.00000000
     The SCF correction term to forces
     atom    1 type  1   force =    -0.00000000   -0.00000000   -0.00000000

     Total force =     0.000000     Total SCF correction =     0.000000

     BFGS Geometry Optimization

     bfgs converged in   1 scf cycles and   0 bfgs steps
     (criteria: energy <  1.0E-04 Ry, force <  1.0E-03 Ry/Bohr)

     End of BFGS Geometry Optimization

     Final energy   =      -9.5482127426 Ry
Begin final coordinates

ATOMIC_POSITIONS (crystal)
Si       0.000000000   0.000000000   0.000000000
End final coordinates


 
     init_run     :     17.68s CPU      1.46s WALL (       1 calls)
     electrons    :    242.71s CPU     16.32s WALL (       1 calls)
     forces       :      4.86s CPU      0.21s WALL (       1 calls)

     Called by init_run:
     wfcinit      :     17.29s CPU      1.30s WALL (       1 calls)
     wfcinit:atom :      0.39s CPU      0.03s WALL (     476 calls)
     wfcinit:wfcr :     15.79s CPU      1.18s WALL (     476 calls)
     potinit      :      0.04s CPU      0.01s WALL (       1 calls)

     Called by electrons:
     c_bands      :    217.69s CPU     14.25s WALL (       4 calls)
     sum_band     :     24.29s CPU      2.02s WALL (       4 calls)
     v_of_rho     :      0.18s CPU      0.02s WALL (       4 calls)
     v_h          :      0.01s CPU      0.00s WALL (       4 calls)
     v_xc         :      0.27s CPU      0.02s WALL (       5 calls)
     newd         :      0.45s CPU      0.03s WALL (       4 calls)
     mix_rho      :      0.02s CPU      0.00s WALL (       4 calls)

     Called by c_bands:
     init_us_2    :      7.39s CPU      0.52s WALL (    4760 calls)
     cegterg      :    192.91s CPU     12.50s WALL (    1904 calls)

     Called by sum_band:
     sum_band:bec :      0.26s CPU      0.02s WALL (    1904 calls)
     addusdens    :      0.27s CPU      0.02s WALL (       4 calls)

     Called by *egterg:
     h_psi        :    180.26s CPU     11.89s WALL (    7043 calls)
     s_psi        :      1.77s CPU      0.12s WALL (    7043 calls)
     g_psi        :      0.82s CPU      0.05s WALL (    4663 calls)
     cdiaghg      :      9.82s CPU      0.64s WALL (    6091 calls)
     cegterg:over :      2.31s CPU      0.15s WALL (    4663 calls)
     cegterg:upda :      2.02s CPU      0.14s WALL (    4663 calls)
     cegterg:last :      1.11s CPU      0.08s WALL (    1936 calls)

     Called by h_psi:
     h_psi:pot    :    178.33s CPU     11.76s WALL (    7043 calls)
     h_psi:calbec :      5.32s CPU      0.35s WALL (    7043 calls)
     vloc_psi     :    168.44s CPU     11.13s WALL (    7043 calls)
     add_vuspsi   :      2.19s CPU      0.16s WALL (    7043 calls)

     General routines
     calbec       :      6.31s CPU      0.42s WALL (   10851 calls)
     fft          :      0.11s CPU      0.02s WALL (      65 calls)
     fftw         :    151.83s CPU     10.40s WALL (   76136 calls)
 
     Parallel routines
 
     PWSCF        :  4m25.43s CPU     0m18.07s WALL

 
   This run was terminated on:   0:10:11  31Jan2019            

=------------------------------------------------------------------------------=
   JOB DONE.
=------------------------------------------------------------------------------=
