
     Program PWSCF v.6.2 (svn rev. 14038) starts on 24Jan2019 at 17: 9: 3 

     This program is part of the open-source Quantum ESPRESSO suite
     for quantum simulation of materials; please cite
         "P. Giannozzi et al., J. Phys.:Condens. Matter 21 395502 (2009);
         "P. Giannozzi et al., J. Phys.:Condens. Matter 29 465901 (2017);
          URL http://www.quantum-espresso.org", 
     in publications or presentations arising from this work. More details at
     http://www.quantum-espresso.org/quote

     Parallel version (MPI), running on     1 processors

     MPI processes distributed on     1 nodes
     Reading input from ./AlfccSEPNEG0DOT015415432569129084.in
Warning: card &IONS ignored
Warning: card / ignored
Warning: card &CELL ignored
Warning: card / ignored

     Current dimensions of program PWSCF are:
     Max number of different atomic species (ntypx) = 10
     Max number of k-points (npk) =  40000
     Max angular momentum in pseudopotentials (lmaxx) =  3
     Message from routine iosys:
     minimal I/O required, wf_collect reset to FALSE

     Subspace diagonalization in iterative solution of the eigenvalue problem:
     a serial algorithm will be used

     Found symmetry operation: I + ( -0.5000 -0.5000  0.0000)
     This is a supercell, fractional translations are disabled
 
     G-vector sticks info
     --------------------
     sticks:   dense  smooth     PW     G-vecs:    dense   smooth      PW
     Sum         465     465    145                 7351     7351    1357
 


     bravais-lattice index     =            0
     lattice parameter (alat)  =       7.6325  a.u.
     unit-cell volume          =     437.7726 (a.u.)^3
     number of atoms/cell      =            4
     number of atomic types    =            1
     number of electrons       =        12.00
     number of Kohn-Sham states=           10
     kinetic-energy cutoff     =      25.0000  Ry
     charge density cutoff     =     100.0000  Ry
     convergence threshold     =      1.0E-07
     mixing beta               =       0.7000
     number of iterations used =            8  plain     mixing
     Exchange-correlation      = SLA  PW   PBE  PBE ( 1  4  3  4 0 0)

     celldm(1)=   7.632472  celldm(2)=   0.000000  celldm(3)=   0.000000
     celldm(4)=   0.000000  celldm(5)=   0.000000  celldm(6)=   0.000000

     crystal axes: (cart. coord. in units of alat)
               a(1) = (   1.000000   0.000000   0.000000 )  
               a(2) = (   0.000000   1.000000   0.000000 )  
               a(3) = (   0.000000   0.000000   0.984585 )  

     reciprocal axes: (cart. coord. in units 2 pi/alat)
               b(1) = (  1.000000  0.000000  0.000000 )  
               b(2) = (  0.000000  1.000000  0.000000 )  
               b(3) = (  0.000000  0.000000  1.015657 )  


     PseudoPot. # 1 for Al read from file:
     ./al_pbe_v1.uspp.F.UPF
     MD5 check sum: 0a6289f5291fc8f409219462bc851e1f
     Pseudo is Ultrasoft + core correction, Zval =  3.0
     Generated by new atomic code, or converted to UPF format
     Using radial grid of  893 points,  3 beta functions with: 
                l(1) =   0
                l(2) =   1
                l(3) =   2
     Q(r) pseudized with  8 coefficients,  rinner =    0.900   0.900   0.900
                                                       0.900   0.900

     atomic species   valence    mass     pseudopotential
        Al             3.00    26.98150     Al( 1.00)

     16 Sym. Ops., with inversion, found


                                    s                        frac. trans.

      isym =  1     identity                                     

 cryst.   s( 1) = (     1          0          0      )
                  (     0          1          0      )
                  (     0          0          1      )

 cart.    s( 1) = (  1.0000000  0.0000000  0.0000000 )
                  (  0.0000000  1.0000000  0.0000000 )
                  (  0.0000000  0.0000000  1.0000000 )


      isym =  2     180 deg rotation - cart. axis [0,0,1]        

 cryst.   s( 2) = (    -1          0          0      )
                  (     0         -1          0      )
                  (     0          0          1      )

 cart.    s( 2) = ( -1.0000000  0.0000000  0.0000000 )
                  (  0.0000000 -1.0000000  0.0000000 )
                  (  0.0000000  0.0000000  1.0000000 )


      isym =  3     180 deg rotation - cart. axis [0,1,0]        

 cryst.   s( 3) = (    -1          0          0      )
                  (     0          1          0      )
                  (     0          0         -1      )

 cart.    s( 3) = ( -1.0000000  0.0000000  0.0000000 )
                  (  0.0000000  1.0000000  0.0000000 )
                  (  0.0000000  0.0000000 -1.0000000 )


      isym =  4     180 deg rotation - cart. axis [1,0,0]        

 cryst.   s( 4) = (     1          0          0      )
                  (     0         -1          0      )
                  (     0          0         -1      )

 cart.    s( 4) = (  1.0000000  0.0000000  0.0000000 )
                  (  0.0000000 -1.0000000  0.0000000 )
                  (  0.0000000  0.0000000 -1.0000000 )


      isym =  5     180 deg rotation - cart. axis [1,1,0]        

 cryst.   s( 5) = (     0          1          0      )
                  (     1          0          0      )
                  (     0          0         -1      )

 cart.    s( 5) = (  0.0000000  1.0000000  0.0000000 )
                  (  1.0000000  0.0000000  0.0000000 )
                  (  0.0000000  0.0000000 -1.0000000 )


      isym =  6     180 deg rotation - cart. axis [1,-1,0]       

 cryst.   s( 6) = (     0         -1          0      )
                  (    -1          0          0      )
                  (     0          0         -1      )

 cart.    s( 6) = (  0.0000000 -1.0000000  0.0000000 )
                  ( -1.0000000  0.0000000  0.0000000 )
                  (  0.0000000  0.0000000 -1.0000000 )


      isym =  7      90 deg rotation - cart. axis [0,0,-1]       

 cryst.   s( 7) = (     0         -1          0      )
                  (     1          0          0      )
                  (     0          0          1      )

 cart.    s( 7) = (  0.0000000  1.0000000  0.0000000 )
                  ( -1.0000000  0.0000000  0.0000000 )
                  (  0.0000000  0.0000000  1.0000000 )


      isym =  8      90 deg rotation - cart. axis [0,0,1]        

 cryst.   s( 8) = (     0          1          0      )
                  (    -1          0          0      )
                  (     0          0          1      )

 cart.    s( 8) = (  0.0000000 -1.0000000  0.0000000 )
                  (  1.0000000  0.0000000  0.0000000 )
                  (  0.0000000  0.0000000  1.0000000 )


      isym =  9     inversion                                    

 cryst.   s( 9) = (    -1          0          0      )
                  (     0         -1          0      )
                  (     0          0         -1      )

 cart.    s( 9) = ( -1.0000000  0.0000000  0.0000000 )
                  (  0.0000000 -1.0000000  0.0000000 )
                  (  0.0000000  0.0000000 -1.0000000 )


      isym = 10     inv. 180 deg rotation - cart. axis [0,0,1]   

 cryst.   s(10) = (     1          0          0      )
                  (     0          1          0      )
                  (     0          0         -1      )

 cart.    s(10) = (  1.0000000  0.0000000  0.0000000 )
                  (  0.0000000  1.0000000  0.0000000 )
                  (  0.0000000  0.0000000 -1.0000000 )


      isym = 11     inv. 180 deg rotation - cart. axis [0,1,0]   

 cryst.   s(11) = (     1          0          0      )
                  (     0         -1          0      )
                  (     0          0          1      )

 cart.    s(11) = (  1.0000000  0.0000000  0.0000000 )
                  (  0.0000000 -1.0000000  0.0000000 )
                  (  0.0000000  0.0000000  1.0000000 )


      isym = 12     inv. 180 deg rotation - cart. axis [1,0,0]   

 cryst.   s(12) = (    -1          0          0      )
                  (     0          1          0      )
                  (     0          0          1      )

 cart.    s(12) = ( -1.0000000  0.0000000  0.0000000 )
                  (  0.0000000  1.0000000  0.0000000 )
                  (  0.0000000  0.0000000  1.0000000 )


      isym = 13     inv. 180 deg rotation - cart. axis [1,1,0]   

 cryst.   s(13) = (     0         -1          0      )
                  (    -1          0          0      )
                  (     0          0          1      )

 cart.    s(13) = (  0.0000000 -1.0000000  0.0000000 )
                  ( -1.0000000  0.0000000  0.0000000 )
                  (  0.0000000  0.0000000  1.0000000 )


      isym = 14     inv. 180 deg rotation - cart. axis [1,-1,0]  

 cryst.   s(14) = (     0          1          0      )
                  (     1          0          0      )
                  (     0          0          1      )

 cart.    s(14) = (  0.0000000  1.0000000  0.0000000 )
                  (  1.0000000  0.0000000  0.0000000 )
                  (  0.0000000  0.0000000  1.0000000 )


      isym = 15     inv.  90 deg rotation - cart. axis [0,0,-1]  

 cryst.   s(15) = (     0          1          0      )
                  (    -1          0          0      )
                  (     0          0         -1      )

 cart.    s(15) = (  0.0000000 -1.0000000  0.0000000 )
                  (  1.0000000  0.0000000  0.0000000 )
                  (  0.0000000  0.0000000 -1.0000000 )


      isym = 16     inv.  90 deg rotation - cart. axis [0,0,1]   

 cryst.   s(16) = (     0         -1          0      )
                  (     1          0          0      )
                  (     0          0         -1      )

 cart.    s(16) = (  0.0000000  1.0000000  0.0000000 )
                  ( -1.0000000  0.0000000  0.0000000 )
                  (  0.0000000  0.0000000 -1.0000000 )


   Cartesian axes

     site n.     atom                  positions (alat units)
         1           Al  tau(   1) = (   0.0000000   0.0000000   0.0000000  )
         2           Al  tau(   2) = (   0.5000000   0.5000000   0.0000000  )
         3           Al  tau(   3) = (   0.5000000   0.0000000   0.4922923  )
         4           Al  tau(   4) = (   0.0000000   0.5000000   0.4922923  )

   Crystallographic axes

     site n.     atom                  positions (cryst. coord.)
         1           Al  tau(   1) = (  0.0000000  0.0000000  0.0000000  )
         2           Al  tau(   2) = (  0.5000000  0.5000000  0.0000000  )
         3           Al  tau(   3) = (  0.5000000  0.0000000  0.5000000  )
         4           Al  tau(   4) = (  0.0000000  0.5000000  0.5000000  )

     number of k points=   550  Marzari-Vanderbilt smearing, width (Ry)=  0.0100
                       cart. coord. in units 2pi/alat
        k(    1) = (   0.0000000   0.0000000   0.0000000), wk =   0.0003429
        k(    2) = (   0.0000000   0.0000000   0.0564254), wk =   0.0006859
        k(    3) = (   0.0000000   0.0000000   0.1128508), wk =   0.0006859
        k(    4) = (   0.0000000   0.0000000   0.1692761), wk =   0.0006859
        k(    5) = (   0.0000000   0.0000000   0.2257015), wk =   0.0006859
        k(    6) = (   0.0000000   0.0000000   0.2821269), wk =   0.0006859
        k(    7) = (   0.0000000   0.0000000   0.3385523), wk =   0.0006859
        k(    8) = (   0.0000000   0.0000000   0.3949777), wk =   0.0006859
        k(    9) = (   0.0000000   0.0000000   0.4514030), wk =   0.0006859
        k(   10) = (   0.0000000   0.0000000  -0.5078284), wk =   0.0003429
        k(   11) = (   0.0000000   0.0555556   0.0000000), wk =   0.0013717
        k(   12) = (   0.0000000   0.0555556   0.0564254), wk =   0.0027435
        k(   13) = (   0.0000000   0.0555556   0.1128508), wk =   0.0027435
        k(   14) = (   0.0000000   0.0555556   0.1692761), wk =   0.0027435
        k(   15) = (   0.0000000   0.0555556   0.2257015), wk =   0.0027435
        k(   16) = (   0.0000000   0.0555556   0.2821269), wk =   0.0027435
        k(   17) = (   0.0000000   0.0555556   0.3385523), wk =   0.0027435
        k(   18) = (   0.0000000   0.0555556   0.3949777), wk =   0.0027435
        k(   19) = (   0.0000000   0.0555556   0.4514030), wk =   0.0027435
        k(   20) = (   0.0000000   0.0555556  -0.5078284), wk =   0.0013717
        k(   21) = (   0.0000000   0.1111111   0.0000000), wk =   0.0013717
        k(   22) = (   0.0000000   0.1111111   0.0564254), wk =   0.0027435
        k(   23) = (   0.0000000   0.1111111   0.1128508), wk =   0.0027435
        k(   24) = (   0.0000000   0.1111111   0.1692761), wk =   0.0027435
        k(   25) = (   0.0000000   0.1111111   0.2257015), wk =   0.0027435
        k(   26) = (   0.0000000   0.1111111   0.2821269), wk =   0.0027435
        k(   27) = (   0.0000000   0.1111111   0.3385523), wk =   0.0027435
        k(   28) = (   0.0000000   0.1111111   0.3949777), wk =   0.0027435
        k(   29) = (   0.0000000   0.1111111   0.4514030), wk =   0.0027435
        k(   30) = (   0.0000000   0.1111111  -0.5078284), wk =   0.0013717
        k(   31) = (   0.0000000   0.1666667   0.0000000), wk =   0.0013717
        k(   32) = (   0.0000000   0.1666667   0.0564254), wk =   0.0027435
        k(   33) = (   0.0000000   0.1666667   0.1128508), wk =   0.0027435
        k(   34) = (   0.0000000   0.1666667   0.1692761), wk =   0.0027435
        k(   35) = (   0.0000000   0.1666667   0.2257015), wk =   0.0027435
        k(   36) = (   0.0000000   0.1666667   0.2821269), wk =   0.0027435
        k(   37) = (   0.0000000   0.1666667   0.3385523), wk =   0.0027435
        k(   38) = (   0.0000000   0.1666667   0.3949777), wk =   0.0027435
        k(   39) = (   0.0000000   0.1666667   0.4514030), wk =   0.0027435
        k(   40) = (   0.0000000   0.1666667  -0.5078284), wk =   0.0013717
        k(   41) = (   0.0000000   0.2222222   0.0000000), wk =   0.0013717
        k(   42) = (   0.0000000   0.2222222   0.0564254), wk =   0.0027435
        k(   43) = (   0.0000000   0.2222222   0.1128508), wk =   0.0027435
        k(   44) = (   0.0000000   0.2222222   0.1692761), wk =   0.0027435
        k(   45) = (   0.0000000   0.2222222   0.2257015), wk =   0.0027435
        k(   46) = (   0.0000000   0.2222222   0.2821269), wk =   0.0027435
        k(   47) = (   0.0000000   0.2222222   0.3385523), wk =   0.0027435
        k(   48) = (   0.0000000   0.2222222   0.3949777), wk =   0.0027435
        k(   49) = (   0.0000000   0.2222222   0.4514030), wk =   0.0027435
        k(   50) = (   0.0000000   0.2222222  -0.5078284), wk =   0.0013717
        k(   51) = (   0.0000000   0.2777778   0.0000000), wk =   0.0013717
        k(   52) = (   0.0000000   0.2777778   0.0564254), wk =   0.0027435
        k(   53) = (   0.0000000   0.2777778   0.1128508), wk =   0.0027435
        k(   54) = (   0.0000000   0.2777778   0.1692761), wk =   0.0027435
        k(   55) = (   0.0000000   0.2777778   0.2257015), wk =   0.0027435
        k(   56) = (   0.0000000   0.2777778   0.2821269), wk =   0.0027435
        k(   57) = (   0.0000000   0.2777778   0.3385523), wk =   0.0027435
        k(   58) = (   0.0000000   0.2777778   0.3949777), wk =   0.0027435
        k(   59) = (   0.0000000   0.2777778   0.4514030), wk =   0.0027435
        k(   60) = (   0.0000000   0.2777778  -0.5078284), wk =   0.0013717
        k(   61) = (   0.0000000   0.3333333   0.0000000), wk =   0.0013717
        k(   62) = (   0.0000000   0.3333333   0.0564254), wk =   0.0027435
        k(   63) = (   0.0000000   0.3333333   0.1128508), wk =   0.0027435
        k(   64) = (   0.0000000   0.3333333   0.1692761), wk =   0.0027435
        k(   65) = (   0.0000000   0.3333333   0.2257015), wk =   0.0027435
        k(   66) = (   0.0000000   0.3333333   0.2821269), wk =   0.0027435
        k(   67) = (   0.0000000   0.3333333   0.3385523), wk =   0.0027435
        k(   68) = (   0.0000000   0.3333333   0.3949777), wk =   0.0027435
        k(   69) = (   0.0000000   0.3333333   0.4514030), wk =   0.0027435
        k(   70) = (   0.0000000   0.3333333  -0.5078284), wk =   0.0013717
        k(   71) = (   0.0000000   0.3888889   0.0000000), wk =   0.0013717
        k(   72) = (   0.0000000   0.3888889   0.0564254), wk =   0.0027435
        k(   73) = (   0.0000000   0.3888889   0.1128508), wk =   0.0027435
        k(   74) = (   0.0000000   0.3888889   0.1692761), wk =   0.0027435
        k(   75) = (   0.0000000   0.3888889   0.2257015), wk =   0.0027435
        k(   76) = (   0.0000000   0.3888889   0.2821269), wk =   0.0027435
        k(   77) = (   0.0000000   0.3888889   0.3385523), wk =   0.0027435
        k(   78) = (   0.0000000   0.3888889   0.3949777), wk =   0.0027435
        k(   79) = (   0.0000000   0.3888889   0.4514030), wk =   0.0027435
        k(   80) = (   0.0000000   0.3888889  -0.5078284), wk =   0.0013717
        k(   81) = (   0.0000000   0.4444444   0.0000000), wk =   0.0013717
        k(   82) = (   0.0000000   0.4444444   0.0564254), wk =   0.0027435
        k(   83) = (   0.0000000   0.4444444   0.1128508), wk =   0.0027435
        k(   84) = (   0.0000000   0.4444444   0.1692761), wk =   0.0027435
        k(   85) = (   0.0000000   0.4444444   0.2257015), wk =   0.0027435
        k(   86) = (   0.0000000   0.4444444   0.2821269), wk =   0.0027435
        k(   87) = (   0.0000000   0.4444444   0.3385523), wk =   0.0027435
        k(   88) = (   0.0000000   0.4444444   0.3949777), wk =   0.0027435
        k(   89) = (   0.0000000   0.4444444   0.4514030), wk =   0.0027435
        k(   90) = (   0.0000000   0.4444444  -0.5078284), wk =   0.0013717
        k(   91) = (   0.0000000  -0.5000000   0.0000000), wk =   0.0006859
        k(   92) = (   0.0000000  -0.5000000   0.0564254), wk =   0.0013717
        k(   93) = (   0.0000000  -0.5000000   0.1128508), wk =   0.0013717
        k(   94) = (   0.0000000  -0.5000000   0.1692761), wk =   0.0013717
        k(   95) = (   0.0000000  -0.5000000   0.2257015), wk =   0.0013717
        k(   96) = (   0.0000000  -0.5000000   0.2821269), wk =   0.0013717
        k(   97) = (   0.0000000  -0.5000000   0.3385523), wk =   0.0013717
        k(   98) = (   0.0000000  -0.5000000   0.3949777), wk =   0.0013717
        k(   99) = (   0.0000000  -0.5000000   0.4514030), wk =   0.0013717
        k(  100) = (   0.0000000  -0.5000000  -0.5078284), wk =   0.0006859
        k(  101) = (   0.0555556   0.0555556   0.0000000), wk =   0.0013717
        k(  102) = (   0.0555556   0.0555556   0.0564254), wk =   0.0027435
        k(  103) = (   0.0555556   0.0555556   0.1128508), wk =   0.0027435
        k(  104) = (   0.0555556   0.0555556   0.1692761), wk =   0.0027435
        k(  105) = (   0.0555556   0.0555556   0.2257015), wk =   0.0027435
        k(  106) = (   0.0555556   0.0555556   0.2821269), wk =   0.0027435
        k(  107) = (   0.0555556   0.0555556   0.3385523), wk =   0.0027435
        k(  108) = (   0.0555556   0.0555556   0.3949777), wk =   0.0027435
        k(  109) = (   0.0555556   0.0555556   0.4514030), wk =   0.0027435
        k(  110) = (   0.0555556   0.0555556  -0.5078284), wk =   0.0013717
        k(  111) = (   0.0555556   0.1111111   0.0000000), wk =   0.0027435
        k(  112) = (   0.0555556   0.1111111   0.0564254), wk =   0.0054870
        k(  113) = (   0.0555556   0.1111111   0.1128508), wk =   0.0054870
        k(  114) = (   0.0555556   0.1111111   0.1692761), wk =   0.0054870
        k(  115) = (   0.0555556   0.1111111   0.2257015), wk =   0.0054870
        k(  116) = (   0.0555556   0.1111111   0.2821269), wk =   0.0054870
        k(  117) = (   0.0555556   0.1111111   0.3385523), wk =   0.0054870
        k(  118) = (   0.0555556   0.1111111   0.3949777), wk =   0.0054870
        k(  119) = (   0.0555556   0.1111111   0.4514030), wk =   0.0054870
        k(  120) = (   0.0555556   0.1111111  -0.5078284), wk =   0.0027435
        k(  121) = (   0.0555556   0.1666667   0.0000000), wk =   0.0027435
        k(  122) = (   0.0555556   0.1666667   0.0564254), wk =   0.0054870
        k(  123) = (   0.0555556   0.1666667   0.1128508), wk =   0.0054870
        k(  124) = (   0.0555556   0.1666667   0.1692761), wk =   0.0054870
        k(  125) = (   0.0555556   0.1666667   0.2257015), wk =   0.0054870
        k(  126) = (   0.0555556   0.1666667   0.2821269), wk =   0.0054870
        k(  127) = (   0.0555556   0.1666667   0.3385523), wk =   0.0054870
        k(  128) = (   0.0555556   0.1666667   0.3949777), wk =   0.0054870
        k(  129) = (   0.0555556   0.1666667   0.4514030), wk =   0.0054870
        k(  130) = (   0.0555556   0.1666667  -0.5078284), wk =   0.0027435
        k(  131) = (   0.0555556   0.2222222   0.0000000), wk =   0.0027435
        k(  132) = (   0.0555556   0.2222222   0.0564254), wk =   0.0054870
        k(  133) = (   0.0555556   0.2222222   0.1128508), wk =   0.0054870
        k(  134) = (   0.0555556   0.2222222   0.1692761), wk =   0.0054870
        k(  135) = (   0.0555556   0.2222222   0.2257015), wk =   0.0054870
        k(  136) = (   0.0555556   0.2222222   0.2821269), wk =   0.0054870
        k(  137) = (   0.0555556   0.2222222   0.3385523), wk =   0.0054870
        k(  138) = (   0.0555556   0.2222222   0.3949777), wk =   0.0054870
        k(  139) = (   0.0555556   0.2222222   0.4514030), wk =   0.0054870
        k(  140) = (   0.0555556   0.2222222  -0.5078284), wk =   0.0027435
        k(  141) = (   0.0555556   0.2777778   0.0000000), wk =   0.0027435
        k(  142) = (   0.0555556   0.2777778   0.0564254), wk =   0.0054870
        k(  143) = (   0.0555556   0.2777778   0.1128508), wk =   0.0054870
        k(  144) = (   0.0555556   0.2777778   0.1692761), wk =   0.0054870
        k(  145) = (   0.0555556   0.2777778   0.2257015), wk =   0.0054870
        k(  146) = (   0.0555556   0.2777778   0.2821269), wk =   0.0054870
        k(  147) = (   0.0555556   0.2777778   0.3385523), wk =   0.0054870
        k(  148) = (   0.0555556   0.2777778   0.3949777), wk =   0.0054870
        k(  149) = (   0.0555556   0.2777778   0.4514030), wk =   0.0054870
        k(  150) = (   0.0555556   0.2777778  -0.5078284), wk =   0.0027435
        k(  151) = (   0.0555556   0.3333333   0.0000000), wk =   0.0027435
        k(  152) = (   0.0555556   0.3333333   0.0564254), wk =   0.0054870
        k(  153) = (   0.0555556   0.3333333   0.1128508), wk =   0.0054870
        k(  154) = (   0.0555556   0.3333333   0.1692761), wk =   0.0054870
        k(  155) = (   0.0555556   0.3333333   0.2257015), wk =   0.0054870
        k(  156) = (   0.0555556   0.3333333   0.2821269), wk =   0.0054870
        k(  157) = (   0.0555556   0.3333333   0.3385523), wk =   0.0054870
        k(  158) = (   0.0555556   0.3333333   0.3949777), wk =   0.0054870
        k(  159) = (   0.0555556   0.3333333   0.4514030), wk =   0.0054870
        k(  160) = (   0.0555556   0.3333333  -0.5078284), wk =   0.0027435
        k(  161) = (   0.0555556   0.3888889   0.0000000), wk =   0.0027435
        k(  162) = (   0.0555556   0.3888889   0.0564254), wk =   0.0054870
        k(  163) = (   0.0555556   0.3888889   0.1128508), wk =   0.0054870
        k(  164) = (   0.0555556   0.3888889   0.1692761), wk =   0.0054870
        k(  165) = (   0.0555556   0.3888889   0.2257015), wk =   0.0054870
        k(  166) = (   0.0555556   0.3888889   0.2821269), wk =   0.0054870
        k(  167) = (   0.0555556   0.3888889   0.3385523), wk =   0.0054870
        k(  168) = (   0.0555556   0.3888889   0.3949777), wk =   0.0054870
        k(  169) = (   0.0555556   0.3888889   0.4514030), wk =   0.0054870
        k(  170) = (   0.0555556   0.3888889  -0.5078284), wk =   0.0027435
        k(  171) = (   0.0555556   0.4444444   0.0000000), wk =   0.0027435
        k(  172) = (   0.0555556   0.4444444   0.0564254), wk =   0.0054870
        k(  173) = (   0.0555556   0.4444444   0.1128508), wk =   0.0054870
        k(  174) = (   0.0555556   0.4444444   0.1692761), wk =   0.0054870
        k(  175) = (   0.0555556   0.4444444   0.2257015), wk =   0.0054870
        k(  176) = (   0.0555556   0.4444444   0.2821269), wk =   0.0054870
        k(  177) = (   0.0555556   0.4444444   0.3385523), wk =   0.0054870
        k(  178) = (   0.0555556   0.4444444   0.3949777), wk =   0.0054870
        k(  179) = (   0.0555556   0.4444444   0.4514030), wk =   0.0054870
        k(  180) = (   0.0555556   0.4444444  -0.5078284), wk =   0.0027435
        k(  181) = (   0.0555556  -0.5000000   0.0000000), wk =   0.0013717
        k(  182) = (   0.0555556  -0.5000000   0.0564254), wk =   0.0027435
        k(  183) = (   0.0555556  -0.5000000   0.1128508), wk =   0.0027435
        k(  184) = (   0.0555556  -0.5000000   0.1692761), wk =   0.0027435
        k(  185) = (   0.0555556  -0.5000000   0.2257015), wk =   0.0027435
        k(  186) = (   0.0555556  -0.5000000   0.2821269), wk =   0.0027435
        k(  187) = (   0.0555556  -0.5000000   0.3385523), wk =   0.0027435
        k(  188) = (   0.0555556  -0.5000000   0.3949777), wk =   0.0027435
        k(  189) = (   0.0555556  -0.5000000   0.4514030), wk =   0.0027435
        k(  190) = (   0.0555556  -0.5000000  -0.5078284), wk =   0.0013717
        k(  191) = (   0.1111111   0.1111111   0.0000000), wk =   0.0013717
        k(  192) = (   0.1111111   0.1111111   0.0564254), wk =   0.0027435
        k(  193) = (   0.1111111   0.1111111   0.1128508), wk =   0.0027435
        k(  194) = (   0.1111111   0.1111111   0.1692761), wk =   0.0027435
        k(  195) = (   0.1111111   0.1111111   0.2257015), wk =   0.0027435
        k(  196) = (   0.1111111   0.1111111   0.2821269), wk =   0.0027435
        k(  197) = (   0.1111111   0.1111111   0.3385523), wk =   0.0027435
        k(  198) = (   0.1111111   0.1111111   0.3949777), wk =   0.0027435
        k(  199) = (   0.1111111   0.1111111   0.4514030), wk =   0.0027435
        k(  200) = (   0.1111111   0.1111111  -0.5078284), wk =   0.0013717
        k(  201) = (   0.1111111   0.1666667   0.0000000), wk =   0.0027435
        k(  202) = (   0.1111111   0.1666667   0.0564254), wk =   0.0054870
        k(  203) = (   0.1111111   0.1666667   0.1128508), wk =   0.0054870
        k(  204) = (   0.1111111   0.1666667   0.1692761), wk =   0.0054870
        k(  205) = (   0.1111111   0.1666667   0.2257015), wk =   0.0054870
        k(  206) = (   0.1111111   0.1666667   0.2821269), wk =   0.0054870
        k(  207) = (   0.1111111   0.1666667   0.3385523), wk =   0.0054870
        k(  208) = (   0.1111111   0.1666667   0.3949777), wk =   0.0054870
        k(  209) = (   0.1111111   0.1666667   0.4514030), wk =   0.0054870
        k(  210) = (   0.1111111   0.1666667  -0.5078284), wk =   0.0027435
        k(  211) = (   0.1111111   0.2222222   0.0000000), wk =   0.0027435
        k(  212) = (   0.1111111   0.2222222   0.0564254), wk =   0.0054870
        k(  213) = (   0.1111111   0.2222222   0.1128508), wk =   0.0054870
        k(  214) = (   0.1111111   0.2222222   0.1692761), wk =   0.0054870
        k(  215) = (   0.1111111   0.2222222   0.2257015), wk =   0.0054870
        k(  216) = (   0.1111111   0.2222222   0.2821269), wk =   0.0054870
        k(  217) = (   0.1111111   0.2222222   0.3385523), wk =   0.0054870
        k(  218) = (   0.1111111   0.2222222   0.3949777), wk =   0.0054870
        k(  219) = (   0.1111111   0.2222222   0.4514030), wk =   0.0054870
        k(  220) = (   0.1111111   0.2222222  -0.5078284), wk =   0.0027435
        k(  221) = (   0.1111111   0.2777778   0.0000000), wk =   0.0027435
        k(  222) = (   0.1111111   0.2777778   0.0564254), wk =   0.0054870
        k(  223) = (   0.1111111   0.2777778   0.1128508), wk =   0.0054870
        k(  224) = (   0.1111111   0.2777778   0.1692761), wk =   0.0054870
        k(  225) = (   0.1111111   0.2777778   0.2257015), wk =   0.0054870
        k(  226) = (   0.1111111   0.2777778   0.2821269), wk =   0.0054870
        k(  227) = (   0.1111111   0.2777778   0.3385523), wk =   0.0054870
        k(  228) = (   0.1111111   0.2777778   0.3949777), wk =   0.0054870
        k(  229) = (   0.1111111   0.2777778   0.4514030), wk =   0.0054870
        k(  230) = (   0.1111111   0.2777778  -0.5078284), wk =   0.0027435
        k(  231) = (   0.1111111   0.3333333   0.0000000), wk =   0.0027435
        k(  232) = (   0.1111111   0.3333333   0.0564254), wk =   0.0054870
        k(  233) = (   0.1111111   0.3333333   0.1128508), wk =   0.0054870
        k(  234) = (   0.1111111   0.3333333   0.1692761), wk =   0.0054870
        k(  235) = (   0.1111111   0.3333333   0.2257015), wk =   0.0054870
        k(  236) = (   0.1111111   0.3333333   0.2821269), wk =   0.0054870
        k(  237) = (   0.1111111   0.3333333   0.3385523), wk =   0.0054870
        k(  238) = (   0.1111111   0.3333333   0.3949777), wk =   0.0054870
        k(  239) = (   0.1111111   0.3333333   0.4514030), wk =   0.0054870
        k(  240) = (   0.1111111   0.3333333  -0.5078284), wk =   0.0027435
        k(  241) = (   0.1111111   0.3888889   0.0000000), wk =   0.0027435
        k(  242) = (   0.1111111   0.3888889   0.0564254), wk =   0.0054870
        k(  243) = (   0.1111111   0.3888889   0.1128508), wk =   0.0054870
        k(  244) = (   0.1111111   0.3888889   0.1692761), wk =   0.0054870
        k(  245) = (   0.1111111   0.3888889   0.2257015), wk =   0.0054870
        k(  246) = (   0.1111111   0.3888889   0.2821269), wk =   0.0054870
        k(  247) = (   0.1111111   0.3888889   0.3385523), wk =   0.0054870
        k(  248) = (   0.1111111   0.3888889   0.3949777), wk =   0.0054870
        k(  249) = (   0.1111111   0.3888889   0.4514030), wk =   0.0054870
        k(  250) = (   0.1111111   0.3888889  -0.5078284), wk =   0.0027435
        k(  251) = (   0.1111111   0.4444444   0.0000000), wk =   0.0027435
        k(  252) = (   0.1111111   0.4444444   0.0564254), wk =   0.0054870
        k(  253) = (   0.1111111   0.4444444   0.1128508), wk =   0.0054870
        k(  254) = (   0.1111111   0.4444444   0.1692761), wk =   0.0054870
        k(  255) = (   0.1111111   0.4444444   0.2257015), wk =   0.0054870
        k(  256) = (   0.1111111   0.4444444   0.2821269), wk =   0.0054870
        k(  257) = (   0.1111111   0.4444444   0.3385523), wk =   0.0054870
        k(  258) = (   0.1111111   0.4444444   0.3949777), wk =   0.0054870
        k(  259) = (   0.1111111   0.4444444   0.4514030), wk =   0.0054870
        k(  260) = (   0.1111111   0.4444444  -0.5078284), wk =   0.0027435
        k(  261) = (   0.1111111  -0.5000000   0.0000000), wk =   0.0013717
        k(  262) = (   0.1111111  -0.5000000   0.0564254), wk =   0.0027435
        k(  263) = (   0.1111111  -0.5000000   0.1128508), wk =   0.0027435
        k(  264) = (   0.1111111  -0.5000000   0.1692761), wk =   0.0027435
        k(  265) = (   0.1111111  -0.5000000   0.2257015), wk =   0.0027435
        k(  266) = (   0.1111111  -0.5000000   0.2821269), wk =   0.0027435
        k(  267) = (   0.1111111  -0.5000000   0.3385523), wk =   0.0027435
        k(  268) = (   0.1111111  -0.5000000   0.3949777), wk =   0.0027435
        k(  269) = (   0.1111111  -0.5000000   0.4514030), wk =   0.0027435
        k(  270) = (   0.1111111  -0.5000000  -0.5078284), wk =   0.0013717
        k(  271) = (   0.1666667   0.1666667   0.0000000), wk =   0.0013717
        k(  272) = (   0.1666667   0.1666667   0.0564254), wk =   0.0027435
        k(  273) = (   0.1666667   0.1666667   0.1128508), wk =   0.0027435
        k(  274) = (   0.1666667   0.1666667   0.1692761), wk =   0.0027435
        k(  275) = (   0.1666667   0.1666667   0.2257015), wk =   0.0027435
        k(  276) = (   0.1666667   0.1666667   0.2821269), wk =   0.0027435
        k(  277) = (   0.1666667   0.1666667   0.3385523), wk =   0.0027435
        k(  278) = (   0.1666667   0.1666667   0.3949777), wk =   0.0027435
        k(  279) = (   0.1666667   0.1666667   0.4514030), wk =   0.0027435
        k(  280) = (   0.1666667   0.1666667  -0.5078284), wk =   0.0013717
        k(  281) = (   0.1666667   0.2222222   0.0000000), wk =   0.0027435
        k(  282) = (   0.1666667   0.2222222   0.0564254), wk =   0.0054870
        k(  283) = (   0.1666667   0.2222222   0.1128508), wk =   0.0054870
        k(  284) = (   0.1666667   0.2222222   0.1692761), wk =   0.0054870
        k(  285) = (   0.1666667   0.2222222   0.2257015), wk =   0.0054870
        k(  286) = (   0.1666667   0.2222222   0.2821269), wk =   0.0054870
        k(  287) = (   0.1666667   0.2222222   0.3385523), wk =   0.0054870
        k(  288) = (   0.1666667   0.2222222   0.3949777), wk =   0.0054870
        k(  289) = (   0.1666667   0.2222222   0.4514030), wk =   0.0054870
        k(  290) = (   0.1666667   0.2222222  -0.5078284), wk =   0.0027435
        k(  291) = (   0.1666667   0.2777778   0.0000000), wk =   0.0027435
        k(  292) = (   0.1666667   0.2777778   0.0564254), wk =   0.0054870
        k(  293) = (   0.1666667   0.2777778   0.1128508), wk =   0.0054870
        k(  294) = (   0.1666667   0.2777778   0.1692761), wk =   0.0054870
        k(  295) = (   0.1666667   0.2777778   0.2257015), wk =   0.0054870
        k(  296) = (   0.1666667   0.2777778   0.2821269), wk =   0.0054870
        k(  297) = (   0.1666667   0.2777778   0.3385523), wk =   0.0054870
        k(  298) = (   0.1666667   0.2777778   0.3949777), wk =   0.0054870
        k(  299) = (   0.1666667   0.2777778   0.4514030), wk =   0.0054870
        k(  300) = (   0.1666667   0.2777778  -0.5078284), wk =   0.0027435
        k(  301) = (   0.1666667   0.3333333   0.0000000), wk =   0.0027435
        k(  302) = (   0.1666667   0.3333333   0.0564254), wk =   0.0054870
        k(  303) = (   0.1666667   0.3333333   0.1128508), wk =   0.0054870
        k(  304) = (   0.1666667   0.3333333   0.1692761), wk =   0.0054870
        k(  305) = (   0.1666667   0.3333333   0.2257015), wk =   0.0054870
        k(  306) = (   0.1666667   0.3333333   0.2821269), wk =   0.0054870
        k(  307) = (   0.1666667   0.3333333   0.3385523), wk =   0.0054870
        k(  308) = (   0.1666667   0.3333333   0.3949777), wk =   0.0054870
        k(  309) = (   0.1666667   0.3333333   0.4514030), wk =   0.0054870
        k(  310) = (   0.1666667   0.3333333  -0.5078284), wk =   0.0027435
        k(  311) = (   0.1666667   0.3888889   0.0000000), wk =   0.0027435
        k(  312) = (   0.1666667   0.3888889   0.0564254), wk =   0.0054870
        k(  313) = (   0.1666667   0.3888889   0.1128508), wk =   0.0054870
        k(  314) = (   0.1666667   0.3888889   0.1692761), wk =   0.0054870
        k(  315) = (   0.1666667   0.3888889   0.2257015), wk =   0.0054870
        k(  316) = (   0.1666667   0.3888889   0.2821269), wk =   0.0054870
        k(  317) = (   0.1666667   0.3888889   0.3385523), wk =   0.0054870
        k(  318) = (   0.1666667   0.3888889   0.3949777), wk =   0.0054870
        k(  319) = (   0.1666667   0.3888889   0.4514030), wk =   0.0054870
        k(  320) = (   0.1666667   0.3888889  -0.5078284), wk =   0.0027435
        k(  321) = (   0.1666667   0.4444444   0.0000000), wk =   0.0027435
        k(  322) = (   0.1666667   0.4444444   0.0564254), wk =   0.0054870
        k(  323) = (   0.1666667   0.4444444   0.1128508), wk =   0.0054870
        k(  324) = (   0.1666667   0.4444444   0.1692761), wk =   0.0054870
        k(  325) = (   0.1666667   0.4444444   0.2257015), wk =   0.0054870
        k(  326) = (   0.1666667   0.4444444   0.2821269), wk =   0.0054870
        k(  327) = (   0.1666667   0.4444444   0.3385523), wk =   0.0054870
        k(  328) = (   0.1666667   0.4444444   0.3949777), wk =   0.0054870
        k(  329) = (   0.1666667   0.4444444   0.4514030), wk =   0.0054870
        k(  330) = (   0.1666667   0.4444444  -0.5078284), wk =   0.0027435
        k(  331) = (   0.1666667  -0.5000000   0.0000000), wk =   0.0013717
        k(  332) = (   0.1666667  -0.5000000   0.0564254), wk =   0.0027435
        k(  333) = (   0.1666667  -0.5000000   0.1128508), wk =   0.0027435
        k(  334) = (   0.1666667  -0.5000000   0.1692761), wk =   0.0027435
        k(  335) = (   0.1666667  -0.5000000   0.2257015), wk =   0.0027435
        k(  336) = (   0.1666667  -0.5000000   0.2821269), wk =   0.0027435
        k(  337) = (   0.1666667  -0.5000000   0.3385523), wk =   0.0027435
        k(  338) = (   0.1666667  -0.5000000   0.3949777), wk =   0.0027435
        k(  339) = (   0.1666667  -0.5000000   0.4514030), wk =   0.0027435
        k(  340) = (   0.1666667  -0.5000000  -0.5078284), wk =   0.0013717
        k(  341) = (   0.2222222   0.2222222   0.0000000), wk =   0.0013717
        k(  342) = (   0.2222222   0.2222222   0.0564254), wk =   0.0027435
        k(  343) = (   0.2222222   0.2222222   0.1128508), wk =   0.0027435
        k(  344) = (   0.2222222   0.2222222   0.1692761), wk =   0.0027435
        k(  345) = (   0.2222222   0.2222222   0.2257015), wk =   0.0027435
        k(  346) = (   0.2222222   0.2222222   0.2821269), wk =   0.0027435
        k(  347) = (   0.2222222   0.2222222   0.3385523), wk =   0.0027435
        k(  348) = (   0.2222222   0.2222222   0.3949777), wk =   0.0027435
        k(  349) = (   0.2222222   0.2222222   0.4514030), wk =   0.0027435
        k(  350) = (   0.2222222   0.2222222  -0.5078284), wk =   0.0013717
        k(  351) = (   0.2222222   0.2777778   0.0000000), wk =   0.0027435
        k(  352) = (   0.2222222   0.2777778   0.0564254), wk =   0.0054870
        k(  353) = (   0.2222222   0.2777778   0.1128508), wk =   0.0054870
        k(  354) = (   0.2222222   0.2777778   0.1692761), wk =   0.0054870
        k(  355) = (   0.2222222   0.2777778   0.2257015), wk =   0.0054870
        k(  356) = (   0.2222222   0.2777778   0.2821269), wk =   0.0054870
        k(  357) = (   0.2222222   0.2777778   0.3385523), wk =   0.0054870
        k(  358) = (   0.2222222   0.2777778   0.3949777), wk =   0.0054870
        k(  359) = (   0.2222222   0.2777778   0.4514030), wk =   0.0054870
        k(  360) = (   0.2222222   0.2777778  -0.5078284), wk =   0.0027435
        k(  361) = (   0.2222222   0.3333333   0.0000000), wk =   0.0027435
        k(  362) = (   0.2222222   0.3333333   0.0564254), wk =   0.0054870
        k(  363) = (   0.2222222   0.3333333   0.1128508), wk =   0.0054870
        k(  364) = (   0.2222222   0.3333333   0.1692761), wk =   0.0054870
        k(  365) = (   0.2222222   0.3333333   0.2257015), wk =   0.0054870
        k(  366) = (   0.2222222   0.3333333   0.2821269), wk =   0.0054870
        k(  367) = (   0.2222222   0.3333333   0.3385523), wk =   0.0054870
        k(  368) = (   0.2222222   0.3333333   0.3949777), wk =   0.0054870
        k(  369) = (   0.2222222   0.3333333   0.4514030), wk =   0.0054870
        k(  370) = (   0.2222222   0.3333333  -0.5078284), wk =   0.0027435
        k(  371) = (   0.2222222   0.3888889   0.0000000), wk =   0.0027435
        k(  372) = (   0.2222222   0.3888889   0.0564254), wk =   0.0054870
        k(  373) = (   0.2222222   0.3888889   0.1128508), wk =   0.0054870
        k(  374) = (   0.2222222   0.3888889   0.1692761), wk =   0.0054870
        k(  375) = (   0.2222222   0.3888889   0.2257015), wk =   0.0054870
        k(  376) = (   0.2222222   0.3888889   0.2821269), wk =   0.0054870
        k(  377) = (   0.2222222   0.3888889   0.3385523), wk =   0.0054870
        k(  378) = (   0.2222222   0.3888889   0.3949777), wk =   0.0054870
        k(  379) = (   0.2222222   0.3888889   0.4514030), wk =   0.0054870
        k(  380) = (   0.2222222   0.3888889  -0.5078284), wk =   0.0027435
        k(  381) = (   0.2222222   0.4444444   0.0000000), wk =   0.0027435
        k(  382) = (   0.2222222   0.4444444   0.0564254), wk =   0.0054870
        k(  383) = (   0.2222222   0.4444444   0.1128508), wk =   0.0054870
        k(  384) = (   0.2222222   0.4444444   0.1692761), wk =   0.0054870
        k(  385) = (   0.2222222   0.4444444   0.2257015), wk =   0.0054870
        k(  386) = (   0.2222222   0.4444444   0.2821269), wk =   0.0054870
        k(  387) = (   0.2222222   0.4444444   0.3385523), wk =   0.0054870
        k(  388) = (   0.2222222   0.4444444   0.3949777), wk =   0.0054870
        k(  389) = (   0.2222222   0.4444444   0.4514030), wk =   0.0054870
        k(  390) = (   0.2222222   0.4444444  -0.5078284), wk =   0.0027435
        k(  391) = (   0.2222222  -0.5000000   0.0000000), wk =   0.0013717
        k(  392) = (   0.2222222  -0.5000000   0.0564254), wk =   0.0027435
        k(  393) = (   0.2222222  -0.5000000   0.1128508), wk =   0.0027435
        k(  394) = (   0.2222222  -0.5000000   0.1692761), wk =   0.0027435
        k(  395) = (   0.2222222  -0.5000000   0.2257015), wk =   0.0027435
        k(  396) = (   0.2222222  -0.5000000   0.2821269), wk =   0.0027435
        k(  397) = (   0.2222222  -0.5000000   0.3385523), wk =   0.0027435
        k(  398) = (   0.2222222  -0.5000000   0.3949777), wk =   0.0027435
        k(  399) = (   0.2222222  -0.5000000   0.4514030), wk =   0.0027435
        k(  400) = (   0.2222222  -0.5000000  -0.5078284), wk =   0.0013717
        k(  401) = (   0.2777778   0.2777778   0.0000000), wk =   0.0013717
        k(  402) = (   0.2777778   0.2777778   0.0564254), wk =   0.0027435
        k(  403) = (   0.2777778   0.2777778   0.1128508), wk =   0.0027435
        k(  404) = (   0.2777778   0.2777778   0.1692761), wk =   0.0027435
        k(  405) = (   0.2777778   0.2777778   0.2257015), wk =   0.0027435
        k(  406) = (   0.2777778   0.2777778   0.2821269), wk =   0.0027435
        k(  407) = (   0.2777778   0.2777778   0.3385523), wk =   0.0027435
        k(  408) = (   0.2777778   0.2777778   0.3949777), wk =   0.0027435
        k(  409) = (   0.2777778   0.2777778   0.4514030), wk =   0.0027435
        k(  410) = (   0.2777778   0.2777778  -0.5078284), wk =   0.0013717
        k(  411) = (   0.2777778   0.3333333   0.0000000), wk =   0.0027435
        k(  412) = (   0.2777778   0.3333333   0.0564254), wk =   0.0054870
        k(  413) = (   0.2777778   0.3333333   0.1128508), wk =   0.0054870
        k(  414) = (   0.2777778   0.3333333   0.1692761), wk =   0.0054870
        k(  415) = (   0.2777778   0.3333333   0.2257015), wk =   0.0054870
        k(  416) = (   0.2777778   0.3333333   0.2821269), wk =   0.0054870
        k(  417) = (   0.2777778   0.3333333   0.3385523), wk =   0.0054870
        k(  418) = (   0.2777778   0.3333333   0.3949777), wk =   0.0054870
        k(  419) = (   0.2777778   0.3333333   0.4514030), wk =   0.0054870
        k(  420) = (   0.2777778   0.3333333  -0.5078284), wk =   0.0027435
        k(  421) = (   0.2777778   0.3888889   0.0000000), wk =   0.0027435
        k(  422) = (   0.2777778   0.3888889   0.0564254), wk =   0.0054870
        k(  423) = (   0.2777778   0.3888889   0.1128508), wk =   0.0054870
        k(  424) = (   0.2777778   0.3888889   0.1692761), wk =   0.0054870
        k(  425) = (   0.2777778   0.3888889   0.2257015), wk =   0.0054870
        k(  426) = (   0.2777778   0.3888889   0.2821269), wk =   0.0054870
        k(  427) = (   0.2777778   0.3888889   0.3385523), wk =   0.0054870
        k(  428) = (   0.2777778   0.3888889   0.3949777), wk =   0.0054870
        k(  429) = (   0.2777778   0.3888889   0.4514030), wk =   0.0054870
        k(  430) = (   0.2777778   0.3888889  -0.5078284), wk =   0.0027435
        k(  431) = (   0.2777778   0.4444444   0.0000000), wk =   0.0027435
        k(  432) = (   0.2777778   0.4444444   0.0564254), wk =   0.0054870
        k(  433) = (   0.2777778   0.4444444   0.1128508), wk =   0.0054870
        k(  434) = (   0.2777778   0.4444444   0.1692761), wk =   0.0054870
        k(  435) = (   0.2777778   0.4444444   0.2257015), wk =   0.0054870
        k(  436) = (   0.2777778   0.4444444   0.2821269), wk =   0.0054870
        k(  437) = (   0.2777778   0.4444444   0.3385523), wk =   0.0054870
        k(  438) = (   0.2777778   0.4444444   0.3949777), wk =   0.0054870
        k(  439) = (   0.2777778   0.4444444   0.4514030), wk =   0.0054870
        k(  440) = (   0.2777778   0.4444444  -0.5078284), wk =   0.0027435
        k(  441) = (   0.2777778  -0.5000000   0.0000000), wk =   0.0013717
        k(  442) = (   0.2777778  -0.5000000   0.0564254), wk =   0.0027435
        k(  443) = (   0.2777778  -0.5000000   0.1128508), wk =   0.0027435
        k(  444) = (   0.2777778  -0.5000000   0.1692761), wk =   0.0027435
        k(  445) = (   0.2777778  -0.5000000   0.2257015), wk =   0.0027435
        k(  446) = (   0.2777778  -0.5000000   0.2821269), wk =   0.0027435
        k(  447) = (   0.2777778  -0.5000000   0.3385523), wk =   0.0027435
        k(  448) = (   0.2777778  -0.5000000   0.3949777), wk =   0.0027435
        k(  449) = (   0.2777778  -0.5000000   0.4514030), wk =   0.0027435
        k(  450) = (   0.2777778  -0.5000000  -0.5078284), wk =   0.0013717
        k(  451) = (   0.3333333   0.3333333   0.0000000), wk =   0.0013717
        k(  452) = (   0.3333333   0.3333333   0.0564254), wk =   0.0027435
        k(  453) = (   0.3333333   0.3333333   0.1128508), wk =   0.0027435
        k(  454) = (   0.3333333   0.3333333   0.1692761), wk =   0.0027435
        k(  455) = (   0.3333333   0.3333333   0.2257015), wk =   0.0027435
        k(  456) = (   0.3333333   0.3333333   0.2821269), wk =   0.0027435
        k(  457) = (   0.3333333   0.3333333   0.3385523), wk =   0.0027435
        k(  458) = (   0.3333333   0.3333333   0.3949777), wk =   0.0027435
        k(  459) = (   0.3333333   0.3333333   0.4514030), wk =   0.0027435
        k(  460) = (   0.3333333   0.3333333  -0.5078284), wk =   0.0013717
        k(  461) = (   0.3333333   0.3888889   0.0000000), wk =   0.0027435
        k(  462) = (   0.3333333   0.3888889   0.0564254), wk =   0.0054870
        k(  463) = (   0.3333333   0.3888889   0.1128508), wk =   0.0054870
        k(  464) = (   0.3333333   0.3888889   0.1692761), wk =   0.0054870
        k(  465) = (   0.3333333   0.3888889   0.2257015), wk =   0.0054870
        k(  466) = (   0.3333333   0.3888889   0.2821269), wk =   0.0054870
        k(  467) = (   0.3333333   0.3888889   0.3385523), wk =   0.0054870
        k(  468) = (   0.3333333   0.3888889   0.3949777), wk =   0.0054870
        k(  469) = (   0.3333333   0.3888889   0.4514030), wk =   0.0054870
        k(  470) = (   0.3333333   0.3888889  -0.5078284), wk =   0.0027435
        k(  471) = (   0.3333333   0.4444444   0.0000000), wk =   0.0027435
        k(  472) = (   0.3333333   0.4444444   0.0564254), wk =   0.0054870
        k(  473) = (   0.3333333   0.4444444   0.1128508), wk =   0.0054870
        k(  474) = (   0.3333333   0.4444444   0.1692761), wk =   0.0054870
        k(  475) = (   0.3333333   0.4444444   0.2257015), wk =   0.0054870
        k(  476) = (   0.3333333   0.4444444   0.2821269), wk =   0.0054870
        k(  477) = (   0.3333333   0.4444444   0.3385523), wk =   0.0054870
        k(  478) = (   0.3333333   0.4444444   0.3949777), wk =   0.0054870
        k(  479) = (   0.3333333   0.4444444   0.4514030), wk =   0.0054870
        k(  480) = (   0.3333333   0.4444444  -0.5078284), wk =   0.0027435
        k(  481) = (   0.3333333  -0.5000000   0.0000000), wk =   0.0013717
        k(  482) = (   0.3333333  -0.5000000   0.0564254), wk =   0.0027435
        k(  483) = (   0.3333333  -0.5000000   0.1128508), wk =   0.0027435
        k(  484) = (   0.3333333  -0.5000000   0.1692761), wk =   0.0027435
        k(  485) = (   0.3333333  -0.5000000   0.2257015), wk =   0.0027435
        k(  486) = (   0.3333333  -0.5000000   0.2821269), wk =   0.0027435
        k(  487) = (   0.3333333  -0.5000000   0.3385523), wk =   0.0027435
        k(  488) = (   0.3333333  -0.5000000   0.3949777), wk =   0.0027435
        k(  489) = (   0.3333333  -0.5000000   0.4514030), wk =   0.0027435
        k(  490) = (   0.3333333  -0.5000000  -0.5078284), wk =   0.0013717
        k(  491) = (   0.3888889   0.3888889   0.0000000), wk =   0.0013717
        k(  492) = (   0.3888889   0.3888889   0.0564254), wk =   0.0027435
        k(  493) = (   0.3888889   0.3888889   0.1128508), wk =   0.0027435
        k(  494) = (   0.3888889   0.3888889   0.1692761), wk =   0.0027435
        k(  495) = (   0.3888889   0.3888889   0.2257015), wk =   0.0027435
        k(  496) = (   0.3888889   0.3888889   0.2821269), wk =   0.0027435
        k(  497) = (   0.3888889   0.3888889   0.3385523), wk =   0.0027435
        k(  498) = (   0.3888889   0.3888889   0.3949777), wk =   0.0027435
        k(  499) = (   0.3888889   0.3888889   0.4514030), wk =   0.0027435
        k(  500) = (   0.3888889   0.3888889  -0.5078284), wk =   0.0013717
        k(  501) = (   0.3888889   0.4444444   0.0000000), wk =   0.0027435
        k(  502) = (   0.3888889   0.4444444   0.0564254), wk =   0.0054870
        k(  503) = (   0.3888889   0.4444444   0.1128508), wk =   0.0054870
        k(  504) = (   0.3888889   0.4444444   0.1692761), wk =   0.0054870
        k(  505) = (   0.3888889   0.4444444   0.2257015), wk =   0.0054870
        k(  506) = (   0.3888889   0.4444444   0.2821269), wk =   0.0054870
        k(  507) = (   0.3888889   0.4444444   0.3385523), wk =   0.0054870
        k(  508) = (   0.3888889   0.4444444   0.3949777), wk =   0.0054870
        k(  509) = (   0.3888889   0.4444444   0.4514030), wk =   0.0054870
        k(  510) = (   0.3888889   0.4444444  -0.5078284), wk =   0.0027435
        k(  511) = (   0.3888889  -0.5000000   0.0000000), wk =   0.0013717
        k(  512) = (   0.3888889  -0.5000000   0.0564254), wk =   0.0027435
        k(  513) = (   0.3888889  -0.5000000   0.1128508), wk =   0.0027435
        k(  514) = (   0.3888889  -0.5000000   0.1692761), wk =   0.0027435
        k(  515) = (   0.3888889  -0.5000000   0.2257015), wk =   0.0027435
        k(  516) = (   0.3888889  -0.5000000   0.2821269), wk =   0.0027435
        k(  517) = (   0.3888889  -0.5000000   0.3385523), wk =   0.0027435
        k(  518) = (   0.3888889  -0.5000000   0.3949777), wk =   0.0027435
        k(  519) = (   0.3888889  -0.5000000   0.4514030), wk =   0.0027435
        k(  520) = (   0.3888889  -0.5000000  -0.5078284), wk =   0.0013717
        k(  521) = (   0.4444444   0.4444444   0.0000000), wk =   0.0013717
        k(  522) = (   0.4444444   0.4444444   0.0564254), wk =   0.0027435
        k(  523) = (   0.4444444   0.4444444   0.1128508), wk =   0.0027435
        k(  524) = (   0.4444444   0.4444444   0.1692761), wk =   0.0027435
        k(  525) = (   0.4444444   0.4444444   0.2257015), wk =   0.0027435
        k(  526) = (   0.4444444   0.4444444   0.2821269), wk =   0.0027435
        k(  527) = (   0.4444444   0.4444444   0.3385523), wk =   0.0027435
        k(  528) = (   0.4444444   0.4444444   0.3949777), wk =   0.0027435
        k(  529) = (   0.4444444   0.4444444   0.4514030), wk =   0.0027435
        k(  530) = (   0.4444444   0.4444444  -0.5078284), wk =   0.0013717
        k(  531) = (   0.4444444  -0.5000000   0.0000000), wk =   0.0013717
        k(  532) = (   0.4444444  -0.5000000   0.0564254), wk =   0.0027435
        k(  533) = (   0.4444444  -0.5000000   0.1128508), wk =   0.0027435
        k(  534) = (   0.4444444  -0.5000000   0.1692761), wk =   0.0027435
        k(  535) = (   0.4444444  -0.5000000   0.2257015), wk =   0.0027435
        k(  536) = (   0.4444444  -0.5000000   0.2821269), wk =   0.0027435
        k(  537) = (   0.4444444  -0.5000000   0.3385523), wk =   0.0027435
        k(  538) = (   0.4444444  -0.5000000   0.3949777), wk =   0.0027435
        k(  539) = (   0.4444444  -0.5000000   0.4514030), wk =   0.0027435
        k(  540) = (   0.4444444  -0.5000000  -0.5078284), wk =   0.0013717
        k(  541) = (  -0.5000000  -0.5000000   0.0000000), wk =   0.0003429
        k(  542) = (  -0.5000000  -0.5000000   0.0564254), wk =   0.0006859
        k(  543) = (  -0.5000000  -0.5000000   0.1128508), wk =   0.0006859
        k(  544) = (  -0.5000000  -0.5000000   0.1692761), wk =   0.0006859
        k(  545) = (  -0.5000000  -0.5000000   0.2257015), wk =   0.0006859
        k(  546) = (  -0.5000000  -0.5000000   0.2821269), wk =   0.0006859
        k(  547) = (  -0.5000000  -0.5000000   0.3385523), wk =   0.0006859
        k(  548) = (  -0.5000000  -0.5000000   0.3949777), wk =   0.0006859
        k(  549) = (  -0.5000000  -0.5000000   0.4514030), wk =   0.0006859
        k(  550) = (  -0.5000000  -0.5000000  -0.5078284), wk =   0.0003429

                       cryst. coord.
        k(    1) = (   0.0000000   0.0000000   0.0000000), wk =   0.0003429
        k(    2) = (   0.0000000   0.0000000   0.0555556), wk =   0.0006859
        k(    3) = (   0.0000000   0.0000000   0.1111111), wk =   0.0006859
        k(    4) = (   0.0000000   0.0000000   0.1666667), wk =   0.0006859
        k(    5) = (   0.0000000   0.0000000   0.2222222), wk =   0.0006859
        k(    6) = (   0.0000000   0.0000000   0.2777778), wk =   0.0006859
        k(    7) = (   0.0000000   0.0000000   0.3333333), wk =   0.0006859
        k(    8) = (   0.0000000   0.0000000   0.3888889), wk =   0.0006859
        k(    9) = (   0.0000000   0.0000000   0.4444444), wk =   0.0006859
        k(   10) = (   0.0000000   0.0000000  -0.5000000), wk =   0.0003429
        k(   11) = (   0.0000000   0.0555556   0.0000000), wk =   0.0013717
        k(   12) = (   0.0000000   0.0555556   0.0555556), wk =   0.0027435
        k(   13) = (   0.0000000   0.0555556   0.1111111), wk =   0.0027435
        k(   14) = (   0.0000000   0.0555556   0.1666667), wk =   0.0027435
        k(   15) = (   0.0000000   0.0555556   0.2222222), wk =   0.0027435
        k(   16) = (   0.0000000   0.0555556   0.2777778), wk =   0.0027435
        k(   17) = (   0.0000000   0.0555556   0.3333333), wk =   0.0027435
        k(   18) = (   0.0000000   0.0555556   0.3888889), wk =   0.0027435
        k(   19) = (   0.0000000   0.0555556   0.4444444), wk =   0.0027435
        k(   20) = (   0.0000000   0.0555556  -0.5000000), wk =   0.0013717
        k(   21) = (   0.0000000   0.1111111   0.0000000), wk =   0.0013717
        k(   22) = (   0.0000000   0.1111111   0.0555556), wk =   0.0027435
        k(   23) = (   0.0000000   0.1111111   0.1111111), wk =   0.0027435
        k(   24) = (   0.0000000   0.1111111   0.1666667), wk =   0.0027435
        k(   25) = (   0.0000000   0.1111111   0.2222222), wk =   0.0027435
        k(   26) = (   0.0000000   0.1111111   0.2777778), wk =   0.0027435
        k(   27) = (   0.0000000   0.1111111   0.3333333), wk =   0.0027435
        k(   28) = (   0.0000000   0.1111111   0.3888889), wk =   0.0027435
        k(   29) = (   0.0000000   0.1111111   0.4444444), wk =   0.0027435
        k(   30) = (   0.0000000   0.1111111  -0.5000000), wk =   0.0013717
        k(   31) = (   0.0000000   0.1666667   0.0000000), wk =   0.0013717
        k(   32) = (   0.0000000   0.1666667   0.0555556), wk =   0.0027435
        k(   33) = (   0.0000000   0.1666667   0.1111111), wk =   0.0027435
        k(   34) = (   0.0000000   0.1666667   0.1666667), wk =   0.0027435
        k(   35) = (   0.0000000   0.1666667   0.2222222), wk =   0.0027435
        k(   36) = (   0.0000000   0.1666667   0.2777778), wk =   0.0027435
        k(   37) = (   0.0000000   0.1666667   0.3333333), wk =   0.0027435
        k(   38) = (   0.0000000   0.1666667   0.3888889), wk =   0.0027435
        k(   39) = (   0.0000000   0.1666667   0.4444444), wk =   0.0027435
        k(   40) = (   0.0000000   0.1666667  -0.5000000), wk =   0.0013717
        k(   41) = (   0.0000000   0.2222222   0.0000000), wk =   0.0013717
        k(   42) = (   0.0000000   0.2222222   0.0555556), wk =   0.0027435
        k(   43) = (   0.0000000   0.2222222   0.1111111), wk =   0.0027435
        k(   44) = (   0.0000000   0.2222222   0.1666667), wk =   0.0027435
        k(   45) = (   0.0000000   0.2222222   0.2222222), wk =   0.0027435
        k(   46) = (   0.0000000   0.2222222   0.2777778), wk =   0.0027435
        k(   47) = (   0.0000000   0.2222222   0.3333333), wk =   0.0027435
        k(   48) = (   0.0000000   0.2222222   0.3888889), wk =   0.0027435
        k(   49) = (   0.0000000   0.2222222   0.4444444), wk =   0.0027435
        k(   50) = (   0.0000000   0.2222222  -0.5000000), wk =   0.0013717
        k(   51) = (   0.0000000   0.2777778   0.0000000), wk =   0.0013717
        k(   52) = (   0.0000000   0.2777778   0.0555556), wk =   0.0027435
        k(   53) = (   0.0000000   0.2777778   0.1111111), wk =   0.0027435
        k(   54) = (   0.0000000   0.2777778   0.1666667), wk =   0.0027435
        k(   55) = (   0.0000000   0.2777778   0.2222222), wk =   0.0027435
        k(   56) = (   0.0000000   0.2777778   0.2777778), wk =   0.0027435
        k(   57) = (   0.0000000   0.2777778   0.3333333), wk =   0.0027435
        k(   58) = (   0.0000000   0.2777778   0.3888889), wk =   0.0027435
        k(   59) = (   0.0000000   0.2777778   0.4444444), wk =   0.0027435
        k(   60) = (   0.0000000   0.2777778  -0.5000000), wk =   0.0013717
        k(   61) = (   0.0000000   0.3333333   0.0000000), wk =   0.0013717
        k(   62) = (   0.0000000   0.3333333   0.0555556), wk =   0.0027435
        k(   63) = (   0.0000000   0.3333333   0.1111111), wk =   0.0027435
        k(   64) = (   0.0000000   0.3333333   0.1666667), wk =   0.0027435
        k(   65) = (   0.0000000   0.3333333   0.2222222), wk =   0.0027435
        k(   66) = (   0.0000000   0.3333333   0.2777778), wk =   0.0027435
        k(   67) = (   0.0000000   0.3333333   0.3333333), wk =   0.0027435
        k(   68) = (   0.0000000   0.3333333   0.3888889), wk =   0.0027435
        k(   69) = (   0.0000000   0.3333333   0.4444444), wk =   0.0027435
        k(   70) = (   0.0000000   0.3333333  -0.5000000), wk =   0.0013717
        k(   71) = (   0.0000000   0.3888889   0.0000000), wk =   0.0013717
        k(   72) = (   0.0000000   0.3888889   0.0555556), wk =   0.0027435
        k(   73) = (   0.0000000   0.3888889   0.1111111), wk =   0.0027435
        k(   74) = (   0.0000000   0.3888889   0.1666667), wk =   0.0027435
        k(   75) = (   0.0000000   0.3888889   0.2222222), wk =   0.0027435
        k(   76) = (   0.0000000   0.3888889   0.2777778), wk =   0.0027435
        k(   77) = (   0.0000000   0.3888889   0.3333333), wk =   0.0027435
        k(   78) = (   0.0000000   0.3888889   0.3888889), wk =   0.0027435
        k(   79) = (   0.0000000   0.3888889   0.4444444), wk =   0.0027435
        k(   80) = (   0.0000000   0.3888889  -0.5000000), wk =   0.0013717
        k(   81) = (   0.0000000   0.4444444   0.0000000), wk =   0.0013717
        k(   82) = (   0.0000000   0.4444444   0.0555556), wk =   0.0027435
        k(   83) = (   0.0000000   0.4444444   0.1111111), wk =   0.0027435
        k(   84) = (   0.0000000   0.4444444   0.1666667), wk =   0.0027435
        k(   85) = (   0.0000000   0.4444444   0.2222222), wk =   0.0027435
        k(   86) = (   0.0000000   0.4444444   0.2777778), wk =   0.0027435
        k(   87) = (   0.0000000   0.4444444   0.3333333), wk =   0.0027435
        k(   88) = (   0.0000000   0.4444444   0.3888889), wk =   0.0027435
        k(   89) = (   0.0000000   0.4444444   0.4444444), wk =   0.0027435
        k(   90) = (   0.0000000   0.4444444  -0.5000000), wk =   0.0013717
        k(   91) = (   0.0000000  -0.5000000   0.0000000), wk =   0.0006859
        k(   92) = (   0.0000000  -0.5000000   0.0555556), wk =   0.0013717
        k(   93) = (   0.0000000  -0.5000000   0.1111111), wk =   0.0013717
        k(   94) = (   0.0000000  -0.5000000   0.1666667), wk =   0.0013717
        k(   95) = (   0.0000000  -0.5000000   0.2222222), wk =   0.0013717
        k(   96) = (   0.0000000  -0.5000000   0.2777778), wk =   0.0013717
        k(   97) = (   0.0000000  -0.5000000   0.3333333), wk =   0.0013717
        k(   98) = (   0.0000000  -0.5000000   0.3888889), wk =   0.0013717
        k(   99) = (   0.0000000  -0.5000000   0.4444444), wk =   0.0013717
        k(  100) = (   0.0000000  -0.5000000  -0.5000000), wk =   0.0006859
        k(  101) = (   0.0555556   0.0555556   0.0000000), wk =   0.0013717
        k(  102) = (   0.0555556   0.0555556   0.0555556), wk =   0.0027435
        k(  103) = (   0.0555556   0.0555556   0.1111111), wk =   0.0027435
        k(  104) = (   0.0555556   0.0555556   0.1666667), wk =   0.0027435
        k(  105) = (   0.0555556   0.0555556   0.2222222), wk =   0.0027435
        k(  106) = (   0.0555556   0.0555556   0.2777778), wk =   0.0027435
        k(  107) = (   0.0555556   0.0555556   0.3333333), wk =   0.0027435
        k(  108) = (   0.0555556   0.0555556   0.3888889), wk =   0.0027435
        k(  109) = (   0.0555556   0.0555556   0.4444444), wk =   0.0027435
        k(  110) = (   0.0555556   0.0555556  -0.5000000), wk =   0.0013717
        k(  111) = (   0.0555556   0.1111111   0.0000000), wk =   0.0027435
        k(  112) = (   0.0555556   0.1111111   0.0555556), wk =   0.0054870
        k(  113) = (   0.0555556   0.1111111   0.1111111), wk =   0.0054870
        k(  114) = (   0.0555556   0.1111111   0.1666667), wk =   0.0054870
        k(  115) = (   0.0555556   0.1111111   0.2222222), wk =   0.0054870
        k(  116) = (   0.0555556   0.1111111   0.2777778), wk =   0.0054870
        k(  117) = (   0.0555556   0.1111111   0.3333333), wk =   0.0054870
        k(  118) = (   0.0555556   0.1111111   0.3888889), wk =   0.0054870
        k(  119) = (   0.0555556   0.1111111   0.4444444), wk =   0.0054870
        k(  120) = (   0.0555556   0.1111111  -0.5000000), wk =   0.0027435
        k(  121) = (   0.0555556   0.1666667   0.0000000), wk =   0.0027435
        k(  122) = (   0.0555556   0.1666667   0.0555556), wk =   0.0054870
        k(  123) = (   0.0555556   0.1666667   0.1111111), wk =   0.0054870
        k(  124) = (   0.0555556   0.1666667   0.1666667), wk =   0.0054870
        k(  125) = (   0.0555556   0.1666667   0.2222222), wk =   0.0054870
        k(  126) = (   0.0555556   0.1666667   0.2777778), wk =   0.0054870
        k(  127) = (   0.0555556   0.1666667   0.3333333), wk =   0.0054870
        k(  128) = (   0.0555556   0.1666667   0.3888889), wk =   0.0054870
        k(  129) = (   0.0555556   0.1666667   0.4444444), wk =   0.0054870
        k(  130) = (   0.0555556   0.1666667  -0.5000000), wk =   0.0027435
        k(  131) = (   0.0555556   0.2222222   0.0000000), wk =   0.0027435
        k(  132) = (   0.0555556   0.2222222   0.0555556), wk =   0.0054870
        k(  133) = (   0.0555556   0.2222222   0.1111111), wk =   0.0054870
        k(  134) = (   0.0555556   0.2222222   0.1666667), wk =   0.0054870
        k(  135) = (   0.0555556   0.2222222   0.2222222), wk =   0.0054870
        k(  136) = (   0.0555556   0.2222222   0.2777778), wk =   0.0054870
        k(  137) = (   0.0555556   0.2222222   0.3333333), wk =   0.0054870
        k(  138) = (   0.0555556   0.2222222   0.3888889), wk =   0.0054870
        k(  139) = (   0.0555556   0.2222222   0.4444444), wk =   0.0054870
        k(  140) = (   0.0555556   0.2222222  -0.5000000), wk =   0.0027435
        k(  141) = (   0.0555556   0.2777778   0.0000000), wk =   0.0027435
        k(  142) = (   0.0555556   0.2777778   0.0555556), wk =   0.0054870
        k(  143) = (   0.0555556   0.2777778   0.1111111), wk =   0.0054870
        k(  144) = (   0.0555556   0.2777778   0.1666667), wk =   0.0054870
        k(  145) = (   0.0555556   0.2777778   0.2222222), wk =   0.0054870
        k(  146) = (   0.0555556   0.2777778   0.2777778), wk =   0.0054870
        k(  147) = (   0.0555556   0.2777778   0.3333333), wk =   0.0054870
        k(  148) = (   0.0555556   0.2777778   0.3888889), wk =   0.0054870
        k(  149) = (   0.0555556   0.2777778   0.4444444), wk =   0.0054870
        k(  150) = (   0.0555556   0.2777778  -0.5000000), wk =   0.0027435
        k(  151) = (   0.0555556   0.3333333   0.0000000), wk =   0.0027435
        k(  152) = (   0.0555556   0.3333333   0.0555556), wk =   0.0054870
        k(  153) = (   0.0555556   0.3333333   0.1111111), wk =   0.0054870
        k(  154) = (   0.0555556   0.3333333   0.1666667), wk =   0.0054870
        k(  155) = (   0.0555556   0.3333333   0.2222222), wk =   0.0054870
        k(  156) = (   0.0555556   0.3333333   0.2777778), wk =   0.0054870
        k(  157) = (   0.0555556   0.3333333   0.3333333), wk =   0.0054870
        k(  158) = (   0.0555556   0.3333333   0.3888889), wk =   0.0054870
        k(  159) = (   0.0555556   0.3333333   0.4444444), wk =   0.0054870
        k(  160) = (   0.0555556   0.3333333  -0.5000000), wk =   0.0027435
        k(  161) = (   0.0555556   0.3888889   0.0000000), wk =   0.0027435
        k(  162) = (   0.0555556   0.3888889   0.0555556), wk =   0.0054870
        k(  163) = (   0.0555556   0.3888889   0.1111111), wk =   0.0054870
        k(  164) = (   0.0555556   0.3888889   0.1666667), wk =   0.0054870
        k(  165) = (   0.0555556   0.3888889   0.2222222), wk =   0.0054870
        k(  166) = (   0.0555556   0.3888889   0.2777778), wk =   0.0054870
        k(  167) = (   0.0555556   0.3888889   0.3333333), wk =   0.0054870
        k(  168) = (   0.0555556   0.3888889   0.3888889), wk =   0.0054870
        k(  169) = (   0.0555556   0.3888889   0.4444444), wk =   0.0054870
        k(  170) = (   0.0555556   0.3888889  -0.5000000), wk =   0.0027435
        k(  171) = (   0.0555556   0.4444444   0.0000000), wk =   0.0027435
        k(  172) = (   0.0555556   0.4444444   0.0555556), wk =   0.0054870
        k(  173) = (   0.0555556   0.4444444   0.1111111), wk =   0.0054870
        k(  174) = (   0.0555556   0.4444444   0.1666667), wk =   0.0054870
        k(  175) = (   0.0555556   0.4444444   0.2222222), wk =   0.0054870
        k(  176) = (   0.0555556   0.4444444   0.2777778), wk =   0.0054870
        k(  177) = (   0.0555556   0.4444444   0.3333333), wk =   0.0054870
        k(  178) = (   0.0555556   0.4444444   0.3888889), wk =   0.0054870
        k(  179) = (   0.0555556   0.4444444   0.4444444), wk =   0.0054870
        k(  180) = (   0.0555556   0.4444444  -0.5000000), wk =   0.0027435
        k(  181) = (   0.0555556  -0.5000000   0.0000000), wk =   0.0013717
        k(  182) = (   0.0555556  -0.5000000   0.0555556), wk =   0.0027435
        k(  183) = (   0.0555556  -0.5000000   0.1111111), wk =   0.0027435
        k(  184) = (   0.0555556  -0.5000000   0.1666667), wk =   0.0027435
        k(  185) = (   0.0555556  -0.5000000   0.2222222), wk =   0.0027435
        k(  186) = (   0.0555556  -0.5000000   0.2777778), wk =   0.0027435
        k(  187) = (   0.0555556  -0.5000000   0.3333333), wk =   0.0027435
        k(  188) = (   0.0555556  -0.5000000   0.3888889), wk =   0.0027435
        k(  189) = (   0.0555556  -0.5000000   0.4444444), wk =   0.0027435
        k(  190) = (   0.0555556  -0.5000000  -0.5000000), wk =   0.0013717
        k(  191) = (   0.1111111   0.1111111   0.0000000), wk =   0.0013717
        k(  192) = (   0.1111111   0.1111111   0.0555556), wk =   0.0027435
        k(  193) = (   0.1111111   0.1111111   0.1111111), wk =   0.0027435
        k(  194) = (   0.1111111   0.1111111   0.1666667), wk =   0.0027435
        k(  195) = (   0.1111111   0.1111111   0.2222222), wk =   0.0027435
        k(  196) = (   0.1111111   0.1111111   0.2777778), wk =   0.0027435
        k(  197) = (   0.1111111   0.1111111   0.3333333), wk =   0.0027435
        k(  198) = (   0.1111111   0.1111111   0.3888889), wk =   0.0027435
        k(  199) = (   0.1111111   0.1111111   0.4444444), wk =   0.0027435
        k(  200) = (   0.1111111   0.1111111  -0.5000000), wk =   0.0013717
        k(  201) = (   0.1111111   0.1666667   0.0000000), wk =   0.0027435
        k(  202) = (   0.1111111   0.1666667   0.0555556), wk =   0.0054870
        k(  203) = (   0.1111111   0.1666667   0.1111111), wk =   0.0054870
        k(  204) = (   0.1111111   0.1666667   0.1666667), wk =   0.0054870
        k(  205) = (   0.1111111   0.1666667   0.2222222), wk =   0.0054870
        k(  206) = (   0.1111111   0.1666667   0.2777778), wk =   0.0054870
        k(  207) = (   0.1111111   0.1666667   0.3333333), wk =   0.0054870
        k(  208) = (   0.1111111   0.1666667   0.3888889), wk =   0.0054870
        k(  209) = (   0.1111111   0.1666667   0.4444444), wk =   0.0054870
        k(  210) = (   0.1111111   0.1666667  -0.5000000), wk =   0.0027435
        k(  211) = (   0.1111111   0.2222222   0.0000000), wk =   0.0027435
        k(  212) = (   0.1111111   0.2222222   0.0555556), wk =   0.0054870
        k(  213) = (   0.1111111   0.2222222   0.1111111), wk =   0.0054870
        k(  214) = (   0.1111111   0.2222222   0.1666667), wk =   0.0054870
        k(  215) = (   0.1111111   0.2222222   0.2222222), wk =   0.0054870
        k(  216) = (   0.1111111   0.2222222   0.2777778), wk =   0.0054870
        k(  217) = (   0.1111111   0.2222222   0.3333333), wk =   0.0054870
        k(  218) = (   0.1111111   0.2222222   0.3888889), wk =   0.0054870
        k(  219) = (   0.1111111   0.2222222   0.4444444), wk =   0.0054870
        k(  220) = (   0.1111111   0.2222222  -0.5000000), wk =   0.0027435
        k(  221) = (   0.1111111   0.2777778   0.0000000), wk =   0.0027435
        k(  222) = (   0.1111111   0.2777778   0.0555556), wk =   0.0054870
        k(  223) = (   0.1111111   0.2777778   0.1111111), wk =   0.0054870
        k(  224) = (   0.1111111   0.2777778   0.1666667), wk =   0.0054870
        k(  225) = (   0.1111111   0.2777778   0.2222222), wk =   0.0054870
        k(  226) = (   0.1111111   0.2777778   0.2777778), wk =   0.0054870
        k(  227) = (   0.1111111   0.2777778   0.3333333), wk =   0.0054870
        k(  228) = (   0.1111111   0.2777778   0.3888889), wk =   0.0054870
        k(  229) = (   0.1111111   0.2777778   0.4444444), wk =   0.0054870
        k(  230) = (   0.1111111   0.2777778  -0.5000000), wk =   0.0027435
        k(  231) = (   0.1111111   0.3333333   0.0000000), wk =   0.0027435
        k(  232) = (   0.1111111   0.3333333   0.0555556), wk =   0.0054870
        k(  233) = (   0.1111111   0.3333333   0.1111111), wk =   0.0054870
        k(  234) = (   0.1111111   0.3333333   0.1666667), wk =   0.0054870
        k(  235) = (   0.1111111   0.3333333   0.2222222), wk =   0.0054870
        k(  236) = (   0.1111111   0.3333333   0.2777778), wk =   0.0054870
        k(  237) = (   0.1111111   0.3333333   0.3333333), wk =   0.0054870
        k(  238) = (   0.1111111   0.3333333   0.3888889), wk =   0.0054870
        k(  239) = (   0.1111111   0.3333333   0.4444444), wk =   0.0054870
        k(  240) = (   0.1111111   0.3333333  -0.5000000), wk =   0.0027435
        k(  241) = (   0.1111111   0.3888889   0.0000000), wk =   0.0027435
        k(  242) = (   0.1111111   0.3888889   0.0555556), wk =   0.0054870
        k(  243) = (   0.1111111   0.3888889   0.1111111), wk =   0.0054870
        k(  244) = (   0.1111111   0.3888889   0.1666667), wk =   0.0054870
        k(  245) = (   0.1111111   0.3888889   0.2222222), wk =   0.0054870
        k(  246) = (   0.1111111   0.3888889   0.2777778), wk =   0.0054870
        k(  247) = (   0.1111111   0.3888889   0.3333333), wk =   0.0054870
        k(  248) = (   0.1111111   0.3888889   0.3888889), wk =   0.0054870
        k(  249) = (   0.1111111   0.3888889   0.4444444), wk =   0.0054870
        k(  250) = (   0.1111111   0.3888889  -0.5000000), wk =   0.0027435
        k(  251) = (   0.1111111   0.4444444   0.0000000), wk =   0.0027435
        k(  252) = (   0.1111111   0.4444444   0.0555556), wk =   0.0054870
        k(  253) = (   0.1111111   0.4444444   0.1111111), wk =   0.0054870
        k(  254) = (   0.1111111   0.4444444   0.1666667), wk =   0.0054870
        k(  255) = (   0.1111111   0.4444444   0.2222222), wk =   0.0054870
        k(  256) = (   0.1111111   0.4444444   0.2777778), wk =   0.0054870
        k(  257) = (   0.1111111   0.4444444   0.3333333), wk =   0.0054870
        k(  258) = (   0.1111111   0.4444444   0.3888889), wk =   0.0054870
        k(  259) = (   0.1111111   0.4444444   0.4444444), wk =   0.0054870
        k(  260) = (   0.1111111   0.4444444  -0.5000000), wk =   0.0027435
        k(  261) = (   0.1111111  -0.5000000   0.0000000), wk =   0.0013717
        k(  262) = (   0.1111111  -0.5000000   0.0555556), wk =   0.0027435
        k(  263) = (   0.1111111  -0.5000000   0.1111111), wk =   0.0027435
        k(  264) = (   0.1111111  -0.5000000   0.1666667), wk =   0.0027435
        k(  265) = (   0.1111111  -0.5000000   0.2222222), wk =   0.0027435
        k(  266) = (   0.1111111  -0.5000000   0.2777778), wk =   0.0027435
        k(  267) = (   0.1111111  -0.5000000   0.3333333), wk =   0.0027435
        k(  268) = (   0.1111111  -0.5000000   0.3888889), wk =   0.0027435
        k(  269) = (   0.1111111  -0.5000000   0.4444444), wk =   0.0027435
        k(  270) = (   0.1111111  -0.5000000  -0.5000000), wk =   0.0013717
        k(  271) = (   0.1666667   0.1666667   0.0000000), wk =   0.0013717
        k(  272) = (   0.1666667   0.1666667   0.0555556), wk =   0.0027435
        k(  273) = (   0.1666667   0.1666667   0.1111111), wk =   0.0027435
        k(  274) = (   0.1666667   0.1666667   0.1666667), wk =   0.0027435
        k(  275) = (   0.1666667   0.1666667   0.2222222), wk =   0.0027435
        k(  276) = (   0.1666667   0.1666667   0.2777778), wk =   0.0027435
        k(  277) = (   0.1666667   0.1666667   0.3333333), wk =   0.0027435
        k(  278) = (   0.1666667   0.1666667   0.3888889), wk =   0.0027435
        k(  279) = (   0.1666667   0.1666667   0.4444444), wk =   0.0027435
        k(  280) = (   0.1666667   0.1666667  -0.5000000), wk =   0.0013717
        k(  281) = (   0.1666667   0.2222222   0.0000000), wk =   0.0027435
        k(  282) = (   0.1666667   0.2222222   0.0555556), wk =   0.0054870
        k(  283) = (   0.1666667   0.2222222   0.1111111), wk =   0.0054870
        k(  284) = (   0.1666667   0.2222222   0.1666667), wk =   0.0054870
        k(  285) = (   0.1666667   0.2222222   0.2222222), wk =   0.0054870
        k(  286) = (   0.1666667   0.2222222   0.2777778), wk =   0.0054870
        k(  287) = (   0.1666667   0.2222222   0.3333333), wk =   0.0054870
        k(  288) = (   0.1666667   0.2222222   0.3888889), wk =   0.0054870
        k(  289) = (   0.1666667   0.2222222   0.4444444), wk =   0.0054870
        k(  290) = (   0.1666667   0.2222222  -0.5000000), wk =   0.0027435
        k(  291) = (   0.1666667   0.2777778   0.0000000), wk =   0.0027435
        k(  292) = (   0.1666667   0.2777778   0.0555556), wk =   0.0054870
        k(  293) = (   0.1666667   0.2777778   0.1111111), wk =   0.0054870
        k(  294) = (   0.1666667   0.2777778   0.1666667), wk =   0.0054870
        k(  295) = (   0.1666667   0.2777778   0.2222222), wk =   0.0054870
        k(  296) = (   0.1666667   0.2777778   0.2777778), wk =   0.0054870
        k(  297) = (   0.1666667   0.2777778   0.3333333), wk =   0.0054870
        k(  298) = (   0.1666667   0.2777778   0.3888889), wk =   0.0054870
        k(  299) = (   0.1666667   0.2777778   0.4444444), wk =   0.0054870
        k(  300) = (   0.1666667   0.2777778  -0.5000000), wk =   0.0027435
        k(  301) = (   0.1666667   0.3333333   0.0000000), wk =   0.0027435
        k(  302) = (   0.1666667   0.3333333   0.0555556), wk =   0.0054870
        k(  303) = (   0.1666667   0.3333333   0.1111111), wk =   0.0054870
        k(  304) = (   0.1666667   0.3333333   0.1666667), wk =   0.0054870
        k(  305) = (   0.1666667   0.3333333   0.2222222), wk =   0.0054870
        k(  306) = (   0.1666667   0.3333333   0.2777778), wk =   0.0054870
        k(  307) = (   0.1666667   0.3333333   0.3333333), wk =   0.0054870
        k(  308) = (   0.1666667   0.3333333   0.3888889), wk =   0.0054870
        k(  309) = (   0.1666667   0.3333333   0.4444444), wk =   0.0054870
        k(  310) = (   0.1666667   0.3333333  -0.5000000), wk =   0.0027435
        k(  311) = (   0.1666667   0.3888889   0.0000000), wk =   0.0027435
        k(  312) = (   0.1666667   0.3888889   0.0555556), wk =   0.0054870
        k(  313) = (   0.1666667   0.3888889   0.1111111), wk =   0.0054870
        k(  314) = (   0.1666667   0.3888889   0.1666667), wk =   0.0054870
        k(  315) = (   0.1666667   0.3888889   0.2222222), wk =   0.0054870
        k(  316) = (   0.1666667   0.3888889   0.2777778), wk =   0.0054870
        k(  317) = (   0.1666667   0.3888889   0.3333333), wk =   0.0054870
        k(  318) = (   0.1666667   0.3888889   0.3888889), wk =   0.0054870
        k(  319) = (   0.1666667   0.3888889   0.4444444), wk =   0.0054870
        k(  320) = (   0.1666667   0.3888889  -0.5000000), wk =   0.0027435
        k(  321) = (   0.1666667   0.4444444   0.0000000), wk =   0.0027435
        k(  322) = (   0.1666667   0.4444444   0.0555556), wk =   0.0054870
        k(  323) = (   0.1666667   0.4444444   0.1111111), wk =   0.0054870
        k(  324) = (   0.1666667   0.4444444   0.1666667), wk =   0.0054870
        k(  325) = (   0.1666667   0.4444444   0.2222222), wk =   0.0054870
        k(  326) = (   0.1666667   0.4444444   0.2777778), wk =   0.0054870
        k(  327) = (   0.1666667   0.4444444   0.3333333), wk =   0.0054870
        k(  328) = (   0.1666667   0.4444444   0.3888889), wk =   0.0054870
        k(  329) = (   0.1666667   0.4444444   0.4444444), wk =   0.0054870
        k(  330) = (   0.1666667   0.4444444  -0.5000000), wk =   0.0027435
        k(  331) = (   0.1666667  -0.5000000   0.0000000), wk =   0.0013717
        k(  332) = (   0.1666667  -0.5000000   0.0555556), wk =   0.0027435
        k(  333) = (   0.1666667  -0.5000000   0.1111111), wk =   0.0027435
        k(  334) = (   0.1666667  -0.5000000   0.1666667), wk =   0.0027435
        k(  335) = (   0.1666667  -0.5000000   0.2222222), wk =   0.0027435
        k(  336) = (   0.1666667  -0.5000000   0.2777778), wk =   0.0027435
        k(  337) = (   0.1666667  -0.5000000   0.3333333), wk =   0.0027435
        k(  338) = (   0.1666667  -0.5000000   0.3888889), wk =   0.0027435
        k(  339) = (   0.1666667  -0.5000000   0.4444444), wk =   0.0027435
        k(  340) = (   0.1666667  -0.5000000  -0.5000000), wk =   0.0013717
        k(  341) = (   0.2222222   0.2222222   0.0000000), wk =   0.0013717
        k(  342) = (   0.2222222   0.2222222   0.0555556), wk =   0.0027435
        k(  343) = (   0.2222222   0.2222222   0.1111111), wk =   0.0027435
        k(  344) = (   0.2222222   0.2222222   0.1666667), wk =   0.0027435
        k(  345) = (   0.2222222   0.2222222   0.2222222), wk =   0.0027435
        k(  346) = (   0.2222222   0.2222222   0.2777778), wk =   0.0027435
        k(  347) = (   0.2222222   0.2222222   0.3333333), wk =   0.0027435
        k(  348) = (   0.2222222   0.2222222   0.3888889), wk =   0.0027435
        k(  349) = (   0.2222222   0.2222222   0.4444444), wk =   0.0027435
        k(  350) = (   0.2222222   0.2222222  -0.5000000), wk =   0.0013717
        k(  351) = (   0.2222222   0.2777778   0.0000000), wk =   0.0027435
        k(  352) = (   0.2222222   0.2777778   0.0555556), wk =   0.0054870
        k(  353) = (   0.2222222   0.2777778   0.1111111), wk =   0.0054870
        k(  354) = (   0.2222222   0.2777778   0.1666667), wk =   0.0054870
        k(  355) = (   0.2222222   0.2777778   0.2222222), wk =   0.0054870
        k(  356) = (   0.2222222   0.2777778   0.2777778), wk =   0.0054870
        k(  357) = (   0.2222222   0.2777778   0.3333333), wk =   0.0054870
        k(  358) = (   0.2222222   0.2777778   0.3888889), wk =   0.0054870
[...]
    11.2370  11.2370

     occupation numbers 
     1.0000   1.0000   1.0000   1.0000   1.0155   0.0000   0.0000   0.0000
     0.0000   0.0000

          k = 0.3889 0.3889 0.0564 (   924 PWs)   bands (ev):

    -0.4516   1.5180   1.5180   3.4601   7.3461   9.2136   9.2136   9.8713
    11.0719  11.7104

     occupation numbers 
     1.0000   1.0000   1.0000   1.0000   1.0000   0.0000   0.0000   0.0000
     0.0000   0.0000

          k = 0.3889 0.3889 0.1129 (   925 PWs)   bands (ev):

    -0.3663   1.6021   1.6021   3.5421   6.5728   8.4515   8.4515  10.3185
    10.7894  12.6058

     occupation numbers 
     1.0000   1.0000   1.0000   1.0000   1.0000   0.0000   0.0000   0.0000
     0.0000   0.0000

          k = 0.3889 0.3889 0.1693 (   929 PWs)   bands (ev):

    -0.2243   1.7422   1.7422   3.6777   5.7733   7.6600   7.6601   9.5359
    11.8305  13.6129

     occupation numbers 
     1.0000   1.0000   1.0000   1.0000   1.0000   1.0004   1.0004   0.0000
     0.0000   0.0000

          k = 0.3889 0.3889 0.2257 (   933 PWs)   bands (ev):

    -0.0257   1.9380   1.9380   3.8621   5.0071   6.8947   6.8947   8.7788
    12.9379  14.6506

     occupation numbers 
     1.0000   1.0000   1.0000   1.0000   1.0000   1.0000   1.0000   0.0000
     0.0000   0.0000

          k = 0.3889 0.3889 0.2821 (   931 PWs)   bands (ev):

     0.2293   2.1891   2.1891   4.0250   4.3591   6.1706   6.1706   8.0621
    14.0943  15.4066

     occupation numbers 
     1.0000   1.0000   1.0000   1.0000   1.0000   1.0000   1.0000   0.6403
     0.0000   0.0000

          k = 0.3889 0.3889 0.3386 (   934 PWs)   bands (ev):

     0.5402   2.4949   2.4949   3.5366   4.4648   5.4938   5.4939   7.3915
    15.2893  15.7327

     occupation numbers 
     1.0000   1.0000   1.0000   1.0000   1.0000   1.0000   1.0000   1.0000
     0.0000   0.0000

          k = 0.3889 0.3889 0.3950 (   933 PWs)   bands (ev):

     0.9068   2.8540   2.8540   2.9140   4.8094   4.8686   4.8686   6.7701
    16.0597  16.0598

     occupation numbers 
     1.0000   1.0000   1.0000   1.0000   1.0000   1.0000   1.0000   1.0000
     0.0000   0.0000

          k = 0.3889 0.3889 0.4514 (   931 PWs)   bands (ev):

     1.3285   2.3338   3.2606   3.2606   4.3019   4.3019   5.2178   6.1998
    16.4150  16.4150

     occupation numbers 
     1.0000   1.0000   1.0000   1.0000   1.0000   1.0000   1.0000   1.0000
     0.0000   0.0000

          k = 0.3889 0.3889-0.5078 (   930 PWs)   bands (ev):

     1.8045   1.8046   3.6037   3.6038   3.9053   3.9053   5.6819   5.6819
    16.9336  16.9337

     occupation numbers 
     1.0000   1.0000   1.0000   1.0000   1.0000   1.0000   1.0000   1.0000
     0.0000   0.0000

          k = 0.3889 0.4444 0.0000 (   921 PWs)   bands (ev):

    -0.0672   0.9185   1.8973   2.8695   8.1709   9.1003   9.7785  10.0287
    10.7068  10.9556

     occupation numbers 
     1.0000   1.0000   1.0000   1.0000   0.1465   0.0000   0.0000   0.0000
     0.0000   0.0000

          k = 0.3889 0.4444 0.0564 (   923 PWs)   bands (ev):

    -0.0388   0.9467   1.9253   2.8972   7.7361   8.6704   9.6022  10.2611
    10.5317  11.1831

     occupation numbers 
     1.0000   1.0000   1.0000   1.0000   1.0047   0.0000   0.0000   0.0000
     0.0000   0.0000

          k = 0.3889 0.4444 0.1129 (   927 PWs)   bands (ev):

     0.0462   1.0311   2.0091   2.9801   6.9652   7.9054   8.8424   9.7765
    11.1751  12.0863

     occupation numbers 
     1.0000   1.0000   1.0000   1.0000   1.0000   1.0824   0.0000   0.0000
     0.0000   0.0000

          k = 0.3889 0.4444 0.1693 (   929 PWs)   bands (ev):

     0.1879   1.1718   2.1487   3.1179   6.1663   7.1111   8.0529   8.9915
    12.2118  13.1082

     occupation numbers 
     1.0000   1.0000   1.0000   1.0000   1.0000   1.0000   0.6904   0.0000
     0.0000   0.0000

          k = 0.3889 0.4444 0.2257 (   932 PWs)   bands (ev):

     0.3859   1.3685   2.3437   3.3093   5.3958   6.3432   7.2892   8.2320
    13.3138  14.1866

     occupation numbers 
     1.0000   1.0000   1.0000   1.0000   1.0000   1.0000   1.0000   0.0386
     0.0000   0.0000

          k = 0.3889 0.4444 0.2821 (   936 PWs)   bands (ev):

     0.6401   1.6209   2.5935   3.5497   4.6732   5.6171   6.5664   7.5129
    14.4624  15.2808

     occupation numbers 
     1.0000   1.0000   1.0000   1.0000   1.0000   1.0000   1.0000   1.0000
     0.0000   0.0000

          k = 0.3889 0.4444 0.3386 (   933 PWs)   bands (ev):

     0.9502   1.9286   2.8969   3.7619   4.0811   4.9397   5.8904   6.8402
    15.6445  16.0470

     occupation numbers 
     1.0000   1.0000   1.0000   1.0000   1.0000   1.0000   1.0000   1.0000
     0.0000   0.0000

          k = 0.3889 0.4444 0.3950 (   932 PWs)   bands (ev):

     1.3157   2.2908   3.2485   3.3063   4.2614   4.3188   5.2648   6.2170
    16.4020  16.8308

     occupation numbers 
     1.0000   1.0000   1.0000   1.0000   1.0000   1.0000   1.0000   1.0000
     0.0000   0.0000

          k = 0.3889 0.4444 0.4514 (   936 PWs)   bands (ev):

     1.7360   2.7060   2.7361   3.5514   3.8528   4.6626   4.6923   5.6452
    16.7673  17.4463

     occupation numbers 
     1.0000   1.0000   1.0000   1.0000   1.0000   1.0000   1.0000   1.0000
     0.0000   0.0000

          k = 0.3889 0.4444-0.5078 (   934 PWs)   bands (ev):

     2.2101   2.2101   3.1679   3.1680   4.1797   4.1798   5.1263   5.1263
    17.1541  17.1541

     occupation numbers 
     1.0000   1.0000   1.0000   1.0000   1.0000   1.0000   1.0000   1.0000
     0.0000   0.0000

          k = 0.3889-0.5000 0.0000 (   916 PWs)   bands (ev):

     0.3992   0.3992   2.3574   2.3574   8.6099   8.6099  10.2196  10.2196
    10.4666  10.4667

     occupation numbers 
     1.0000   1.0000   1.0000   1.0000   0.0000   0.0000   0.0000   0.0000
     0.0000   0.0000

          k = 0.3889-0.5000 0.0564 (   924 PWs)   bands (ev):

     0.4274   0.4275   2.3852   2.3853   8.1777   8.1777  10.0417  10.0417
    10.6990  10.6990

     occupation numbers 
     1.0000   1.0000   1.0000   1.0000   0.1287   0.1287   0.0000   0.0000
     0.0000   0.0000

          k = 0.3889-0.5000 0.1129 (   926 PWs)   bands (ev):

     0.5122   0.5123   2.4687   2.4687   7.4097   7.4097   9.2843   9.2843
    11.6081  11.6081

     occupation numbers 
     1.0000   1.0000   1.0000   1.0000   1.0000   1.0000   0.0000   0.0000
     0.0000   0.0000

          k = 0.3889-0.5000 0.1693 (   930 PWs)   bands (ev):

     0.6534   0.6534   2.6076   2.6076   6.6128   6.6128   8.4969   8.4969
    12.6388  12.6388

     occupation numbers 
     1.0000   1.0000   1.0000   1.0000   1.0000   1.0000   0.0000   0.0000
     0.0000   0.0000

          k = 0.3889-0.5000 0.2257 (   936 PWs)   bands (ev):

     0.8508   0.8509   2.8013   2.8014   5.8430   5.8430   7.7351   7.7352
    13.7321  13.7322

     occupation numbers 
     1.0000   1.0000   1.0000   1.0000   1.0000   1.0000   1.0046   1.0046
     0.0000   0.0000

          k = 0.3889-0.5000 0.2821 (   936 PWs)   bands (ev):

     1.1043   1.1043   3.0488   3.0489   5.1162   5.1162   7.0141   7.0141
    14.8662  14.8663

     occupation numbers 
     1.0000   1.0000   1.0000   1.0000   1.0000   1.0000   1.0000   1.0000
     0.0000   0.0000

          k = 0.3889-0.5000 0.3386 (   930 PWs)   bands (ev):

     1.4133   1.4133   3.3450   3.3450   4.4429   4.4429   6.3396   6.3396
    16.0101  16.0102

     occupation numbers 
     1.0000   1.0000   1.0000   1.0000   1.0000   1.0000   1.0000   1.0000
     0.0000   0.0000

          k = 0.3889-0.5000 0.3950 (   930 PWs)   bands (ev):

     1.7774   1.7774   3.6039   3.6041   3.9116   3.9117   5.7148   5.7148
    16.7486  16.7487

     occupation numbers 
     1.0000   1.0000   1.0000   1.0000   1.0000   1.0000   1.0000   1.0000
     0.0000   0.0000

          k = 0.3889-0.5000 0.4514 (   934 PWs)   bands (ev):

     2.1957   2.1958   3.1832   3.1833   4.1662   4.1662   5.1420   5.1420
    17.1291  17.1291

     occupation numbers 
     1.0000   1.0000   1.0000   1.0000   1.0000   1.0000   1.0000   1.0000
     0.0000   0.0000

          k = 0.3889-0.5000-0.5078 (   932 PWs)   bands (ev):

     2.6666   2.6666   2.6667   2.6667   4.6234   4.6234   4.6236   4.6236
    17.5252  17.5253

     occupation numbers 
     1.0000   1.0000   1.0000   1.0000   1.0000   1.0000   1.0000   1.0000
     0.0000   0.0000

          k = 0.4444 0.4444 0.0000 (   926 PWs)   bands (ev):

     0.3445   1.3275   1.3275   2.3038   8.5582   9.4872   9.4872  10.1710
    10.4150  11.0979

     occupation numbers 
     1.0000   1.0000   1.0000   1.0000   0.0000   0.0000   0.0000   0.0000
     0.0000   0.0000

          k = 0.4444 0.4444 0.0564 (   921 PWs)   bands (ev):

     0.3728   1.3556   1.3556   2.3317   8.1260   9.0595   9.0595   9.9906
    10.6507  11.5719

     occupation numbers 
     1.0000   1.0000   1.0000   1.0000   0.3080   0.0000   0.0000   0.0000
     0.0000   0.0000

          k = 0.4444 0.4444 0.1129 (   929 PWs)   bands (ev):

     0.4576   1.4398   1.4398   2.4152   7.3577   8.2970   8.2970   9.2332
    11.5610  12.4724

     occupation numbers 
     1.0000   1.0000   1.0000   1.0000   1.0000   0.0061   0.0061   0.0000
     0.0000   0.0000

          k = 0.4444 0.4444 0.1693 (   931 PWs)   bands (ev):

     0.5989   1.5801   1.5801   2.5541   6.5605   7.5047   7.5047   8.4456
    12.5938  13.4924

     occupation numbers 
     1.0000   1.0000   1.0000   1.0000   1.0000   1.0000   1.0000   0.0000
     0.0000   0.0000

          k = 0.4444 0.4444 0.2257 (   934 PWs)   bands (ev):

     0.7964   1.7761   1.7761   2.7480   5.7903   6.7384   6.7384   7.6836
    13.6912  14.5711

     occupation numbers 
     1.0000   1.0000   1.0000   1.0000   1.0000   1.0000   1.0000   1.0009
     0.0000   0.0000

          k = 0.4444 0.4444 0.2821 (   930 PWs)   bands (ev):

     1.0499   2.0276   2.0276   2.9956   5.0631   6.0133   6.0133   6.9622
    14.8340  15.6830

     occupation numbers 
     1.0000   1.0000   1.0000   1.0000   1.0000   1.0000   1.0000   1.0000
     0.0000   0.0000

          k = 0.4444 0.4444 0.3386 (   930 PWs)   bands (ev):

     1.3590   2.3338   2.3338   3.2920   4.3895   5.3357   5.3357   6.2874
    16.0087  16.7923

     occupation numbers 
     1.0000   1.0000   1.0000   1.0000   1.0000   1.0000   1.0000   1.0000
     0.0000   0.0000

          k = 0.4444 0.4444 0.3950 (   932 PWs)   bands (ev):

     1.7233   2.6935   2.6935   3.5516   3.8575   4.7095   4.7095   5.6625
    17.1975  17.5740

     occupation numbers 
     1.0000   1.0000   1.0000   1.0000   1.0000   1.0000   1.0000   1.0000
     0.0000   0.0000

          k = 0.4444 0.4444 0.4514 (   936 PWs)   bands (ev):

     2.1418   3.1009   3.1009   3.1299   4.1130   4.1418   4.1418   5.0894
    17.9282  17.9286

     occupation numbers 
     1.0000   1.0000   1.0000   1.0000   1.0000   1.0000   1.0000   1.0000
     0.0000   0.0000

          k = 0.4444 0.4444-0.5078 (   930 PWs)   bands (ev):

     2.6129   2.6129   3.4464   3.4465   3.7427   3.7427   4.5706   4.5706
    18.3097  18.3100

     occupation numbers 
     1.0000   1.0000   1.0000   1.0000   1.0000   1.0000   1.0000   1.0000
     0.0000   0.0000

          k = 0.4444-0.5000 0.0000 (   918 PWs)   bands (ev):

     0.8096   0.8097   1.7895   1.7895   8.9970   8.9970   9.9254   9.9255
    10.6114  10.6114

     occupation numbers 
     1.0000   1.0000   1.0000   1.0000   0.0000   0.0000   0.0000   0.0000
     0.0000   0.0000

          k = 0.4444-0.5000 0.0564 (   922 PWs)   bands (ev):

     0.8378   0.8378   1.8175   1.8175   8.5672   8.5673   9.4996   9.4997
    11.0881  11.0881

     occupation numbers 
     1.0000   1.0000   1.0000   1.0000   0.0000   0.0000   0.0000   0.0000
     0.0000   0.0000

          k = 0.4444-0.5000 0.1129 (   932 PWs)   bands (ev):

     0.9224   0.9224   1.9014   1.9014   7.8019   7.8019   8.7398   8.7398
    11.9939  11.9939

     occupation numbers 
     1.0000   1.0000   1.0000   1.0000   1.0230   1.0230   0.0000   0.0000
     0.0000   0.0000

          k = 0.4444-0.5000 0.1693 (   934 PWs)   bands (ev):

     1.0631   1.0632   2.0411   2.0411   7.0069   7.0069   7.9497   7.9497
    13.0213  13.0213

     occupation numbers 
     1.0000   1.0000   1.0000   1.0000   1.0000   1.0000   1.0627   1.0627
     0.0000   0.0000

          k = 0.4444-0.5000 0.2257 (   932 PWs)   bands (ev):

     1.2600   1.2600   2.2362   2.2363   6.2384   6.2384   7.1854   7.1854
    14.1114  14.1115

     occupation numbers 
     1.0000   1.0000   1.0000   1.0000   1.0000   1.0000   1.0000   1.0000
     0.0000   0.0000

          k = 0.4444-0.5000 0.2821 (   926 PWs)   bands (ev):

     1.5126   1.5126   2.4864   2.4864   5.5116   5.5116   6.4620   6.4620
    15.2432  15.2433

     occupation numbers 
     1.0000   1.0000   1.0000   1.0000   1.0000   1.0000   1.0000   1.0000
     0.0000   0.0000

          k = 0.4444-0.5000 0.3386 (   932 PWs)   bands (ev):

     1.8205   1.8206   2.7901   2.7901   4.8335   4.8335   5.7855   5.7855
    16.3990  16.3990

     occupation numbers 
     1.0000   1.0000   1.0000   1.0000   1.0000   1.0000   1.0000   1.0000
     0.0000   0.0000

          k = 0.4444-0.5000 0.3950 (   936 PWs)   bands (ev):

     2.1831   2.1831   3.1422   3.1423   4.2119   4.2119   5.1593   5.1593
    17.5451  17.5453

     occupation numbers 
     1.0000   1.0000   1.0000   1.0000   1.0000   1.0000   1.0000   1.0000
     0.0000   0.0000

          k = 0.4444-0.5000 0.4514 (   932 PWs)   bands (ev):

     2.5987   2.5987   3.4464   3.4466   3.7443   3.7444   4.5863   4.5863
    18.2062  18.2064

     occupation numbers 
     1.0000   1.0000   1.0000   1.0000   1.0000   1.0000   1.0000   1.0000
     0.0000   0.0000

          k = 0.4444-0.5000-0.5078 (   928 PWs)   bands (ev):

     3.0612   3.0612   3.0613   3.0614   4.0730   4.0730   4.0732   4.0732
    18.5836  18.5839

     occupation numbers 
     1.0000   1.0000   1.0000   1.0000   1.0000   1.0000   1.0000   1.0000
     0.0000   0.0000

          k =-0.5000-0.5000 0.0000 (   928 PWs)   bands (ev):

     1.2733   1.2733   1.2733   1.2733   9.4356   9.4356   9.4356   9.4356
    11.0505  11.0505

     occupation numbers 
     1.0000   1.0000   1.0000   1.0000   0.0000   0.0000   0.0000   0.0000
     0.0000   0.0000

          k =-0.5000-0.5000 0.0564 (   936 PWs)   bands (ev):

     1.3014   1.3014   1.3014   1.3014   9.0080   9.0080   9.0080   9.0080
    11.5246  11.5246

     occupation numbers 
     1.0000   1.0000   1.0000   1.0000   0.0000   0.0000   0.0000   0.0000
     0.0000   0.0000

          k =-0.5000-0.5000 0.1129 (   924 PWs)   bands (ev):

     1.3856   1.3857   1.3857   1.3857   8.2454   8.2454   8.2454   8.2454
    12.4262  12.4262

     occupation numbers 
     1.0000   1.0000   1.0000   1.0000   0.0274   0.0274   0.0274   0.0274
     0.0000   0.0000

          k =-0.5000-0.5000 0.1693 (   936 PWs)   bands (ev):

     1.5259   1.5260   1.5260   1.5260   7.4528   7.4528   7.4528   7.4528
    13.4486  13.4486

     occupation numbers 
     1.0000   1.0000   1.0000   1.0000   1.0000   1.0000   1.0000   1.0000
     0.0000   0.0000

          k =-0.5000-0.5000 0.2257 (   928 PWs)   bands (ev):

     1.7220   1.7221   1.7221   1.7221   6.6862   6.6862   6.6862   6.6862
    14.5320  14.5320

     occupation numbers 
     1.0000   1.0000   1.0000   1.0000   1.0000   1.0000   1.0000   1.0000
     0.0000   0.0000

          k =-0.5000-0.5000 0.2821 (   928 PWs)   bands (ev):

     1.9736   1.9737   1.9737   1.9737   5.9608   5.9608   5.9608   5.9608
    15.6543  15.6544

     occupation numbers 
     1.0000   1.0000   1.0000   1.0000   1.0000   1.0000   1.0000   1.0000
     0.0000   0.0000

          k =-0.5000-0.5000 0.3386 (   928 PWs)   bands (ev):

     2.2800   2.2801   2.2801   2.2801   5.2829   5.2829   5.2829   5.2829
    16.7954  16.7954

     occupation numbers 
     1.0000   1.0000   1.0000   1.0000   1.0000   1.0000   1.0000   1.0000
     0.0000   0.0000

          k =-0.5000-0.5000 0.3950 (   944 PWs)   bands (ev):

     2.6398   2.6399   2.6399   2.6399   4.6564   4.6564   4.6564   4.6564
    17.9216  17.9217

     occupation numbers 
     1.0000   1.0000   1.0000   1.0000   1.0000   1.0000   1.0000   1.0000
     0.0000   0.0000

          k =-0.5000-0.5000 0.4514 (   940 PWs)   bands (ev):

     3.0475   3.0476   3.0476   3.0476   4.0883   4.0883   4.0883   4.0883
    18.9880  18.9881

     occupation numbers 
     1.0000   1.0000   1.0000   1.0000   1.0000   1.0000   1.0000   1.0000
     0.0000   0.0000

          k =-0.5000-0.5000-0.5078 (   928 PWs)   bands (ev):

     3.3938   3.3940   3.3940   3.3942   3.6882   3.6884   3.6884   3.6885
    19.3651  19.3654

     occupation numbers 
     1.0000   1.0000   1.0000   1.0000   1.0000   1.0000   1.0000   1.0000
     0.0000   0.0000

     the Fermi energy is     8.1065 ev

!    total energy              =     -26.83037177 Ry
     Harris-Foulkes estimate   =     -26.83037178 Ry
     estimated scf accuracy    <       0.00000003 Ry

     The total energy is the sum of the following terms:

     one-electron contribution =      12.08474447 Ry
     hartree contribution      =       0.03385076 Ry
     xc contribution           =     -17.21135181 Ry
     ewald contribution        =     -21.73757605 Ry
     smearing contrib. (-TS)   =      -0.00003914 Ry

     convergence has been achieved in   5 iterations
 
     init_run     :    106.65s CPU      5.86s WALL (       1 calls)
     electrons    :   1272.24s CPU     66.85s WALL (       1 calls)

     Called by init_run:
     wfcinit      :    106.37s CPU      5.60s WALL (       1 calls)
     wfcinit:atom :      2.30s CPU      0.12s WALL (     550 calls)
     wfcinit:wfcr :     93.98s CPU      4.95s WALL (     550 calls)
     potinit      :      0.06s CPU      0.01s WALL (       1 calls)

     Called by electrons:
     c_bands      :   1087.02s CPU     57.13s WALL (       6 calls)
     sum_band     :    183.19s CPU      9.61s WALL (       6 calls)
     v_of_rho     :      0.64s CPU      0.04s WALL (       6 calls)
     v_h          :      0.02s CPU      0.00s WALL (       6 calls)
     v_xc         :      0.62s CPU      0.04s WALL (       6 calls)
     newd         :      0.54s CPU      0.03s WALL (       6 calls)
     mix_rho      :      0.10s CPU      0.01s WALL (       6 calls)

     Called by c_bands:
     init_us_2    :     40.83s CPU      2.15s WALL (    7150 calls)
     cegterg      :    986.87s CPU     51.90s WALL (    3300 calls)

     Called by sum_band:
     sum_band:bec :      1.13s CPU      0.06s WALL (    3300 calls)
     addusdens    :      0.78s CPU      0.05s WALL (       6 calls)

     Called by *egterg:
     h_psi        :    945.50s CPU     49.66s WALL (   11597 calls)
     s_psi        :      7.35s CPU      0.40s WALL (   11597 calls)
     g_psi        :      7.98s CPU      0.43s WALL (    7747 calls)
     cdiaghg      :     39.61s CPU      2.11s WALL (   10497 calls)
     cegterg:over :      8.50s CPU      0.45s WALL (    7747 calls)
     cegterg:upda :     11.42s CPU      0.61s WALL (    7747 calls)
     cegterg:last :      4.06s CPU      0.21s WALL (    3304 calls)

     Called by h_psi:
     h_psi:pot    :    935.93s CPU     49.14s WALL (   11597 calls)
     h_psi:calbec :     22.82s CPU      1.21s WALL (   11597 calls)
     vloc_psi     :    892.27s CPU     46.84s WALL (   11597 calls)
     add_vuspsi   :     11.37s CPU      0.60s WALL (   11597 calls)

     General routines
     calbec       :     22.48s CPU      1.19s WALL (   14897 calls)
     fft          :      0.21s CPU      0.05s WALL (      80 calls)
     fftw         :    892.87s CPU     46.91s WALL (  216986 calls)
 
     Parallel routines
 
     PWSCF        : 22m59.08s CPU     1m12.83s WALL

 
   This run was terminated on:  17:10:16  24Jan2019            

=------------------------------------------------------------------------------=
   JOB DONE.
=------------------------------------------------------------------------------=
