
     Program PWSCF v.6.2 (svn rev. 14038) starts on 24Jan2019 at 12:23:36 

     This program is part of the open-source Quantum ESPRESSO suite
     for quantum simulation of materials; please cite
         "P. Giannozzi et al., J. Phys.:Condens. Matter 21 395502 (2009);
         "P. Giannozzi et al., J. Phys.:Condens. Matter 29 465901 (2017);
          URL http://www.quantum-espresso.org", 
     in publications or presentations arising from this work. More details at
     http://www.quantum-espresso.org/quote

     Parallel version (MPI), running on     1 processors

     MPI processes distributed on     1 nodes
     Reading input from ./Al12.in
Warning: card &IONS ignored
Warning: card / ignored
Warning: card &CELL ignored
Warning: card / ignored

     Current dimensions of program PWSCF are:
     Max number of different atomic species (ntypx) = 10
     Max number of k-points (npk) =  40000
     Max angular momentum in pseudopotentials (lmaxx) =  3
     Message from routine iosys:
     minimal I/O required, wf_collect reset to FALSE

     Subspace diagonalization in iterative solution of the eigenvalue problem:
     a serial algorithm will be used

 
     G-vector sticks info
     --------------------
     sticks:   dense  smooth     PW     G-vecs:    dense   smooth      PW
     Sum         283     283     97                 3119     3119     645
 


     bravais-lattice index     =            0
     lattice parameter (alat)  =       5.3970  a.u.
     unit-cell volume          =     111.1567 (a.u.)^3
     number of atoms/cell      =            1
     number of atomic types    =            1
     number of electrons       =         3.00
     number of Kohn-Sham states=            6
     kinetic-energy cutoff     =      35.0000  Ry
     charge density cutoff     =     140.0000  Ry
     convergence threshold     =      1.0E-05
     mixing beta               =       0.7000
     number of iterations used =            8  plain     mixing
     Exchange-correlation      = SLA  PZ   NOGX NOGC ( 1  1  0  0 0 0)

     celldm(1)=   5.396971  celldm(2)=   0.000000  celldm(3)=   0.000000
     celldm(4)=   0.000000  celldm(5)=   0.000000  celldm(6)=   0.000000

     crystal axes: (cart. coord. in units of alat)
               a(1) = (   0.866025   0.000000   0.500000 )  
               a(2) = (   0.288675   0.816497   0.500000 )  
               a(3) = (   0.000000   0.000000   1.000000 )  

     reciprocal axes: (cart. coord. in units 2 pi/alat)
               b(1) = (  1.154701 -0.408248  0.000000 )  
               b(2) = (  0.000000  1.224745  0.000000 )  
               b(3) = ( -0.577350 -0.408248  1.000000 )  


     PseudoPot. # 1 for Al read from file:
     ./al_lda_v1.uspp.F.UPF
     MD5 check sum: 51a9e5980debfdd3404790b200e14add
     Pseudo is Ultrasoft + core correction, Zval =  3.0
     Generated by new atomic code, or converted to UPF format
     Using radial grid of  893 points,  3 beta functions with: 
                l(1) =   0
                l(2) =   1
                l(3) =   2
     Q(r) pseudized with  8 coefficients,  rinner =    0.900   0.900   0.900
                                                       0.900   0.900

     atomic species   valence    mass     pseudopotential
        Al             3.00    26.98150     Al( 1.00)

      4 Sym. Ops., with inversion, found


                                    s                        frac. trans.

      isym =  1     identity                                     

 cryst.   s( 1) = (     1          0          0      )
                  (     0          1          0      )
                  (     0          0          1      )

 cart.    s( 1) = (  1.0000000  0.0000000  0.0000000 )
                  (  0.0000000  1.0000000  0.0000000 )
                  (  0.0000000 -0.0000000  1.0000000 )


      isym =  2     180 deg rotation - cart. axis [0,0,1]        

 cryst.   s( 2) = (    -1          0          1      )
                  (     0         -1          1      )
                  (     0          0          1      )

 cart.    s( 2) = ( -1.0000000  0.0000000  0.0000000 )
                  (  0.0000000 -1.0000000  0.0000000 )
                  (  0.0000004  0.0000003  1.0000000 )


      isym =  3     inversion                                    

 cryst.   s( 3) = (    -1          0          0      )
                  (     0         -1          0      )
                  (     0          0         -1      )

 cart.    s( 3) = ( -1.0000000  0.0000000  0.0000000 )
                  (  0.0000000 -1.0000000  0.0000000 )
                  ( -0.0000000  0.0000000 -1.0000000 )


      isym =  4     inv. 180 deg rotation - cart. axis [0,0,1]   

 cryst.   s( 4) = (     1          0         -1      )
                  (     0          1         -1      )
                  (     0          0         -1      )

 cart.    s( 4) = (  1.0000000  0.0000000  0.0000000 )
                  (  0.0000000  1.0000000  0.0000000 )
                  ( -0.0000004 -0.0000003 -1.0000000 )


   Cartesian axes

     site n.     atom                  positions (alat units)
         1           Al  tau(   1) = (   0.0000000   0.0000000   0.0000000  )

   Crystallographic axes

     site n.     atom                  positions (cryst. coord.)
         1           Al  tau(   1) = (  0.0000000  0.0000000  0.0000000  )

     number of k points=   476  Marzari-Vanderbilt smearing, width (Ry)=  0.0100
                       cart. coord. in units 2pi/alat
        k(    1) = (   0.0000000   0.0000000   0.0000000), wk =   0.0011574
        k(    2) = (  -0.0481125  -0.0340207   0.0833333), wk =   0.0046296
        k(    3) = (  -0.0962250  -0.0680414   0.1666666), wk =   0.0046296
        k(    4) = (  -0.1443375  -0.1020620   0.2499999), wk =   0.0046296
        k(    5) = (  -0.1924500  -0.1360827   0.3333332), wk =   0.0046296
        k(    6) = (  -0.2405625  -0.1701034   0.4166666), wk =   0.0046296
        k(    7) = (   0.2886750   0.2041241  -0.4999999), wk =   0.0023148
        k(    8) = (   0.0000000   0.1020621   0.0000000), wk =   0.0023148
        k(    9) = (  -0.0481125   0.0680414   0.0833333), wk =   0.0046296
        k(   10) = (  -0.0962250   0.0340207   0.1666666), wk =   0.0046296
        k(   11) = (  -0.1443375   0.0000000   0.2499999), wk =   0.0046296
        k(   12) = (  -0.1924500  -0.0340206   0.3333332), wk =   0.0046296
        k(   13) = (  -0.2405625  -0.0680413   0.4166666), wk =   0.0046296
        k(   14) = (   0.2886750   0.3061861  -0.4999999), wk =   0.0046296
        k(   15) = (   0.2405625   0.2721655  -0.4166666), wk =   0.0046296
        k(   16) = (   0.1924500   0.2381448  -0.3333332), wk =   0.0046296
        k(   17) = (   0.1443375   0.2041241  -0.2499999), wk =   0.0046296
        k(   18) = (   0.0962250   0.1701034  -0.1666666), wk =   0.0046296
        k(   19) = (   0.0481125   0.1360827  -0.0833333), wk =   0.0046296
        k(   20) = (   0.0000000   0.2041241   0.0000000), wk =   0.0023148
        k(   21) = (  -0.0481125   0.1701035   0.0833333), wk =   0.0046296
        k(   22) = (  -0.0962250   0.1360828   0.1666666), wk =   0.0046296
        k(   23) = (  -0.1443375   0.1020621   0.2499999), wk =   0.0046296
        k(   24) = (  -0.1924500   0.0680414   0.3333332), wk =   0.0046296
        k(   25) = (  -0.2405625   0.0340207   0.4166666), wk =   0.0046296
        k(   26) = (   0.2886750   0.4082482  -0.4999999), wk =   0.0046296
        k(   27) = (   0.2405625   0.3742275  -0.4166666), wk =   0.0046296
        k(   28) = (   0.1924500   0.3402068  -0.3333332), wk =   0.0046296
        k(   29) = (   0.1443375   0.3061862  -0.2499999), wk =   0.0046296
        k(   30) = (   0.0962250   0.2721655  -0.1666666), wk =   0.0046296
        k(   31) = (   0.0481125   0.2381448  -0.0833333), wk =   0.0046296
        k(   32) = (   0.0000000   0.3061862   0.0000000), wk =   0.0023148
        k(   33) = (  -0.0481125   0.2721655   0.0833333), wk =   0.0046296
        k(   34) = (  -0.0962250   0.2381448   0.1666666), wk =   0.0046296
        k(   35) = (  -0.1443375   0.2041242   0.2499999), wk =   0.0046296
        k(   36) = (  -0.1924500   0.1701035   0.3333332), wk =   0.0046296
        k(   37) = (  -0.2405625   0.1360828   0.4166666), wk =   0.0046296
        k(   38) = (   0.2886750   0.5103103  -0.4999999), wk =   0.0046296
        k(   39) = (   0.2405625   0.4762896  -0.4166666), wk =   0.0046296
        k(   40) = (   0.1924500   0.4422689  -0.3333332), wk =   0.0046296
        k(   41) = (   0.1443375   0.4082482  -0.2499999), wk =   0.0046296
        k(   42) = (   0.0962250   0.3742276  -0.1666666), wk =   0.0046296
        k(   43) = (   0.0481125   0.3402069  -0.0833333), wk =   0.0046296
        k(   44) = (   0.0000000   0.4082483   0.0000000), wk =   0.0023148
        k(   45) = (  -0.0481125   0.3742276   0.0833333), wk =   0.0046296
        k(   46) = (  -0.0962250   0.3402069   0.1666666), wk =   0.0046296
        k(   47) = (  -0.1443375   0.3061862   0.2499999), wk =   0.0046296
        k(   48) = (  -0.1924500   0.2721656   0.3333332), wk =   0.0046296
        k(   49) = (  -0.2405625   0.2381449   0.4166666), wk =   0.0046296
        k(   50) = (   0.2886750   0.6123723  -0.4999999), wk =   0.0046296
        k(   51) = (   0.2405625   0.5783517  -0.4166666), wk =   0.0046296
        k(   52) = (   0.1924500   0.5443310  -0.3333332), wk =   0.0046296
        k(   53) = (   0.1443375   0.5103103  -0.2499999), wk =   0.0046296
        k(   54) = (   0.0962250   0.4762896  -0.1666666), wk =   0.0046296
        k(   55) = (   0.0481125   0.4422689  -0.0833333), wk =   0.0046296
        k(   56) = (   0.0000000   0.5103103   0.0000000), wk =   0.0023148
        k(   57) = (  -0.0481125   0.4762897   0.0833333), wk =   0.0046296
        k(   58) = (  -0.0962250   0.4422690   0.1666666), wk =   0.0046296
        k(   59) = (  -0.1443375   0.4082483   0.2499999), wk =   0.0046296
        k(   60) = (  -0.1924500   0.3742276   0.3333332), wk =   0.0046296
        k(   61) = (  -0.2405625   0.3402070   0.4166666), wk =   0.0046296
        k(   62) = (   0.2886750   0.7144344  -0.4999999), wk =   0.0046296
        k(   63) = (   0.2405625   0.6804137  -0.4166666), wk =   0.0046296
        k(   64) = (   0.1924500   0.6463930  -0.3333332), wk =   0.0046296
        k(   65) = (   0.1443375   0.6123724  -0.2499999), wk =   0.0046296
        k(   66) = (   0.0962250   0.5783517  -0.1666666), wk =   0.0046296
        k(   67) = (   0.0481125   0.5443310  -0.0833333), wk =   0.0046296
        k(   68) = (   0.0000000  -0.6123724   0.0000000), wk =   0.0011574
        k(   69) = (  -0.0481125  -0.6463931   0.0833333), wk =   0.0046296
        k(   70) = (  -0.0962250  -0.6804138   0.1666666), wk =   0.0046296
        k(   71) = (  -0.1443375  -0.7144344   0.2499999), wk =   0.0046296
        k(   72) = (  -0.1924500  -0.7484551   0.3333332), wk =   0.0046296
        k(   73) = (  -0.2405625  -0.7824758   0.4166666), wk =   0.0046296
        k(   74) = (   0.2886750  -0.4082483  -0.4999999), wk =   0.0023148
        k(   75) = (   0.0962250  -0.0340207   0.0000000), wk =   0.0023148
        k(   76) = (   0.0000000  -0.1020620   0.1666666), wk =   0.0046296
        k(   77) = (  -0.0481125  -0.1360827   0.2499999), wk =   0.0046296
        k(   78) = (  -0.0962250  -0.1701034   0.3333332), wk =   0.0046296
        k(   79) = (  -0.1443375  -0.2041241   0.4166666), wk =   0.0046296
        k(   80) = (   0.3849001   0.1701034  -0.4999999), wk =   0.0046296
        k(   81) = (   0.3367876   0.1360827  -0.4166666), wk =   0.0046296
        k(   82) = (   0.2886751   0.1020620  -0.3333332), wk =   0.0046296
        k(   83) = (   0.2405626   0.0680413  -0.2499999), wk =   0.0046296
        k(   84) = (   0.1924501   0.0340207  -0.1666666), wk =   0.0046296
        k(   85) = (   0.1443375  -0.0000000  -0.0833333), wk =   0.0046296
        k(   86) = (   0.0962250   0.0680414   0.0000000), wk =   0.0023148
        k(   87) = (   0.0000000   0.0000000   0.1666666), wk =   0.0023148
        k(   88) = (  -0.0481125  -0.0340207   0.2499999), wk =   0.0046296
        k(   89) = (  -0.0962250  -0.0680413   0.3333332), wk =   0.0046296
        k(   90) = (  -0.1443375  -0.1020620   0.4166666), wk =   0.0046296
        k(   91) = (   0.3849001   0.2721654  -0.4999999), wk =   0.0046296
        k(   92) = (   0.3367876   0.2381448  -0.4166666), wk =   0.0046296
        k(   93) = (   0.2886751   0.2041241  -0.3333332), wk =   0.0046296
        k(   94) = (   0.2405626   0.1701034  -0.2499999), wk =   0.0046296
        k(   95) = (   0.1924501   0.1360827  -0.1666666), wk =   0.0046296
        k(   96) = (   0.1443375   0.1020621  -0.0833333), wk =   0.0046296
        k(   97) = (   0.0962250   0.1701034   0.0000000), wk =   0.0023148
        k(   98) = (  -0.0481125   0.0680414   0.2499999), wk =   0.0046296
        k(   99) = (  -0.0962250   0.0340207   0.3333332), wk =   0.0046296
        k(  100) = (  -0.1443375   0.0000001   0.4166666), wk =   0.0046296
        k(  101) = (   0.3849001   0.3742275  -0.4999999), wk =   0.0046296
        k(  102) = (   0.3367876   0.3402068  -0.4166666), wk =   0.0046296
        k(  103) = (   0.2886751   0.3061862  -0.3333332), wk =   0.0046296
        k(  104) = (   0.2405626   0.2721655  -0.2499999), wk =   0.0046296
        k(  105) = (   0.1924501   0.2381448  -0.1666666), wk =   0.0046296
        k(  106) = (   0.1443375   0.2041241  -0.0833333), wk =   0.0046296
        k(  107) = (   0.0962250   0.2721655   0.0000000), wk =   0.0023148
        k(  108) = (   0.0000000   0.2041242   0.1666666), wk =   0.0046296
        k(  109) = (  -0.0481125   0.1701035   0.2499999), wk =   0.0046296
        k(  110) = (  -0.0962250   0.1360828   0.3333332), wk =   0.0046296
        k(  111) = (  -0.1443375   0.1020621   0.4166666), wk =   0.0046296
        k(  112) = (   0.3849001   0.4762896  -0.4999999), wk =   0.0046296
        k(  113) = (   0.3367876   0.4422689  -0.4166666), wk =   0.0046296
        k(  114) = (   0.2886751   0.4082482  -0.3333332), wk =   0.0046296
        k(  115) = (   0.2405626   0.3742275  -0.2499999), wk =   0.0046296
        k(  116) = (   0.1924501   0.3402069  -0.1666666), wk =   0.0046296
        k(  117) = (   0.1443375   0.3061862  -0.0833333), wk =   0.0046296
        k(  118) = (   0.0962250   0.3742276   0.0000000), wk =   0.0023148
        k(  119) = (   0.0000000   0.3061862   0.1666666), wk =   0.0046296
        k(  120) = (  -0.0481125   0.2721655   0.2499999), wk =   0.0046296
        k(  121) = (  -0.0962250   0.2381449   0.3333332), wk =   0.0046296
        k(  122) = (  -0.1443375   0.2041242   0.4166666), wk =   0.0046296
        k(  123) = (   0.3849001   0.5783516  -0.4999999), wk =   0.0046296
        k(  124) = (   0.3367876   0.5443310  -0.4166666), wk =   0.0046296
        k(  125) = (   0.2886751   0.5103103  -0.3333332), wk =   0.0046296
        k(  126) = (   0.2405626   0.4762896  -0.2499999), wk =   0.0046296
        k(  127) = (   0.1924501   0.4422689  -0.1666666), wk =   0.0046296
        k(  128) = (   0.1443375   0.4082483  -0.0833333), wk =   0.0046296
        k(  129) = (   0.0962250   0.4762896   0.0000000), wk =   0.0023148
        k(  130) = (   0.0000000   0.4082483   0.1666666), wk =   0.0046296
        k(  131) = (  -0.0481125   0.3742276   0.2499999), wk =   0.0046296
        k(  132) = (  -0.0962250   0.3402069   0.3333332), wk =   0.0046296
        k(  133) = (  -0.1443375   0.3061863   0.4166666), wk =   0.0046296
        k(  134) = (   0.3849001   0.6804137  -0.4999999), wk =   0.0046296
        k(  135) = (   0.3367876   0.6463930  -0.4166666), wk =   0.0046296
        k(  136) = (   0.2886751   0.6123724  -0.3333332), wk =   0.0046296
        k(  137) = (   0.2405626   0.5783517  -0.2499999), wk =   0.0046296
        k(  138) = (   0.1924501   0.5443310  -0.1666666), wk =   0.0046296
        k(  139) = (   0.1443375   0.5103103  -0.0833333), wk =   0.0046296
        k(  140) = (   0.0962250  -0.6463931   0.0000000), wk =   0.0023148
        k(  141) = (   0.0000000  -0.7144344   0.1666666), wk =   0.0046296
        k(  142) = (  -0.0481125  -0.7484551   0.2499999), wk =   0.0046296
        k(  143) = (  -0.0962250  -0.7824758   0.3333332), wk =   0.0046296
        k(  144) = (  -0.1443375  -0.8164965   0.4166666), wk =   0.0046296
        k(  145) = (   0.3849001  -0.4422690  -0.4999999), wk =   0.0046296
        k(  146) = (   0.3367876  -0.4762897  -0.4166666), wk =   0.0046296
        k(  147) = (   0.2886751  -0.5103104  -0.3333332), wk =   0.0046296
        k(  148) = (   0.2405626  -0.5443311  -0.2499999), wk =   0.0046296
        k(  149) = (   0.1924501  -0.5783517  -0.1666666), wk =   0.0046296
        k(  150) = (   0.1443375  -0.6123724  -0.0833333), wk =   0.0046296
        k(  151) = (   0.0962250  -0.5443310   0.0000000), wk =   0.0023148
        k(  152) = (   0.0000000  -0.6123724   0.1666666), wk =   0.0023148
        k(  153) = (  -0.0481125  -0.6463931   0.2499999), wk =   0.0046296
        k(  154) = (  -0.0962250  -0.6804137   0.3333332), wk =   0.0046296
        k(  155) = (  -0.1443375  -0.7144344   0.4166666), wk =   0.0046296
        k(  156) = (   0.3849001  -0.3402070  -0.4999999), wk =   0.0046296
        k(  157) = (   0.3367876  -0.3742276  -0.4166666), wk =   0.0046296
        k(  158) = (   0.2886751  -0.4082483  -0.3333332), wk =   0.0046296
        k(  159) = (   0.2405626  -0.4422690  -0.2499999), wk =   0.0046296
        k(  160) = (   0.1924501  -0.4762897  -0.1666666), wk =   0.0046296
        k(  161) = (   0.1443375  -0.5103103  -0.0833333), wk =   0.0046296
        k(  162) = (   0.0962250  -0.4422690   0.0000000), wk =   0.0023148
        k(  163) = (  -0.0481125  -0.5443310   0.2499999), wk =   0.0046296
        k(  164) = (  -0.0962250  -0.5783517   0.3333332), wk =   0.0046296
        k(  165) = (  -0.1443375  -0.6123723   0.4166666), wk =   0.0046296
        k(  166) = (   0.3849001  -0.2381449  -0.4999999), wk =   0.0046296
        k(  167) = (   0.3367876  -0.2721656  -0.4166666), wk =   0.0046296
        k(  168) = (   0.2886751  -0.3061862  -0.3333332), wk =   0.0046296
        k(  169) = (   0.2405626  -0.3402069  -0.2499999), wk =   0.0046296
        k(  170) = (   0.1924501  -0.3742276  -0.1666666), wk =   0.0046296
        k(  171) = (   0.1443375  -0.4082483  -0.0833333), wk =   0.0046296
        k(  172) = (   0.0962250  -0.3402069   0.0000000), wk =   0.0023148
        k(  173) = (  -0.0481125  -0.4422689   0.2499999), wk =   0.0046296
        k(  174) = (  -0.0962250  -0.4762896   0.3333332), wk =   0.0046296
        k(  175) = (  -0.1443375  -0.5103103   0.4166666), wk =   0.0046296
        k(  176) = (   0.3849001  -0.1360828  -0.4999999), wk =   0.0046296
        k(  177) = (   0.3367876  -0.1701035  -0.4166666), wk =   0.0046296
        k(  178) = (   0.2886751  -0.2041242  -0.3333332), wk =   0.0046296
        k(  179) = (   0.2405626  -0.2381449  -0.2499999), wk =   0.0046296
        k(  180) = (   0.1924501  -0.2721655  -0.1666666), wk =   0.0046296
        k(  181) = (   0.1443375  -0.3061862  -0.0833333), wk =   0.0046296
        k(  182) = (   0.0962250  -0.2381448   0.0000000), wk =   0.0023148
        k(  183) = (  -0.0481125  -0.3402069   0.2499999), wk =   0.0046296
        k(  184) = (  -0.0962250  -0.3742275   0.3333332), wk =   0.0046296
        k(  185) = (  -0.1443375  -0.4082482   0.4166666), wk =   0.0046296
        k(  186) = (   0.3849001  -0.0340208  -0.4999999), wk =   0.0046296
        k(  187) = (   0.3367876  -0.0680414  -0.4166666), wk =   0.0046296
        k(  188) = (   0.2886751  -0.1020621  -0.3333332), wk =   0.0046296
        k(  189) = (   0.2405626  -0.1360828  -0.2499999), wk =   0.0046296
        k(  190) = (   0.1924501  -0.1701035  -0.1666666), wk =   0.0046296
        k(  191) = (   0.1443375  -0.2041241  -0.0833333), wk =   0.0046296
        k(  192) = (   0.0962250  -0.1360828   0.0000000), wk =   0.0023148
        k(  193) = (  -0.0481125  -0.2381448   0.2499999), wk =   0.0046296
        k(  194) = (  -0.0962250  -0.2721655   0.3333332), wk =   0.0046296
        k(  195) = (  -0.1443375  -0.3061861   0.4166666), wk =   0.0046296
        k(  196) = (   0.3849001   0.0680413  -0.4999999), wk =   0.0046296
        k(  197) = (   0.3367876   0.0340206  -0.4166666), wk =   0.0046296
        k(  198) = (   0.2886751  -0.0000000  -0.3333332), wk =   0.0046296
        k(  199) = (   0.2405626  -0.0340207  -0.2499999), wk =   0.0046296
        k(  200) = (   0.1924501  -0.0680414  -0.1666666), wk =   0.0046296
        k(  201) = (   0.1443375  -0.1020621  -0.0833333), wk =   0.0046296
        k(  202) = (   0.1924501  -0.0680414   0.0000000), wk =   0.0023148
        k(  203) = (   0.0000001  -0.2041241   0.3333332), wk =   0.0046296
        k(  204) = (  -0.0481124  -0.2381448   0.4166666), wk =   0.0046296
        k(  205) = (   0.4811251   0.1360827  -0.4999999), wk =   0.0046296
        k(  206) = (   0.4330126   0.1020620  -0.4166666), wk =   0.0046296
        k(  207) = (   0.3849001   0.0680413  -0.3333332), wk =   0.0046296
        k(  208) = (   0.3367876   0.0340207  -0.2499999), wk =   0.0046296
        k(  209) = (   0.2886751  -0.0000000  -0.1666666), wk =   0.0046296
        k(  210) = (   0.2405626  -0.0340207  -0.0833333), wk =   0.0046296
        k(  211) = (   0.1924501   0.0340207   0.0000000), wk =   0.0023148
        k(  212) = (   0.0000001  -0.1020620   0.3333332), wk =   0.0046296
        k(  213) = (  -0.0481124  -0.1360827   0.4166666), wk =   0.0046296
        k(  214) = (   0.4811251   0.2381448  -0.4999999), wk =   0.0046296
        k(  215) = (   0.4330126   0.2041241  -0.4166666), wk =   0.0046296
        k(  216) = (   0.3849001   0.1701034  -0.3333332), wk =   0.0046296
        k(  217) = (   0.3367876   0.1360827  -0.2499999), wk =   0.0046296
        k(  218) = (   0.2886751   0.1020620  -0.1666666), wk =   0.0046296
        k(  219) = (   0.2405626   0.0680414  -0.0833333), wk =   0.0046296
        k(  220) = (   0.1924501   0.1360828   0.0000000), wk =   0.0023148
        k(  221) = (   0.0000001   0.0000000   0.3333332), wk =   0.0023148
        k(  222) = (  -0.0481124  -0.0340206   0.4166666), wk =   0.0046296
        k(  223) = (   0.4811251   0.3402068  -0.4999999), wk =   0.0046296
        k(  224) = (   0.4330126   0.3061861  -0.4166666), wk =   0.0046296
        k(  225) = (   0.3849001   0.2721655  -0.3333332), wk =   0.0046296
        k(  226) = (   0.3367876   0.2381448  -0.2499999), wk =   0.0046296
        k(  227) = (   0.2886751   0.2041241  -0.1666666), wk =   0.0046296
        k(  228) = (   0.2405626   0.1701034  -0.0833333), wk =   0.0046296
        k(  229) = (   0.1924501   0.2381448   0.0000000), wk =   0.0023148
        k(  230) = (  -0.0481124   0.0680414   0.4166666), wk =   0.0046296
        k(  231) = (   0.4811251   0.4422689  -0.4999999), wk =   0.0046296
        k(  232) = (   0.4330126   0.4082482  -0.4166666), wk =   0.0046296
        k(  233) = (   0.3849001   0.3742275  -0.3333332), wk =   0.0046296
        k(  234) = (   0.3367876   0.3402069  -0.2499999), wk =   0.0046296
        k(  235) = (   0.2886751   0.3061862  -0.1666666), wk =   0.0046296
        k(  236) = (   0.2405626   0.2721655  -0.0833333), wk =   0.0046296
        k(  237) = (   0.1924501   0.3402069   0.0000000), wk =   0.0023148
        k(  238) = (  -0.0481124   0.1701035   0.4166666), wk =   0.0046296
        k(  239) = (   0.4811251   0.5443310  -0.4999999), wk =   0.0046296
        k(  240) = (   0.4330126   0.5103103  -0.4166666), wk =   0.0046296
        k(  241) = (   0.3849001   0.4762896  -0.3333332), wk =   0.0046296
        k(  242) = (   0.3367876   0.4422689  -0.2499999), wk =   0.0046296
        k(  243) = (   0.2886751   0.4082482  -0.1666666), wk =   0.0046296
        k(  244) = (   0.2405626   0.3742276  -0.0833333), wk =   0.0046296
        k(  245) = (   0.1924501   0.4422690   0.0000000), wk =   0.0023148
        k(  246) = (   0.0000001   0.3061862   0.3333332), wk =   0.0046296
        k(  247) = (  -0.0481124   0.2721656   0.4166666), wk =   0.0046296
        k(  248) = (   0.4811251   0.6463930  -0.4999999), wk =   0.0046296
        k(  249) = (   0.4330126   0.6123723  -0.4166666), wk =   0.0046296
        k(  250) = (   0.3849001   0.5783517  -0.3333332), wk =   0.0046296
        k(  251) = (   0.3367876   0.5443310  -0.2499999), wk =   0.0046296
        k(  252) = (   0.2886751   0.5103103  -0.1666666), wk =   0.0046296
        k(  253) = (   0.2405626   0.4762896  -0.0833333), wk =   0.0046296
        k(  254) = (   0.1924501  -0.6804138   0.0000000), wk =   0.0023148
        k(  255) = (   0.0000001  -0.8164965   0.3333332), wk =   0.0046296
        k(  256) = (  -0.0481124  -0.8505172   0.4166666), wk =   0.0046296
        k(  257) = (   0.4811251  -0.4762897  -0.4999999), wk =   0.0046296
        k(  258) = (   0.4330126  -0.5103104  -0.4166666), wk =   0.0046296
        k(  259) = (   0.3849001  -0.5443311  -0.3333332), wk =   0.0046296
        k(  260) = (   0.3367876  -0.5783518  -0.2499999), wk =   0.0046296
        k(  261) = (   0.2886751  -0.6123724  -0.1666666), wk =   0.0046296
        k(  262) = (   0.2405626  -0.6463931  -0.0833333), wk =   0.0046296
        k(  263) = (   0.1924501  -0.5783517   0.0000000), wk =   0.0023148
        k(  264) = (   0.0000001  -0.7144344   0.3333332), wk =   0.0046296
        k(  265) = (  -0.0481124  -0.7484551   0.4166666), wk =   0.0046296
        k(  266) = (   0.4811251  -0.3742277  -0.4999999), wk =   0.0046296
        k(  267) = (   0.4330126  -0.4082483  -0.4166666), wk =   0.0046296
        k(  268) = (   0.3849001  -0.4422690  -0.3333332), wk =   0.0046296
        k(  269) = (   0.3367876  -0.4762897  -0.2499999), wk =   0.0046296
        k(  270) = (   0.2886751  -0.5103104  -0.1666666), wk =   0.0046296
        k(  271) = (   0.2405626  -0.5443310  -0.0833333), wk =   0.0046296
        k(  272) = (   0.1924501  -0.4762896   0.0000000), wk =   0.0023148
        k(  273) = (   0.0000001  -0.6123724   0.3333332), wk =   0.0023148
        k(  274) = (  -0.0481124  -0.6463930   0.4166666), wk =   0.0046296
        k(  275) = (   0.4811251  -0.2721656  -0.4999999), wk =   0.0046296
        k(  276) = (   0.4330126  -0.3061863  -0.4166666), wk =   0.0046296
        k(  277) = (   0.3849001  -0.3402069  -0.3333332), wk =   0.0046296
        k(  278) = (   0.3367876  -0.3742276  -0.2499999), wk =   0.0046296
        k(  279) = (   0.2886751  -0.4082483  -0.1666666), wk =   0.0046296
        k(  280) = (   0.2405626  -0.4422690  -0.0833333), wk =   0.0046296
        k(  281) = (   0.1924501  -0.3742276   0.0000000), wk =   0.0023148
        k(  282) = (  -0.0481124  -0.5443310   0.4166666), wk =   0.0046296
        k(  283) = (   0.4811251  -0.1701035  -0.4999999), wk =   0.0046296
        k(  284) = (   0.4330126  -0.2041242  -0.4166666), wk =   0.0046296
        k(  285) = (   0.3849001  -0.2381449  -0.3333332), wk =   0.0046296
        k(  286) = (   0.3367876  -0.2721655  -0.2499999), wk =   0.0046296
        k(  287) = (   0.2886751  -0.3061862  -0.1666666), wk =   0.0046296
        k(  288) = (   0.2405626  -0.3402069  -0.0833333), wk =   0.0046296
        k(  289) = (   0.1924501  -0.2721655   0.0000000), wk =   0.0023148
        k(  290) = (  -0.0481124  -0.4422689   0.4166666), wk =   0.0046296
        k(  291) = (   0.4811251  -0.0680414  -0.4999999), wk =   0.0046296
        k(  292) = (   0.4330126  -0.1020621  -0.4166666), wk =   0.0046296
        k(  293) = (   0.3849001  -0.1360828  -0.3333332), wk =   0.0046296
        k(  294) = (   0.3367876  -0.1701035  -0.2499999), wk =   0.0046296
        k(  295) = (   0.2886751  -0.2041242  -0.1666666), wk =   0.0046296
        k(  296) = (   0.2405626  -0.2381448  -0.0833333), wk =   0.0046296
        k(  297) = (   0.1924501  -0.1701034   0.0000000), wk =   0.0023148
        k(  298) = (  -0.0481124  -0.3402068   0.4166666), wk =   0.0046296
        k(  299) = (   0.4811251   0.0340206  -0.4999999), wk =   0.0046296
        k(  300) = (   0.4330126  -0.0000001  -0.4166666), wk =   0.0046296
        k(  301) = (   0.3849001  -0.0340207  -0.3333332), wk =   0.0046296
        k(  302) = (   0.3367876  -0.0680414  -0.2499999), wk =   0.0046296
        k(  303) = (   0.2886751  -0.1020621  -0.1666666), wk =   0.0046296
        k(  304) = (   0.2405626  -0.1360828  -0.0833333), wk =   0.0046296
        k(  305) = (   0.2886751  -0.1020621   0.0000000), wk =   0.0023148
        k(  306) = (   0.5773502   0.1020620  -0.4999999), wk =   0.0046296
        k(  307) = (   0.5292376   0.0680413  -0.4166666), wk =   0.0046296
        k(  308) = (   0.4811251   0.0340206  -0.3333332), wk =   0.0046296
        k(  309) = (   0.4330126  -0.0000000  -0.2499999), wk =   0.0046296
        k(  310) = (   0.3849001  -0.0340207  -0.1666666), wk =   0.0046296
        k(  311) = (   0.3367876  -0.0680414  -0.0833333), wk =   0.0046296
        k(  312) = (   0.2886751   0.0000000   0.0000000), wk =   0.0023148
        k(  313) = (   0.5773502   0.2041241  -0.4999999), wk =   0.0046296
        k(  314) = (   0.5292376   0.1701034  -0.4166666), wk =   0.0046296
        k(  315) = (   0.4811251   0.1360827  -0.3333332), wk =   0.0046296
        k(  316) = (   0.4330126   0.1020620  -0.2499999), wk =   0.0046296
        k(  317) = (   0.3849001   0.0680414  -0.1666666), wk =   0.0046296
        k(  318) = (   0.3367876   0.0340207  -0.0833333), wk =   0.0046296
        k(  319) = (   0.2886751   0.1020621   0.0000000), wk =   0.0023148
        k(  320) = (   0.5773502   0.3061861  -0.4999999), wk =   0.0046296
        k(  321) = (   0.5292376   0.2721655  -0.4166666), wk =   0.0046296
        k(  322) = (   0.4811251   0.2381448  -0.3333332), wk =   0.0046296
        k(  323) = (   0.4330126   0.2041241  -0.2499999), wk =   0.0046296
        k(  324) = (   0.3849001   0.1701034  -0.1666666), wk =   0.0046296
        k(  325) = (   0.3367876   0.1360827  -0.0833333), wk =   0.0046296
        k(  326) = (   0.2886751   0.2041241   0.0000000), wk =   0.0023148
        k(  327) = (   0.5773502   0.4082482  -0.4999999), wk =   0.0023148
        k(  328) = (   0.5292376   0.3742275  -0.4166666), wk =   0.0046296
        k(  329) = (   0.4811251   0.3402068  -0.3333332), wk =   0.0046296
        k(  330) = (   0.4330126   0.3061862  -0.2499999), wk =   0.0046296
        k(  331) = (   0.3849001   0.2721655  -0.1666666), wk =   0.0046296
        k(  332) = (   0.3367876   0.2381448  -0.0833333), wk =   0.0046296
        k(  333) = (   0.2886751   0.3061862   0.0000000), wk =   0.0023148
        k(  334) = (   0.5292376   0.4762896  -0.4166666), wk =   0.0046296
        k(  335) = (   0.4811251   0.4422689  -0.3333332), wk =   0.0046296
        k(  336) = (   0.4330126   0.4082482  -0.2499999), wk =   0.0046296
        k(  337) = (   0.3849001   0.3742276  -0.1666666), wk =   0.0046296
        k(  338) = (   0.3367876   0.3402069  -0.0833333), wk =   0.0046296
        k(  339) = (   0.2886751   0.4082483   0.0000000), wk =   0.0023148
        k(  340) = (   0.5292376   0.5783517  -0.4166666), wk =   0.0046296
        k(  341) = (   0.4811251   0.5443310  -0.3333332), wk =   0.0046296
        k(  342) = (   0.4330126   0.5103103  -0.2499999), wk =   0.0046296
        k(  343) = (   0.3849001   0.4762896  -0.1666666), wk =   0.0046296
        k(  344) = (   0.3367876   0.4422689  -0.0833333), wk =   0.0046296
        k(  345) = (   0.2886751  -0.7144345   0.0000000), wk =   0.0023148
        k(  346) = (   0.5292376  -0.5443311  -0.4166666), wk =   0.0046296
        k(  347) = (   0.4811251  -0.5783518  -0.3333332), wk =   0.0046296
        k(  348) = (   0.4330126  -0.6123724  -0.2499999), wk =   0.0046296
        k(  349) = (   0.3849001  -0.6463931  -0.1666666), wk =   0.0046296
        k(  350) = (   0.3367876  -0.6804138  -0.0833333), wk =   0.0046296
        k(  351) = (   0.2886751  -0.6123724   0.0000000), wk =   0.0023148
        k(  352) = (   0.5773502  -0.4082483  -0.4999999), wk =   0.0046296
        k(  353) = (   0.5292376  -0.4422690  -0.4166666), wk =   0.0046296
        k(  354) = (   0.4811251  -0.4762897  -0.3333332), wk =   0.0046296
        k(  355) = (   0.4330126  -0.5103104  -0.2499999), wk =   0.0046296
        k(  356) = (   0.3849001  -0.5443310  -0.1666666), wk =   0.0046296
        k(  357) = (   0.3367876  -0.5783517  -0.0833333), wk =   0.0046296
        k(  358) = (   0.2886751  -0.5103103   0.0000000), wk =   0.0023148
        k(  359) = (   0.5773502  -0.3061863  -0.4999999), wk =   0.0046296
        k(  360) = (   0.5292376  -0.3402070  -0.4166666), wk =   0.0046296
        k(  361) = (   0.4811251  -0.3742276  -0.3333332), wk =   0.0046296
        k(  362) = (   0.4330126  -0.4082483  -0.2499999), wk =   0.0046296
        k(  363) = (   0.3849001  -0.4422690  -0.1666666), wk =   0.0046296
        k(  364) = (   0.3367876  -0.4762897  -0.0833333), wk =   0.0046296
        k(  365) = (   0.2886751  -0.4082483   0.0000000), wk =   0.0023148
        k(  366) = (   0.5773502  -0.2041242  -0.4999999), wk =   0.0023148
        k(  367) = (   0.5292376  -0.2381449  -0.4166666), wk =   0.0046296
        k(  368) = (   0.4811251  -0.2721656  -0.3333332), wk =   0.0046296
        k(  369) = (   0.4330126  -0.3061862  -0.2499999), wk =   0.0046296
        k(  370) = (   0.3849001  -0.3402069  -0.1666666), wk =   0.0046296
        k(  371) = (   0.3367876  -0.3742276  -0.0833333), wk =   0.0046296
        k(  372) = (   0.2886751  -0.3061862   0.0000000), wk =   0.0023148
        k(  373) = (   0.5292376  -0.1360828  -0.4166666), wk =   0.0046296
        k(  374) = (   0.4811251  -0.1701035  -0.3333332), wk =   0.0046296
        k(  375) = (   0.4330126  -0.2041242  -0.2499999), wk =   0.0046296
        k(  376) = (   0.3849001  -0.2381448  -0.1666666), wk =   0.0046296
        k(  377) = (   0.3367876  -0.2721655  -0.0833333), wk =   0.0046296
        k(  378) = (   0.2886751  -0.2041241   0.0000000), wk =   0.0023148
        k(  379) = (   0.5292376  -0.0340207  -0.4166666), wk =   0.0046296
        k(  380) = (   0.4811251  -0.0680414  -0.3333332), wk =   0.0046296
        k(  381) = (   0.4330126  -0.1020621  -0.2499999), wk =   0.0046296
        k(  382) = (   0.3849001  -0.1360828  -0.1666666), wk =   0.0046296
        k(  383) = (   0.3367876  -0.1701035  -0.0833333), wk =   0.0046296
        k(  384) = (   0.3849002  -0.1360828   0.0000000), wk =   0.0023148
        k(  385) = (   0.5773502  -0.0000000  -0.3333332), wk =   0.0046296
        k(  386) = (   0.5292377  -0.0340207  -0.2499999), wk =   0.0046296
        k(  387) = (   0.4811252  -0.0680414  -0.1666666), wk =   0.0046296
        k(  388) = (   0.4330127  -0.1020621  -0.0833333), wk =   0.0046296
        k(  389) = (   0.3849002  -0.0340207   0.0000000), wk =   0.0023148
        k(  390) = (   0.5773502   0.1020620  -0.3333332), wk =   0.0046296
        k(  391) = (   0.5292377   0.0680413  -0.2499999), wk =   0.0046296
        k(  392) = (   0.4811252   0.0340207  -0.1666666), wk =   0.0046296
        k(  393) = (   0.4330127  -0.0000000  -0.0833333), wk =   0.0046296
        k(  394) = (   0.3849002   0.0680414   0.0000000), wk =   0.0023148
        k(  395) = (   0.5773502   0.2041241  -0.3333332), wk =   0.0046296
        k(  396) = (   0.5292377   0.1701034  -0.2499999), wk =   0.0046296
        k(  397) = (   0.4811252   0.1360827  -0.1666666), wk =   0.0046296
        k(  398) = (   0.4330127   0.1020621  -0.0833333), wk =   0.0046296
        k(  399) = (   0.3849002   0.1701034   0.0000000), wk =   0.0023148
        k(  400) = (   0.5773502   0.3061862  -0.3333332), wk =   0.0046296
        k(  401) = (   0.5292377   0.2721655  -0.2499999), wk =   0.0046296
        k(  402) = (   0.4811252   0.2381448  -0.1666666), wk =   0.0046296
        k(  403) = (   0.4330127   0.2041241  -0.0833333), wk =   0.0046296
        k(  404) = (   0.3849002   0.2721655   0.0000000), wk =   0.0023148
        k(  405) = (   0.5773502   0.4082482  -0.3333332), wk =   0.0023148
        k(  406) = (   0.5292377   0.3742275  -0.2499999), wk =   0.0046296
        k(  407) = (   0.4811252   0.3402069  -0.1666666), wk =   0.0046296
        k(  408) = (   0.4330127   0.3061862  -0.0833333), wk =   0.0046296
        k(  409) = (   0.3849002   0.3742276   0.0000000), wk =   0.0023148
        k(  410) = (   0.5292377   0.4762896  -0.2499999), wk =   0.0046296
        k(  411) = (   0.4811252   0.4422689  -0.1666666), wk =   0.0046296
        k(  412) = (   0.4330127   0.4082483  -0.0833333), wk =   0.0046296
        k(  413) = (   0.3849002  -0.7484552   0.0000000), wk =   0.0023148
        k(  414) = (   0.5292377  -0.6463931  -0.2499999), wk =   0.0046296
        k(  415) = (   0.4811252  -0.6804138  -0.1666666), wk =   0.0046296
        k(  416) = (   0.4330127  -0.7144345  -0.0833333), wk =   0.0046296
        k(  417) = (   0.3849002  -0.6463931   0.0000000), wk =   0.0023148
        k(  418) = (   0.5292377  -0.5443311  -0.2499999), wk =   0.0046296
        k(  419) = (   0.4811252  -0.5783517  -0.1666666), wk =   0.0046296
        k(  420) = (   0.4330127  -0.6123724  -0.0833333), wk =   0.0046296
        k(  421) = (   0.3849002  -0.5443310   0.0000000), wk =   0.0023148
        k(  422) = (   0.5292377  -0.4422690  -0.2499999), wk =   0.0046296
        k(  423) = (   0.4811252  -0.4762897  -0.1666666), wk =   0.0046296
        k(  424) = (   0.4330127  -0.5103103  -0.0833333), wk =   0.0046296
        k(  425) = (   0.3849002  -0.4422690   0.0000000), wk =   0.0023148
        k(  426) = (   0.5773502  -0.3061862  -0.3333332), wk =   0.0046296
        k(  427) = (   0.5292377  -0.3402069  -0.2499999), wk =   0.0046296
        k(  428) = (   0.4811252  -0.3742276  -0.1666666), wk =   0.0046296
        k(  429) = (   0.4330127  -0.4082483  -0.0833333), wk =   0.0046296
        k(  430) = (   0.3849002  -0.3402069   0.0000000), wk =   0.0023148
        k(  431) = (   0.5773502  -0.2041242  -0.3333332), wk =   0.0023148
        k(  432) = (   0.5292377  -0.2381449  -0.2499999), wk =   0.0046296
        k(  433) = (   0.4811252  -0.2721655  -0.1666666), wk =   0.0046296
        k(  434) = (   0.4330127  -0.3061862  -0.0833333), wk =   0.0046296
        k(  435) = (   0.3849002  -0.2381448   0.0000000), wk =   0.0023148
        k(  436) = (   0.5292377  -0.1360828  -0.2499999), wk =   0.0046296
        k(  437) = (   0.4811252  -0.1701035  -0.1666666), wk =   0.0046296
        k(  438) = (   0.4330127  -0.2041241  -0.0833333), wk =   0.0046296
        k(  439) = (   0.4811252  -0.1701034   0.0000000), wk =   0.0023148
        k(  440) = (   0.5773502  -0.1020621  -0.1666666), wk =   0.0046296
        k(  441) = (   0.5292377  -0.1360828  -0.0833333), wk =   0.0046296
        k(  442) = (   0.4811252  -0.0680414   0.0000000), wk =   0.0023148
        k(  443) = (   0.5773502  -0.0000000  -0.1666666), wk =   0.0046296
        k(  444) = (   0.5292377  -0.0340207  -0.0833333), wk =   0.0046296
        k(  445) = (   0.4811252   0.0340207   0.0000000), wk =   0.0023148
        k(  446) = (   0.5773502   0.1020620  -0.1666666), wk =   0.0046296
        k(  447) = (   0.5292377   0.0680414  -0.0833333), wk =   0.0046296
        k(  448) = (   0.4811252   0.1360828   0.0000000), wk =   0.0023148
        k(  449) = (   0.5773502   0.2041241  -0.1666666), wk =   0.0046296
        k(  450) = (   0.5292377   0.1701034  -0.0833333), wk =   0.0046296
        k(  451) = (   0.4811252   0.2381448   0.0000000), wk =   0.0023148
        k(  452) = (   0.5773502   0.3061862  -0.1666666), wk =   0.0046296
        k(  453) = (   0.5292377   0.2721655  -0.0833333), wk =   0.0046296
        k(  454) = (   0.4811252   0.3402069   0.0000000), wk =   0.0023148
        k(  455) = (   0.5773502   0.4082482  -0.1666666), wk =   0.0023148
        k(  456) = (   0.5292377   0.3742276  -0.0833333), wk =   0.0046296
        k(  457) = (   0.4811252  -0.7824758   0.0000000), wk =   0.0023148
        k(  458) = (   0.5292377  -0.7484552  -0.0833333), wk =   0.0046296
        k(  459) = (   0.4811252  -0.6804138   0.0000000), wk =   0.0023148
        k(  460) = (   0.5292377  -0.6463931  -0.0833333), wk =   0.0046296
        k(  461) = (   0.4811252  -0.5783517   0.0000000), wk =   0.0023148
        k(  462) = (   0.5292377  -0.5443310  -0.0833333), wk =   0.0046296
        k(  463) = (   0.4811252  -0.4762896   0.0000000), wk =   0.0023148
        k(  464) = (   0.5292377  -0.4422690  -0.0833333), wk =   0.0046296
        k(  465) = (   0.4811252  -0.3742276   0.0000000), wk =   0.0023148
        k(  466) = (   0.5292377  -0.3402069  -0.0833333), wk =   0.0046296
        k(  467) = (   0.4811252  -0.2721655   0.0000000), wk =   0.0023148
        k(  468) = (   0.5773502  -0.2041242  -0.1666666), wk =   0.0023148
        k(  469) = (   0.5292377  -0.2381448  -0.0833333), wk =   0.0046296
        k(  470) = (  -0.5773503   0.2041241   0.0000000), wk =   0.0011574
        k(  471) = (  -0.5773503   0.3061862   0.0000000), wk =   0.0023148
        k(  472) = (  -0.5773503   0.4082483   0.0000000), wk =   0.0023148
        k(  473) = (  -0.5773503   0.5103103   0.0000000), wk =   0.0023148
        k(  474) = (  -0.5773503   0.6123724   0.0000000), wk =   0.0023148
        k(  475) = (  -0.5773503   0.7144345   0.0000000), wk =   0.0023148
        k(  476) = (  -0.5773503  -0.4082483   0.0000000), wk =   0.0011574

                       cryst. coord.
        k(    1) = (   0.0000000   0.0000000   0.0000000), wk =   0.0011574
        k(    2) = (   0.0000000   0.0000000   0.0833333), wk =   0.0046296
        k(    3) = (   0.0000000   0.0000000   0.1666667), wk =   0.0046296
        k(    4) = (   0.0000000   0.0000000   0.2500000), wk =   0.0046296
        k(    5) = (   0.0000000   0.0000000   0.3333333), wk =   0.0046296
        k(    6) = (   0.0000000  -0.0000000   0.4166667), wk =   0.0046296
        k(    7) = (  -0.0000000   0.0000000  -0.5000000), wk =   0.0023148
        k(    8) = (   0.0000000   0.0833333   0.0000000), wk =   0.0023148
        k(    9) = (   0.0000000   0.0833333   0.0833333), wk =   0.0046296
        k(   10) = (   0.0000000   0.0833333   0.1666667), wk =   0.0046296
        k(   11) = (   0.0000000   0.0833333   0.2500000), wk =   0.0046296
        k(   12) = (   0.0000000   0.0833333   0.3333333), wk =   0.0046296
        k(   13) = (   0.0000000   0.0833333   0.4166667), wk =   0.0046296
        k(   14) = (  -0.0000000   0.0833333  -0.5000000), wk =   0.0046296
        k(   15) = (   0.0000000   0.0833333  -0.4166667), wk =   0.0046296
        k(   16) = (  -0.0000000   0.0833333  -0.3333333), wk =   0.0046296
        k(   17) = (  -0.0000000   0.0833333  -0.2500000), wk =   0.0046296
        k(   18) = (  -0.0000000   0.0833333  -0.1666667), wk =   0.0046296
        k(   19) = (  -0.0000000   0.0833333  -0.0833333), wk =   0.0046296
        k(   20) = (   0.0000000   0.1666667   0.0000000), wk =   0.0023148
        k(   21) = (   0.0000000   0.1666667   0.0833333), wk =   0.0046296
        k(   22) = (   0.0000000   0.1666667   0.1666667), wk =   0.0046296
        k(   23) = (   0.0000000   0.1666667   0.2500000), wk =   0.0046296
        k(   24) = (   0.0000000   0.1666667   0.3333333), wk =   0.0046296
        k(   25) = (   0.0000000   0.1666667   0.4166667), wk =   0.0046296
        k(   26) = (  -0.0000000   0.1666667  -0.5000000), wk =   0.0046296
        k(   27) = (   0.0000000   0.1666667  -0.4166667), wk =   0.0046296
        k(   28) = (  -0.0000000   0.1666667  -0.3333333), wk =   0.0046296
        k(   29) = (  -0.0000000   0.1666667  -0.2500000), wk =   0.0046296
        k(   30) = (  -0.0000000   0.1666667  -0.1666667), wk =   0.0046296
        k(   31) = (  -0.0000000   0.1666667  -0.0833333), wk =   0.0046296
        k(   32) = (   0.0000000   0.2500000   0.0000000), wk =   0.0023148
        k(   33) = (   0.0000000   0.2500000   0.0833333), wk =   0.0046296
        k(   34) = (   0.0000000   0.2500000   0.1666667), wk =   0.0046296
        k(   35) = (   0.0000000   0.2500000   0.2500000), wk =   0.0046296
        k(   36) = (   0.0000000   0.2500000   0.3333333), wk =   0.0046296
        k(   37) = (   0.0000000   0.2500000   0.4166667), wk =   0.0046296
        k(   38) = (  -0.0000000   0.2500000  -0.5000000), wk =   0.0046296
        k(   39) = (   0.0000000   0.2500000  -0.4166667), wk =   0.0046296
        k(   40) = (  -0.0000000   0.2500000  -0.3333333), wk =   0.0046296
        k(   41) = (  -0.0000000   0.2500000  -0.2500000), wk =   0.0046296
        k(   42) = (  -0.0000000   0.2500000  -0.1666667), wk =   0.0046296
        k(   43) = (  -0.0000000   0.2500000  -0.0833333), wk =   0.0046296
        k(   44) = (   0.0000000   0.3333333   0.0000000), wk =   0.0023148
        k(   45) = (   0.0000000   0.3333333   0.0833333), wk =   0.0046296
        k(   46) = (   0.0000000   0.3333333   0.1666667), wk =   0.0046296
        k(   47) = (   0.0000000   0.3333333   0.2500000), wk =   0.0046296
        k(   48) = (   0.0000000   0.3333333   0.3333333), wk =   0.0046296
        k(   49) = (   0.0000000   0.3333333   0.4166667), wk =   0.0046296
        k(   50) = (  -0.0000000   0.3333333  -0.5000000), wk =   0.0046296
        k(   51) = (   0.0000000   0.3333333  -0.4166667), wk =   0.0046296
        k(   52) = (  -0.0000000   0.3333333  -0.3333333), wk =   0.0046296
        k(   53) = (  -0.0000000   0.3333333  -0.2500000), wk =   0.0046296
        k(   54) = (  -0.0000000   0.3333333  -0.1666667), wk =   0.0046296
        k(   55) = (  -0.0000000   0.3333333  -0.0833333), wk =   0.0046296
        k(   56) = (   0.0000000   0.4166667   0.0000000), wk =   0.0023148
        k(   57) = (   0.0000000   0.4166667   0.0833333), wk =   0.0046296
        k(   58) = (   0.0000000   0.4166667   0.1666667), wk =   0.0046296
        k(   59) = (   0.0000000   0.4166667   0.2500000), wk =   0.0046296
        k(   60) = (   0.0000000   0.4166667   0.3333333), wk =   0.0046296
        k(   61) = (   0.0000000   0.4166667   0.4166667), wk =   0.0046296
        k(   62) = (  -0.0000000   0.4166667  -0.5000000), wk =   0.0046296
        k(   63) = (   0.0000000   0.4166667  -0.4166667), wk =   0.0046296
        k(   64) = (  -0.0000000   0.4166667  -0.3333333), wk =   0.0046296
        k(   65) = (  -0.0000000   0.4166667  -0.2500000), wk =   0.0046296
        k(   66) = (  -0.0000000   0.4166667  -0.1666667), wk =   0.0046296
        k(   67) = (  -0.0000000   0.4166667  -0.0833333), wk =   0.0046296
        k(   68) = (   0.0000000  -0.5000000   0.0000000), wk =   0.0011574
        k(   69) = (   0.0000000  -0.5000000   0.0833333), wk =   0.0046296
        k(   70) = (   0.0000000  -0.5000000   0.1666667), wk =   0.0046296
        k(   71) = (   0.0000000  -0.5000000   0.2500000), wk =   0.0046296
        k(   72) = (   0.0000000  -0.5000000   0.3333333), wk =   0.0046296
        k(   73) = (   0.0000000  -0.5000000   0.4166667), wk =   0.0046296
        k(   74) = (  -0.0000000  -0.5000000  -0.5000000), wk =   0.0023148
        k(   75) = (   0.0833333   0.0000000   0.0000000), wk =   0.0023148
        k(   76) = (   0.0833333   0.0000000   0.1666667), wk =   0.0046296
        k(   77) = (   0.0833333   0.0000000   0.2500000), wk =   0.0046296
        k(   78) = (   0.0833333   0.0000000   0.3333333), wk =   0.0046296
        k(   79) = (   0.0833333   0.0000000   0.4166667), wk =   0.0046296
        k(   80) = (   0.0833333   0.0000000  -0.5000000), wk =   0.0046296
        k(   81) = (   0.0833333   0.0000000  -0.4166667), wk =   0.0046296
        k(   82) = (   0.0833333   0.0000000  -0.3333333), wk =   0.0046296
        k(   83) = (   0.0833333   0.0000000  -0.2500000), wk =   0.0046296
        k(   84) = (   0.0833333   0.0000000  -0.1666667), wk =   0.0046296
        k(   85) = (   0.0833333  -0.0000000  -0.0833333), wk =   0.0046296
        k(   86) = (   0.0833333   0.0833333   0.0000000), wk =   0.0023148
        k(   87) = (   0.0833333   0.0833333   0.1666667), wk =   0.0023148
        k(   88) = (   0.0833333   0.0833333   0.2500000), wk =   0.0046296
        k(   89) = (   0.0833333   0.0833333   0.3333333), wk =   0.0046296
        k(   90) = (   0.0833333   0.0833333   0.4166667), wk =   0.0046296
        k(   91) = (   0.0833333   0.0833333  -0.5000000), wk =   0.0046296
        k(   92) = (   0.0833333   0.0833333  -0.4166667), wk =   0.0046296
        k(   93) = (   0.0833333   0.0833333  -0.3333333), wk =   0.0046296
        k(   94) = (   0.0833333   0.0833333  -0.2500000), wk =   0.0046296
        k(   95) = (   0.0833333   0.0833333  -0.1666667), wk =   0.0046296
        k(   96) = (   0.0833333   0.0833333  -0.0833333), wk =   0.0046296
        k(   97) = (   0.0833333   0.1666667   0.0000000), wk =   0.0023148
        k(   98) = (   0.0833333   0.1666667   0.2500000), wk =   0.0046296
        k(   99) = (   0.0833333   0.1666667   0.3333333), wk =   0.0046296
        k(  100) = (   0.0833333   0.1666667   0.4166667), wk =   0.0046296
        k(  101) = (   0.0833333   0.1666667  -0.5000000), wk =   0.0046296
        k(  102) = (   0.0833333   0.1666667  -0.4166667), wk =   0.0046296
        k(  103) = (   0.0833333   0.1666667  -0.3333333), wk =   0.0046296
        k(  104) = (   0.0833333   0.1666667  -0.2500000), wk =   0.0046296
        k(  105) = (   0.0833333   0.1666667  -0.1666667), wk =   0.0046296
        k(  106) = (   0.0833333   0.1666667  -0.0833333), wk =   0.0046296
        k(  107) = (   0.0833333   0.2500000   0.0000000), wk =   0.0023148
        k(  108) = (   0.0833333   0.2500000   0.1666667), wk =   0.0046296
        k(  109) = (   0.0833333   0.2500000   0.2500000), wk =   0.0046296
        k(  110) = (   0.0833333   0.2500000   0.3333333), wk =   0.0046296
        k(  111) = (   0.0833333   0.2500000   0.4166667), wk =   0.0046296
        k(  112) = (   0.0833333   0.2500000  -0.5000000), wk =   0.0046296
        k(  113) = (   0.0833333   0.2500000  -0.4166667), wk =   0.0046296
        k(  114) = (   0.0833333   0.2500000  -0.3333333), wk =   0.0046296
        k(  115) = (   0.0833333   0.2500000  -0.2500000), wk =   0.0046296
        k(  116) = (   0.0833333   0.2500000  -0.1666667), wk =   0.0046296
        k(  117) = (   0.0833333   0.2500000  -0.0833333), wk =   0.0046296
        k(  118) = (   0.0833333   0.3333333   0.0000000), wk =   0.0023148
        k(  119) = (   0.0833333   0.3333333   0.1666667), wk =   0.0046296
        k(  120) = (   0.0833333   0.3333333   0.2500000), wk =   0.0046296
        k(  121) = (   0.0833333   0.3333333   0.3333333), wk =   0.0046296
        k(  122) = (   0.0833333   0.3333333   0.4166667), wk =   0.0046296
        k(  123) = (   0.0833333   0.3333333  -0.5000000), wk =   0.0046296
        k(  124) = (   0.0833333   0.3333333  -0.4166667), wk =   0.0046296
        k(  125) = (   0.0833333   0.3333333  -0.3333333), wk =   0.0046296
        k(  126) = (   0.0833333   0.3333333  -0.2500000), wk =   0.0046296
        k(  127) = (   0.0833333   0.3333333  -0.1666667), wk =   0.0046296
        k(  128) = (   0.0833333   0.3333333  -0.0833333), wk =   0.0046296
        k(  129) = (   0.0833333   0.4166667   0.0000000), wk =   0.0023148
        k(  130) = (   0.0833333   0.4166667   0.1666667), wk =   0.0046296
        k(  131) = (   0.0833333   0.4166667   0.2500000), wk =   0.0046296
        k(  132) = (   0.0833333   0.4166667   0.3333333), wk =   0.0046296
        k(  133) = (   0.0833333   0.4166667   0.4166667), wk =   0.0046296
        k(  134) = (   0.0833333   0.4166667  -0.5000000), wk =   0.0046296
        k(  135) = (   0.0833333   0.4166667  -0.4166667), wk =   0.0046296
        k(  136) = (   0.0833333   0.4166667  -0.3333333), wk =   0.0046296
        k(  137) = (   0.0833333   0.4166667  -0.2500000), wk =   0.0046296
        k(  138) = (   0.0833333   0.4166667  -0.1666667), wk =   0.0046296
        k(  139) = (   0.0833333   0.4166667  -0.0833333), wk =   0.0046296
        k(  140) = (   0.0833333  -0.5000000   0.0000000), wk =   0.0023148
        k(  141) = (   0.0833333  -0.5000000   0.1666667), wk =   0.0046296
        k(  142) = (   0.0833333  -0.5000000   0.2500000), wk =   0.0046296
        k(  143) = (   0.0833333  -0.5000000   0.3333333), wk =   0.0046296
        k(  144) = (   0.0833333  -0.5000000   0.4166667), wk =   0.0046296
        k(  145) = (   0.0833333  -0.5000000  -0.5000000), wk =   0.0046296
        k(  146) = (   0.0833333  -0.5000000  -0.4166667), wk =   0.0046296
        k(  147) = (   0.0833333  -0.5000000  -0.3333333), wk =   0.0046296
        k(  148) = (   0.0833333  -0.5000000  -0.2500000), wk =   0.0046296
        k(  149) = (   0.0833333  -0.5000000  -0.1666667), wk =   0.0046296
        k(  150) = (   0.0833333  -0.5000000  -0.0833333), wk =   0.0046296
        k(  151) = (   0.0833333  -0.4166667   0.0000000), wk =   0.0023148
        k(  152) = (   0.0833333  -0.4166667   0.1666667), wk =   0.0023148
        k(  153) = (   0.0833333  -0.4166667   0.2500000), wk =   0.0046296
        k(  154) = (   0.0833333  -0.4166667   0.3333333), wk =   0.0046296
        k(  155) = (   0.0833333  -0.4166667   0.4166667), wk =   0.0046296
        k(  156) = (   0.0833333  -0.4166667  -0.5000000), wk =   0.0046296
        k(  157) = (   0.0833333  -0.4166667  -0.4166667), wk =   0.0046296
        k(  158) = (   0.0833333  -0.4166667  -0.3333333), wk =   0.0046296
        k(  159) = (   0.0833333  -0.4166667  -0.2500000), wk =   0.0046296
        k(  160) = (   0.0833333  -0.4166667  -0.1666667), wk =   0.0046296
        k(  161) = (   0.0833333  -0.4166667  -0.0833333), wk =   0.0046296
        k(  162) = (   0.0833333  -0.3333333   0.0000000), wk =   0.0023148
        k(  163) = (   0.0833333  -0.3333333   0.2500000), wk =   0.0046296
        k(  164) = (   0.0833333  -0.3333333   0.3333333), wk =   0.0046296
        k(  165) = (   0.0833333  -0.3333333   0.4166667), wk =   0.0046296
        k(  166) = (   0.0833333  -0.3333333  -0.5000000), wk =   0.0046296
        k(  167) = (   0.0833333  -0.3333333  -0.4166667), wk =   0.0046296
        k(  168) = (   0.0833333  -0.3333333  -0.3333333), wk =   0.0046296
        k(  169) = (   0.0833333  -0.3333333  -0.2500000), wk =   0.0046296
        k(  170) = (   0.0833333  -0.3333333  -0.1666667), wk =   0.0046296
        k(  171) = (   0.0833333  -0.3333333  -0.0833333), wk =   0.0046296
        k(  172) = (   0.0833333  -0.2500000   0.0000000), wk =   0.0023148
        k(  173) = (   0.0833333  -0.2500000   0.2500000), wk =   0.0046296
        k(  174) = (   0.0833333  -0.2500000   0.3333333), wk =   0.0046296
        k(  175) = (   0.0833333  -0.2500000   0.4166667), wk =   0.0046296
        k(  176) = (   0.0833333  -0.2500000  -0.5000000), wk =   0.0046296
        k(  177) = (   0.0833333  -0.2500000  -0.4166667), wk =   0.0046296
        k(  178) = (   0.0833333  -0.2500000  -0.3333333), wk =   0.0046296
        k(  179) = (   0.0833333  -0.2500000  -0.2500000), wk =   0.0046296
        k(  180) = (   0.0833333  -0.2500000  -0.1666667), wk =   0.0046296
        k(  181) = (   0.0833333  -0.2500000  -0.0833333), wk =   0.0046296
        k(  182) = (   0.0833333  -0.1666667   0.0000000), wk =   0.0023148
        k(  183) = (   0.0833333  -0.1666667   0.2500000), wk =   0.0046296
        k(  184) = (   0.0833333  -0.1666667   0.3333333), wk =   0.0046296
        k(  185) = (   0.0833333  -0.1666667   0.4166667), wk =   0.0046296
        k(  186) = (   0.0833333  -0.1666667  -0.5000000), wk =   0.0046296
        k(  187) = (   0.0833333  -0.1666667  -0.4166667), wk =   0.0046296
        k(  188) = (   0.0833333  -0.1666667  -0.3333333), wk =   0.0046296
        k(  189) = (   0.0833333  -0.1666667  -0.2500000), wk =   0.0046296
        k(  190) = (   0.0833333  -0.1666667  -0.1666667), wk =   0.0046296
        k(  191) = (   0.0833333  -0.1666667  -0.0833333), wk =   0.0046296
        k(  192) = (   0.0833333  -0.0833333   0.0000000), wk =   0.0023148
        k(  193) = (   0.0833333  -0.0833333   0.2500000), wk =   0.0046296
        k(  194) = (   0.0833333  -0.0833333   0.3333333), wk =   0.0046296
        k(  195) = (   0.0833333  -0.0833333   0.4166667), wk =   0.0046296
        k(  196) = (   0.0833333  -0.0833333  -0.5000000), wk =   0.0046296
        k(  197) = (   0.0833333  -0.0833333  -0.4166667), wk =   0.0046296
        k(  198) = (   0.0833333  -0.0833333  -0.3333333), wk =   0.0046296
        k(  199) = (   0.0833333  -0.0833333  -0.2500000), wk =   0.0046296
        k(  200) = (   0.0833333  -0.0833333  -0.1666667), wk =   0.0046296
        k(  201) = (   0.0833333  -0.0833333  -0.0833333), wk =   0.0046296
        k(  202) = (   0.1666667   0.0000000   0.0000000), wk =   0.0023148
        k(  203) = (   0.1666667   0.0000000   0.3333333), wk =   0.0046296
        k(  204) = (   0.1666667  -0.0000000   0.4166667), wk =   0.0046296
        k(  205) = (   0.1666667   0.0000000  -0.5000000), wk =   0.0046296
        k(  206) = (   0.1666667   0.0000000  -0.4166667), wk =   0.0046296
        k(  207) = (   0.1666667   0.0000000  -0.3333333), wk =   0.0046296
        k(  208) = (   0.1666667   0.0000000  -0.2500000), wk =   0.0046296
        k(  209) = (   0.1666667   0.0000000  -0.1666667), wk =   0.0046296
        k(  210) = (   0.1666667   0.0000000  -0.0833333), wk =   0.0046296
        k(  211) = (   0.1666667   0.0833333   0.0000000), wk =   0.0023148
        k(  212) = (   0.1666667   0.0833333   0.3333333), wk =   0.0046296
        k(  213) = (   0.1666667   0.0833333   0.4166667), wk =   0.0046296
        k(  214) = (   0.1666667   0.0833333  -0.5000000), wk =   0.0046296
        k(  215) = (   0.1666667   0.0833333  -0.4166667), wk =   0.0046296
        k(  216) = (   0.1666667   0.0833333  -0.3333333), wk =   0.0046296
        k(  217) = (   0.1666667   0.0833333  -0.2500000), wk =   0.0046296
        k(  218) = (   0.1666667   0.0833333  -0.1666667), wk =   0.0046296
        k(  219) = (   0.1666667   0.0833333  -0.0833333), wk =   0.0046296
        k(  220) = (   0.1666667   0.1666667   0.0000000), wk =   0.0023148
        k(  221) = (   0.1666667   0.1666667   0.3333333), wk =   0.0023148
        k(  222) = (   0.1666667   0.1666667   0.4166667), wk =   0.0046296
        k(  223) = (   0.1666667   0.1666667  -0.5000000), wk =   0.0046296
        k(  224) = (   0.1666667   0.1666667  -0.4166667), wk =   0.0046296
        k(  225) = (   0.1666667   0.1666667  -0.3333333), wk =   0.0046296
        k(  226) = (   0.1666667   0.1666667  -0.2500000), wk =   0.0046296
        k(  227) = (   0.1666667   0.1666667  -0.1666667), wk =   0.0046296
        k(  228) = (   0.1666667   0.1666667  -0.0833333), wk =   0.0046296
        k(  229) = (   0.1666667   0.2500000   0.0000000), wk =   0.0023148
        k(  230) = (   0.1666667   0.2500000   0.4166667), wk =   0.0046296
        k(  231) = (   0.1666667   0.2500000  -0.5000000), wk =   0.0046296
        k(  232) = (   0.1666667   0.2500000  -0.4166667), wk =   0.0046296
        k(  233) = (   0.1666667   0.2500000  -0.3333333), wk =   0.0046296
        k(  234) = (   0.1666667   0.2500000  -0.2500000), wk =   0.0046296
        k(  235) = (   0.1666667   0.2500000  -0.1666667), wk =   0.0046296
        k(  236) = (   0.1666667   0.2500000  -0.0833333), wk =   0.0046296
        k(  237) = (   0.1666667   0.3333333   0.0000000), wk =   0.0023148
        k(  238) = (   0.1666667   0.3333333   0.4166667), wk =   0.0046296
        k(  239) = (   0.1666667   0.3333333  -0.5000000), wk =   0.0046296
        k(  240) = (   0.1666667   0.3333333  -0.4166667), wk =   0.0046296
        k(  241) = (   0.1666667   0.3333333  -0.3333333), wk =   0.0046296
        k(  242) = (   0.1666667   0.3333333  -0.2500000), wk =   0.0046296
        k(  243) = (   0.1666667   0.3333333  -0.1666667), wk =   0.0046296
        k(  244) = (   0.1666667   0.3333333  -0.0833333), wk =   0.0046296
        k(  245) = (   0.1666667   0.4166667   0.0000000), wk =   0.0023148
        k(  246) = (   0.1666667   0.4166667   0.3333333), wk =   0.0046296
        k(  247) = (   0.1666667   0.4166667   0.4166667), wk =   0.0046296
        k(  248) = (   0.1666667   0.4166667  -0.5000000), wk =   0.0046296
        k(  249) = (   0.1666667   0.4166667  -0.4166667), wk =   0.0046296
        k(  250) = (   0.1666667   0.4166667  -0.3333333), wk =   0.0046296
        k(  251) = (   0.1666667   0.4166667  -0.2500000), wk =   0.0046296
        k(  252) = (   0.1666667   0.4166667  -0.1666667), wk =   0.0046296
        k(  253) = (   0.1666667   0.4166667  -0.0833333), wk =   0.0046296
        k(  254) = (   0.1666667  -0.5000000   0.0000000), wk =   0.0023148
        k(  255) = (   0.1666667  -0.5000000   0.3333333), wk =   0.0046296
        k(  256) = (   0.1666667  -0.5000000   0.4166667), wk =   0.0046296
        k(  257) = (   0.1666667  -0.5000000  -0.5000000), wk =   0.0046296
        k(  258) = (   0.1666667  -0.5000000  -0.4166667), wk =   0.0046296
        k(  259) = (   0.1666667  -0.5000000  -0.3333333), wk =   0.0046296
        k(  260) = (   0.1666667  -0.5000000  -0.2500000), wk =   0.0046296
        k(  261) = (   0.1666667  -0.5000000  -0.1666667), wk =   0.0046296
        k(  262) = (   0.1666667  -0.5000000  -0.0833333), wk =   0.0046296
        k(  263) = (   0.1666667  -0.4166667   0.0000000), wk =   0.0023148
        k(  264) = (   0.1666667  -0.4166667   0.3333333), wk =   0.0046296
        k(  265) = (   0.1666667  -0.4166667   0.4166667), wk =   0.0046296
        k(  266) = (   0.1666667  -0.4166667  -0.5000000), wk =   0.0046296
        k(  267) = (   0.1666667  -0.4166667  -0.4166667), wk =   0.0046296
        k(  268) = (   0.1666667  -0.4166667  -0.3333333), wk =   0.0046296
        k(  269) = (   0.1666667  -0.4166667  -0.2500000), wk =   0.0046296
        k(  270) = (   0.1666667  -0.4166667  -0.1666667), wk =   0.0046296
        k(  271) = (   0.1666667  -0.4166667  -0.0833333), wk =   0.0046296
        k(  272) = (   0.1666667  -0.3333333   0.0000000), wk =   0.0023148
        k(  273) = (   0.1666667  -0.3333333   0.3333333), wk =   0.0023148
        k(  274) = (   0.1666667  -0.3333333   0.4166667), wk =   0.0046296
        k(  275) = (   0.1666667  -0.3333333  -0.5000000), wk =   0.0046296
        k(  276) = (   0.1666667  -0.3333333  -0.4166667), wk =   0.0046296
        k(  277) = (   0.1666667  -0.3333333  -0.3333333), wk =   0.0046296
        k(  278) = (   0.1666667  -0.3333333  -0.2500000), wk =   0.0046296
        k(  279) = (   0.1666667  -0.3333333  -0.1666667), wk =   0.0046296
        k(  280) = (   0.1666667  -0.3333333  -0.0833333), wk =   0.0046296
        k(  281) = (   0.1666667  -0.2500000   0.0000000), wk =   0.0023148
        k(  282) = (   0.1666667  -0.2500000   0.4166667), wk =   0.0046296
        k(  283) = (   0.1666667  -0.2500000  -0.5000000), wk =   0.0046296
        k(  284) = (   0.1666667  -0.2500000  -0.4166667), wk =   0.0046296
        k(  285) = (   0.1666667  -0.2500000  -0.3333333), wk =   0.0046296
        k(  286) = (   0.1666667  -0.2500000  -0.2500000), wk =   0.0046296
        k(  287) = (   0.1666667  -0.2500000  -0.1666667), wk =   0.0046296
        k(  288) = (   0.1666667  -0.2500000  -0.0833333), wk =   0.0046296
        k(  289) = (   0.1666667  -0.1666667   0.0000000), wk =   0.0023148
        k(  290) = (   0.1666667  -0.1666667   0.4166667), wk =   0.0046296
        k(  291) = (   0.1666667  -0.1666667  -0.5000000), wk =   0.0046296
        k(  292) = (   0.1666667  -0.1666667  -0.4166667), wk =   0.0046296
        k(  293) = (   0.1666667  -0.1666667  -0.3333333), wk =   0.0046296
        k(  294) = (   0.1666667  -0.1666667  -0.2500000), wk =   0.0046296
        k(  295) = (   0.1666667  -0.1666667  -0.1666667), wk =   0.0046296
        k(  296) = (   0.1666667  -0.1666667  -0.0833333), wk =   0.0046296
        k(  297) = (   0.1666667  -0.0833333   0.0000000), wk =   0.0023148
        k(  298) = (   0.1666667  -0.0833333   0.4166667), wk =   0.0046296
        k(  299) = (   0.1666667  -0.0833333  -0.5000000), wk =   0.0046296
        k(  300) = (   0.1666667  -0.0833333  -0.4166667), wk =   0.0046296
        k(  301) = (   0.1666667  -0.0833333  -0.3333333), wk =   0.0046296
        k(  302) = (   0.1666667  -0.0833333  -0.2500000), wk =   0.0046296
        k(  303) = (   0.1666667  -0.0833333  -0.1666667), wk =   0.0046296
        k(  304) = (   0.1666667  -0.0833333  -0.0833333), wk =   0.0046296
        k(  305) = (   0.2500000   0.0000000   0.0000000), wk =   0.0023148
        k(  306) = (   0.2500000   0.0000000  -0.5000000), wk =   0.0046296
        k(  307) = (   0.2500000   0.0000000  -0.4166667), wk =   0.0046296
        k(  308) = (   0.2500000   0.0000000  -0.3333333), wk =   0.0046296
        k(  309) = (   0.2500000   0.0000000  -0.2500000), wk =   0.0046296
        k(  310) = (   0.2500000   0.0000000  -0.1666667), wk =   0.0046296
        k(  311) = (   0.2500000  -0.0000000  -0.0833333), wk =   0.0046296
        k(  312) = (   0.2500000   0.0833333   0.0000000), wk =   0.0023148
        k(  313) = (   0.2500000   0.0833333  -0.5000000), wk =   0.0046296
        k(  314) = (   0.2500000   0.0833333  -0.4166667), wk =   0.0046296
        k(  315) = (   0.2500000   0.0833333  -0.3333333), wk =   0.0046296
        k(  316) = (   0.2500000   0.0833333  -0.2500000), wk =   0.0046296
        k(  317) = (   0.2500000   0.0833333  -0.1666667), wk =   0.0046296
        k(  318) = (   0.2500000   0.0833333  -0.0833333), wk =   0.0046296
        k(  319) = (   0.2500000   0.1666667   0.0000000), wk =   0.0023148
        k(  320) = (   0.2500000   0.1666667  -0.5000000), wk =   0.0046296
        k(  321) = (   0.2500000   0.1666667  -0.4166667), wk =   0.0046296
        k(  322) = (   0.2500000   0.1666667  -0.3333333), wk =   0.0046296
        k(  323) = (   0.2500000   0.1666667  -0.2500000), wk =   0.0046296
        k(  324) = (   0.2500000   0.1666667  -0.1666667), wk =   0.0046296
        k(  325) = (   0.2500000   0.1666667  -0.0833333), wk =   0.0046296
        k(  326) = (   0.2500000   0.2500000   0.0000000), wk =   0.0023148
        k(  327) = (   0.2500000   0.2500000  -0.5000000), wk =   0.0023148
        k(  328) = (   0.2500000   0.2500000  -0.4166667), wk =   0.0046296
        k(  329) = (   0.2500000   0.2500000  -0.3333333), wk =   0.0046296
        k(  330) = (   0.2500000   0.2500000  -0.2500000), wk =   0.0046296
        k(  331) = (   0.2500000   0.2500000  -0.1666667), wk =   0.0046296
        k(  332) = (   0.2500000   0.2500000  -0.0833333), wk =   0.0046296
        k(  333) = (   0.2500000   0.3333333   0.0000000), wk =   0.0023148
        k(  334) = (   0.2500000   0.3333333  -0.4166667), wk =   0.0046296
        k(  335) = (   0.2500000   0.3333333  -0.3333333), wk =   0.0046296
        k(  336) = (   0.2500000   0.3333333  -0.2500000), wk =   0.0046296
        k(  337) = (   0.2500000   0.3333333  -0.1666667), wk =   0.0046296
        k(  338) = (   0.2500000   0.3333333  -0.0833333), wk =   0.0046296
        k(  339) = (   0.2500000   0.4166667   0.0000000), wk =   0.0023148
        k(  340) = (   0.2500000   0.4166667  -0.4166667), wk =   0.0046296
        k(  341) = (   0.2500000   0.4166667  -0.3333333), wk =   0.0046296
        k(  342) = (   0.2500000   0.4166667  -0.2500000), wk =   0.0046296
        k(  343) = (   0.2500000   0.4166667  -0.1666667), wk =   0.0046296
        k(  344) = (   0.2500000   0.4166667  -0.0833333), wk =   0.0046296
        k(  345) = (   0.2500000  -0.5000000   0.0000000), wk =   0.0023148
        k(  346) = (   0.2500000  -0.5000000  -0.4166667), wk =   0.0046296
        k(  347) = (   0.2500000  -0.5000000  -0.3333333), wk =   0.0046296
        k(  348) = (   0.2500000  -0.5000000  -0.2500000), wk =   0.0046296
        k(  349) = (   0.2500000  -0.5000000  -0.1666667), wk =   0.0046296
        k(  350) = (   0.2500000  -0.5000000  -0.0833333), wk =   0.0046296
        k(  351) = (   0.2500000  -0.4166667   0.0000000), wk =   0.0023148
        k(  352) = (   0.2500000  -0.4166667  -0.5000000), wk =   0.0046296
        k(  353) = (   0.2500000  -0.4166667  -0.4166667), wk =   0.0046296
        k(  354) = (   0.2500000  -0.4166667  -0.3333333), wk =   0.0046296
        k(  355) = (   0.2500000  -0.4166667  -0.2500000), wk =   0.0046296
        k(  356) = (   0.2500000  -0.4166667  -0.1666667), wk =   0.0046296
        k(  357) = (   0.2500000  -0.4166667  -0.0833333), wk =   0.0046296
        k(  358) = (   0.2500000  -0.3333333   0.0000000), wk =   0.0023148
        k(  359) = (   0.2500000  -0.3333333  -0.5000000), wk =   0.0046296
        k(  360) = (   0.2500000  -0.3333333  -0.4166667), wk =   0.0046296
        k(  361) = (   0.2500000  -0.3333333  -0.3333333), wk =   0.0046296
        k(  362) = (   0.2500000  -0.3333333  -0.2500000), wk =   0.0046296
        k(  363) = (   0.2500000  -0.3333333  -0.1666667), wk =   0.0046296
        k(  364) = (   0.2500000  -0.3333333  -0.0833333), wk =   0.0046296
        k(  365) = (   0.2500000  -0.2500000   0.0000000), wk =   0.0023148
        k(  366) = (   0.2500000  -0.2500000  -0.5000000), wk =   0.0023148
        k(  367) = (   0.2500000  -0.2500000  -0.4166667), wk =   0.0046296
        k(  368) = (   0.2500000  -0.2500000  -0.3333333), wk =   0.0046296
        k(  369) = (   0.2500000  -0.2500000  -0.2500000), wk =   0.0046296
        k(  370) = (   0.2500000  -0.2500000  -0.1666667), wk =   0.0046296
        k(  371) = (   0.2500000  -0.2500000  -0.0833333), wk =   0.0046296
        k(  372) = (   0.2500000  -0.1666667   0.0000000), wk =   0.0023148
        k(  373) = (   0.2500000  -0.1666667  -0.4166667), wk =   0.0046296
        k(  374) = (   0.2500000  -0.1666667  -0.3333333), wk =   0.0046296
        k(  375) = (   0.2500000  -0.1666667  -0.2500000), wk =   0.0046296
        k(  376) = (   0.2500000  -0.1666667  -0.1666667), wk =   0.0046296
        k(  377) = (   0.2500000  -0.1666667  -0.0833333), wk =   0.0046296
        k(  378) = (   0.2500000  -0.0833333   0.0000000), wk =   0.0023148
        k(  379) = (   0.2500000  -0.0833333  -0.4166667), wk =   0.0046296
        k(  380) = (   0.2500000  -0.0833333  -0.3333333), wk =   0.0046296
        k(  381) = (   0.2500000  -0.0833333  -0.2500000), wk =   0.0046296
        k(  382) = (   0.2500000  -0.0833333  -0.1666667), wk =   0.0046296
        k(  383) = (   0.2500000  -0.0833333  -0.0833333), wk =   0.0046296
        k(  384) = (   0.3333333   0.0000000   0.0000000), wk =   0.0023148
        k(  385) = (   0.3333333   0.0000000  -0.3333333), wk =   0.0046296
        k(  386) = (   0.3333333   0.0000000  -0.2500000), wk =   0.0046296
        k(  387) = (   0.3333333  -0.0000000  -0.1666667), wk =   0.0046296
        k(  388) = (   0.3333333  -0.0000000  -0.0833333), wk =   0.0046296
        k(  389) = (   0.3333333   0.0833333   0.0000000), wk =   0.0023148
        k(  390) = (   0.3333333   0.0833333  -0.3333333), wk =   0.0046296
        k(  391) = (   0.3333333   0.0833333  -0.2500000), wk =   0.0046296
        k(  392) = (   0.3333333   0.0833333  -0.1666667), wk =   0.0046296
        k(  393) = (   0.3333333   0.0833333  -0.0833333), wk =   0.0046296
        k(  394) = (   0.3333333   0.1666667   0.0000000), wk =   0.0023148
        k(  395) = (   0.3333333   0.1666667  -0.3333333), wk =   0.0046296
        k(  396) = (   0.3333333   0.1666667  -0.2500000), wk =   0.0046296
        k(  397) = (   0.3333333   0.1666667  -0.1666667), wk =   0.0046296
        k(  398) = (   0.3333333   0.1666667  -0.0833333), wk =   0.0046296
        k(  399) = (   0.3333333   0.2500000   0.0000000), wk =   0.0023148
        k(  400) = (   0.3333333   0.2500000  -0.3333333), wk =   0.0046296
        k(  401) = (   0.3333333   0.2500000  -0.2500000), wk =   0.0046296
        k(  402) = (   0.3333333   0.2500000  -0.1666667), wk =   0.0046296
        k(  403) = (   0.3333333   0.2500000  -0.0833333), wk =   0.0046296
        k(  404) = (   0.3333333   0.3333333   0.0000000), wk =   0.0023148
        k(  405) = (   0.3333333   0.3333333  -0.3333333), wk =   0.0023148
        k(  406) = (   0.3333333   0.3333333  -0.2500000), wk =   0.0046296
        k(  407) = (   0.3333333   0.3333333  -0.1666667), wk =   0.0046296
        k(  408) = (   0.3333333   0.3333333  -0.0833333), wk =   0.0046296
        k(  409) = (   0.3333333   0.4166667   0.0000000), wk =   0.0023148
        k(  410) = (   0.3333333   0.4166667  -0.2500000), wk =   0.0046296
        k(  411) = (   0.3333333   0.4166667  -0.1666667), wk =   0.0046296
        k(  412) = (   0.3333333   0.4166667  -0.0833333), wk =   0.0046296
        k(  413) = (   0.3333333  -0.5000000   0.0000000), wk =   0.0023148
        k(  414) = (   0.3333333  -0.5000000  -0.2500000), wk =   0.0046296
        k(  415) = (   0.3333333  -0.5000000  -0.1666667), wk =   0.0046296
        k(  416) = (   0.3333333  -0.5000000  -0.0833333), wk =   0.0046296
        k(  417) = (   0.3333333  -0.4166667   0.0000000), wk =   0.0023148
        k(  418) = (   0.3333333  -0.4166667  -0.2500000), wk =   0.0046296
        k(  419) = (   0.3333333  -0.4166667  -0.1666667), wk =   0.0046296
        k(  420) = (   0.3333333  -0.4166667  -0.0833333), wk =   0.0046296
        k(  421) = (   0.3333333  -0.3333333   0.0000000), wk =   0.0023148
        k(  422) = (   0.3333333  -0.3333333  -0.2500000), wk =   0.0046296
        k(  423) = (   0.3333333  -0.3333333  -0.1666667), wk =   0.0046296
        k(  424) = (   0.3333333  -0.3333333  -0.0833333), wk =   0.0046296
        k(  425) = (   0.3333333  -0.2500000   0.0000000), wk =   0.0023148
        k(  426) = (   0.3333333  -0.2500000  -0.3333333), wk =   0.0046296
        k(  427) = (   0.3333333  -0.2500000  -0.2500000), wk =   0.0046296
        k(  428) = (   0.3333333  -0.2500000  -0.1666667), wk =   0.0046296
        k(  429) = (   0.3333333  -0.2500000  -0.0833333), wk =   0.0046296
        k(  430) = (   0.3333333  -0.1666667   0.0000000), wk =   0.0023148
        k(  431) = (   0.3333333  -0.1666667  -0.3333333), wk =   0.0023148
        k(  432) = (   0.3333333  -0.1666667  -0.2500000), wk =   0.0046296
        k(  433) = (   0.3333333  -0.1666667  -0.1666667), wk =   0.0046296
        k(  434) = (   0.3333333  -0.1666667  -0.0833333), wk =   0.0046296
        k(  435) = (   0.3333333  -0.0833333   0.0000000), wk =   0.0023148
        k(  436) = (   0.3333333  -0.0833333  -0.2500000), wk =   0.0046296
        k(  437) = (   0.3333333  -0.0833333  -0.1666667), wk =   0.0046296
        k(  438) = (   0.3333333  -0.0833333  -0.0833333), wk =   0.0046296
        k(  439) = (   0.4166667   0.0000000   0.0000000), wk =   0.0023148
        k(  440) = (   0.4166667   0.0000000  -0.1666667), wk =   0.0046296
        k(  441) = (   0.4166667   0.0000000  -0.0833333), wk =   0.0046296
        k(  442) = (   0.4166667   0.0833333   0.0000000), wk =   0.0023148
        k(  443) = (   0.4166667   0.0833333  -0.1666667), wk =   0.0046296
        k(  444) = (   0.4166667   0.0833333  -0.0833333), wk =   0.0046296
        k(  445) = (   0.4166667   0.1666667   0.0000000), wk =   0.0023148
        k(  446) = (   0.4166667   0.1666667  -0.1666667), wk =   0.0046296
        k(  447) = (   0.4166667   0.1666667  -0.0833333), wk =   0.0046296
        k(  448) = (   0.4166667   0.2500000   0.0000000), wk =   0.0023148
        k(  449) = (   0.4166667   0.2500000  -0.1666667), wk =   0.0046296
        k(  450) = (   0.4166667   0.2500000  -0.0833333), wk =   0.0046296
        k(  451) = (   0.4166667   0.3333333   0.0000000), wk =   0.0023148
        k(  452) = (   0.4166667   0.3333333  -0.1666667), wk =   0.0046296
        k(  453) = (   0.4166667   0.3333333  -0.0833333), wk =   0.0046296
        k(  454) = (   0.4166667   0.4166667   0.0000000), wk =   0.0023148
        k(  455) = (   0.4166667   0.4166667  -0.1666667), wk =   0.0023148
        k(  456) = (   0.4166667   0.4166667  -0.0833333), wk =   0.0046296
        k(  457) = (   0.4166667  -0.5000000   0.0000000), wk =   0.0023148
        k(  458) = (   0.4166667  -0.5000000  -0.0833333), wk =   0.0046296
        k(  459) = (   0.4166667  -0.4166667   0.0000000), wk =   0.0023148
        k(  460) = (   0.4166667  -0.4166667  -0.0833333), wk =   0.0046296
        k(  461) = (   0.4166667  -0.3333333   0.0000000), wk =   0.0023148
        k(  462) = (   0.4166667  -0.3333333  -0.0833333), wk =   0.0046296
        k(  463) = (   0.4166667  -0.2500000   0.0000000), wk =   0.0023148
        k(  464) = (   0.4166667  -0.2500000  -0.0833333), wk =   0.0046296
        k(  465) = (   0.4166667  -0.1666667   0.0000000), wk =   0.0023148
        k(  466) = (   0.4166667  -0.1666667  -0.0833333), wk =   0.0046296
        k(  467) = (   0.4166667  -0.0833333   0.0000000), wk =   0.0023148
        k(  468) = (   0.4166667  -0.0833333  -0.1666667), wk =   0.0023148
        k(  469) = (   0.4166667  -0.0833333  -0.0833333), wk =   0.0046296
        k(  470) = (  -0.5000000   0.0000000   0.0000000), wk =   0.0011574
        k(  471) = (  -0.5000000   0.0833333   0.0000000), wk =   0.0023148
        k(  472) = (  -0.5000000   0.1666667   0.0000000), wk =   0.0023148
        k(  473) = (  -0.5000000   0.2500000   0.0000000), wk =   0.0023148
        k(  474) = (  -0.5000000   0.3333333   0.0000000), wk =   0.0023148
        k(  475) = (  -0.5000000   0.4166667   0.0000000), wk =   0.0023148
        k(  476) = (  -0.5000000  -0.5000000   0.0000000), wk =   0.0011574

     Dense  grid:     3119 G-vectors     FFT dimensions: (  24,  24,  24)

     Dynamical RAM for                 wfc:       0.04 MB

     Dynamical RAM for     wfc (w. buffer):      16.99 MB

     Dynamical RAM for           str. fact:       0.05 MB

     Dynamical RAM for           local pot:       0.00 MB

     Dynamical RAM for          nlocal pot:       0.05 MB

     Dynamical RAM for                qrad:       0.23 MB

     Dynamical RAM for          rho,v,vnew:       0.46 MB

     Dynamical RAM for               rhoin:       0.15 MB

     Dynamical RAM for            rho*nmix:       0.76 MB

     Dynamical RAM for           G-vectors:       0.20 MB

     Dynamical RAM for          h,s,v(r/c):       0.03 MB

     Dynamical RAM for          <psi|beta>:       0.00 MB

     Dynamical RAM for                 psi:       0.14 MB

     Dynamical RAM for                hpsi:       0.14 MB

     Dynamical RAM for                spsi:       0.14 MB

     Dynamical RAM for      wfcinit/wfcrot:       0.07 MB

     Dynamical RAM for           addusdens:       2.90 MB

     Estimated static dynamical RAM per process >      19.52 MB

     Estimated max dynamical RAM per process >      22.42 MB

     Initial potential from superposition of free atoms

     starting charge    2.99781, renormalised to    3.00000
     Starting wfc are    4 randomized atomic wfcs +    2 random wfc

     total cpu time spent up to now is        1.7 secs

     Self-consistent Calculation

     iteration #  1     ecut=    35.00 Ry     beta= 0.70
     Davidson diagonalization with overlap
     ethr =  1.00E-02,  avg # of iterations =  4.6

     Threshold (ethr) on eigenvalues was too large:
     Diagonalizing with lowered threshold

     Davidson diagonalization with overlap
     ethr =  1.98E-04,  avg # of iterations =  1.4

     total cpu time spent up to now is       13.5 secs

     total energy              =      -6.64424086 Ry
     Harris-Foulkes estimate   =      -6.64667017 Ry
     estimated scf accuracy    <       0.00593114 Ry

     iteration #  2     ecut=    35.00 Ry     beta= 0.70
[...]

     occupation numbers 
     1.0000   0.0000   0.0000   0.0000   0.0000   0.0000

          k = 0.5774 0.2041-0.3333 (   394 PWs)   bands (ev):

     4.9913   5.2146  10.7392  11.1743  21.5217  22.0771

     occupation numbers 
     1.0000   1.0000   0.0000   0.0000   0.0000   0.0000

          k = 0.5292 0.1701-0.2500 (   392 PWs)   bands (ev):

     3.1400   7.3407  10.4704  11.8358  21.1750  22.5686

     occupation numbers 
     1.0000   1.0768   0.0000   0.0000   0.0000   0.0000

          k = 0.4811 0.1361-0.1667 (   397 PWs)   bands (ev):

     1.5091   9.4288  10.8279  13.0114  20.4451  21.8586

     occupation numbers 
     1.0000   0.0000   0.0000   0.0000   0.0000   0.0000

          k = 0.4330 0.1021-0.0833 (   390 PWs)   bands (ev):

     0.2252  10.1285  13.1553  14.5251  18.5672  21.5833

     occupation numbers 
     1.0000   0.0000   0.0000   0.0000   0.0000   0.0000

          k = 0.3849 0.1701 0.0000 (   390 PWs)   bands (ev):

    -0.2677  12.3588  14.0593  14.6548  15.9601  18.9930

     occupation numbers 
     1.0000   0.0000   0.0000   0.0000   0.0000   0.0000

          k = 0.5774 0.3062-0.3333 (   391 PWs)   bands (ev):

     4.5736   5.9360   9.1079  13.1327  18.7939  24.9217

     occupation numbers 
     1.0000   1.0000   0.0000   0.0000   0.0000   0.0000

          k = 0.5292 0.2722-0.2500 (   391 PWs)   bands (ev):

     3.9041   6.7594   9.7898  12.5279  18.1292  23.3804

     occupation numbers 
     1.0000   1.0000   0.0000   0.0000   0.0000   0.0000

          k = 0.4811 0.2381-0.1667 (   394 PWs)   bands (ev):

     2.1727   9.1933  10.8583  12.3058  17.6959  20.8265

     occupation numbers 
     1.0000   0.0000   0.0000   0.0000   0.0000   0.0000

          k = 0.4330 0.2041-0.0833 (   389 PWs)   bands (ev):

     0.7756  11.5134  12.2305  12.8227  17.0379  19.0791

     occupation numbers 
     1.0000   0.0000   0.0000   0.0000   0.0000   0.0000

          k = 0.3849 0.2722 0.0000 (   387 PWs)   bands (ev):

     0.5302  12.0646  14.0378  14.0685  14.0685  17.4335

     occupation numbers 
     1.0000   0.0000   0.0000   0.0000   0.0000   0.0000

          k = 0.5774 0.4082-0.3333 (   389 PWs)   bands (ev):

     4.4011   6.6419   8.0628  14.9305  16.7139  26.0546

     occupation numbers 
     1.0000   1.0000   0.0000   0.0000   0.0000   0.0000

          k = 0.5292 0.3742-0.2500 (   390 PWs)   bands (ev):

     4.9744   6.4694   8.1792  14.2344  15.9097  23.1680

     occupation numbers 
     1.0000   1.0000   0.0000   0.0000   0.0000   0.0000

          k = 0.4811 0.3402-0.1667 (   392 PWs)   bands (ev):

     3.1848   8.7667   9.1667  13.8585  15.4054  20.4120

     occupation numbers 
     1.0000   0.0000   0.0000   0.0000   0.0000   0.0000

          k = 0.4330 0.3062-0.0833 (   388 PWs)   bands (ev):

     1.6864  10.3877  11.4595  13.8031  15.0331  18.1689

     occupation numbers 
     1.0000   0.0000   0.0000   0.0000   0.0000   0.0000

          k = 0.3849 0.3742 0.0000 (   388 PWs)   bands (ev):

     1.6864  10.3877  11.4595  13.8031  15.0331  18.1689

     occupation numbers 
     1.0000   0.0000   0.0000   0.0000   0.0000   0.0000

          k = 0.5292 0.4763-0.2500 (   386 PWs)   bands (ev):

     5.9441   6.4765   7.3755  12.2993  17.9115  23.2187

     occupation numbers 
     1.0000   1.0000   1.0818   0.0000   0.0000   0.0000

          k = 0.4811 0.4423-0.1667 (   390 PWs)   bands (ev):

     4.5035   7.6536   8.7624  11.8415  17.2511  20.4303

     occupation numbers 
     1.0000   0.0769   0.0000   0.0000   0.0000   0.0000

          k = 0.4330 0.4082-0.0833 (   392 PWs)   bands (ev):

     2.9440   8.8359  10.8206  12.1026  16.3607  18.4647

     occupation numbers 
     1.0000   0.0000   0.0000   0.0000   0.0000   0.0000

          k = 0.3849-0.7485 0.0000 (   392 PWs)   bands (ev):

     3.1848   8.7667   9.1667  13.8585  15.4054  20.4120

     occupation numbers 
     1.0000   0.0000   0.0000   0.0000   0.0000   0.0000

          k = 0.5292-0.6464-0.2500 (   390 PWs)   bands (ev):

     5.4472   6.8649   8.6082  10.0956  20.7815  23.4738

     occupation numbers 
     1.0000   1.0000   0.0000   0.0000   0.0000   0.0000

          k = 0.4811-0.6804-0.1667 (   388 PWs)   bands (ev):

     5.7114   7.0524   8.5015   9.9736  19.5660  21.1930

     occupation numbers 
     1.0000   1.0000   0.0000   0.0000   0.0000   0.0000

          k = 0.4330-0.7144-0.0833 (   390 PWs)   bands (ev):

     4.5035   7.6536   8.7624  11.8415  17.2511  20.4303

     occupation numbers 
     1.0000   0.0769   0.0000   0.0000   0.0000   0.0000

          k = 0.3849-0.6464 0.0000 (   390 PWs)   bands (ev):

     4.9744   6.4694   8.1792  14.2344  15.9097  23.1680

     occupation numbers 
     1.0000   1.0000   0.0000   0.0000   0.0000   0.0000

          k = 0.5292-0.5443-0.2500 (   394 PWs)   bands (ev):

     4.8577   7.1071   8.5118  10.7594  21.5552  23.6110

     occupation numbers 
     1.0000   1.0003   0.0000   0.0000   0.0000   0.0000

          k = 0.4811-0.5784-0.1667 (   390 PWs)   bands (ev):

     5.4472   6.8649   8.6082  10.0956  20.7815  23.4743

     occupation numbers 
     1.0000   1.0000   0.0000   0.0000   0.0000   0.0000

          k = 0.4330-0.6124-0.0833 (   386 PWs)   bands (ev):

     5.9441   6.4765   7.3755  12.2993  17.9115  23.2188

     occupation numbers 
     1.0000   1.0000   1.0818   0.0000   0.0000   0.0000

          k = 0.3849-0.5443 0.0000 (   389 PWs)   bands (ev):

     4.4011   6.6419   8.0628  14.9304  16.7139  26.0557

     occupation numbers 
     1.0000   1.0000   0.0000   0.0000   0.0000   0.0000

          k = 0.5292-0.4423-0.2500 (   391 PWs)   bands (ev):

     4.5736   5.9360   9.1079  13.1327  18.7939  24.9219

     occupation numbers 
     1.0000   1.0000   0.0000   0.0000   0.0000   0.0000

          k = 0.4811-0.4763-0.1667 (   394 PWs)   bands (ev):

     4.9913   5.2146  10.7392  11.1743  21.5217  22.0771

     occupation numbers 
     1.0000   1.0000   0.0000   0.0000   0.0000   0.0000

          k = 0.4330-0.5103-0.0833 (   391 PWs)   bands (ev):

     4.5736   5.9360   9.1079  13.1327  18.7939  24.9217

     occupation numbers 
     1.0000   1.0000   0.0000   0.0000   0.0000   0.0000

          k = 0.3849-0.4423 0.0000 (   393 PWs)   bands (ev):

     2.6642   6.8738  10.0436  15.9453  17.8297  24.9274

     occupation numbers 
     1.0000   1.0000   0.0000   0.0000   0.0000   0.0000

          k = 0.5774-0.3062-0.3333 (   391 PWs)   bands (ev):

     4.5736   5.9360   9.1079  13.1327  18.7939  24.9217

     occupation numbers 
     1.0000   1.0000   0.0000   0.0000   0.0000   0.0000

          k = 0.5292-0.3402-0.2500 (   393 PWs)   bands (ev):

     4.5265   4.7488  10.4907  15.1441  16.9359  25.3783

     occupation numbers 
     1.0000   1.0000   0.0000   0.0000   0.0000   0.0000

          k = 0.4811-0.3742-0.1667 (   389 PWs)   bands (ev):

     3.6179   5.0708  12.2315  13.5877  19.2036  22.9405

     occupation numbers 
     1.0000   1.0000   0.0000   0.0000   0.0000   0.0000

          k = 0.4330-0.4082-0.0833 (   387 PWs)   bands (ev):

     2.9643   5.8222  11.6307  14.3041  19.9346  22.3564

     occupation numbers 
     1.0000   1.0000   0.0000   0.0000   0.0000   0.0000

          k = 0.3849-0.3402 0.0000 (   389 PWs)   bands (ev):

     1.2679   7.0030  12.7662  17.2749  19.2118  22.4333

     occupation numbers 
     1.0000   1.0000   0.0000   0.0000   0.0000   0.0000

          k = 0.5774-0.2041-0.3333 (   394 PWs)   bands (ev):

     4.9913   5.2146  10.7392  11.1743  21.5217  22.0772

     occupation numbers 
     1.0000   1.0000   0.0000   0.0000   0.0000   0.0000

          k = 0.5292-0.2381-0.2500 (   389 PWs)   bands (ev):

     3.6179   5.0708  12.2315  13.5877  19.2036  22.9406

     occupation numbers 
     1.0000   1.0000   0.0000   0.0000   0.0000   0.0000

          k = 0.4811-0.2722-0.1667 (   385 PWs)   bands (ev):

     2.4812   5.3697  13.8754  15.7848  17.5746  23.4621

     occupation numbers 
     1.0000   1.0000   0.0000   0.0000   0.0000   0.0000

          k = 0.4330-0.3062-0.0833 (   387 PWs)   bands (ev):

     1.6943   6.0182  14.4426  15.7910  19.9309  21.3201

     occupation numbers 
     1.0000   1.0000   0.0000   0.0000   0.0000   0.0000

          k = 0.3849-0.2381 0.0000 (   388 PWs)   bands (ev):

     0.2265   7.4342  15.7296  18.8930  20.2672  20.6581

     occupation numbers 
     1.0000   0.9942   0.0000   0.0000   0.0000   0.0000

          k = 0.5292-0.1361-0.2500 (   387 PWs)   bands (ev):

     2.9643   5.8222  11.6307  14.3041  19.9347  22.3565

     occupation numbers 
     1.0000   1.0000   0.0000   0.0000   0.0000   0.0000

          k = 0.4811-0.1701-0.1667 (   387 PWs)   bands (ev):

     1.6943   6.0182  14.4426  15.7910  19.9309  21.3201

     occupation numbers 
     1.0000   1.0000   0.0000   0.0000   0.0000   0.0000

          k = 0.4330-0.2041-0.0833 (   383 PWs)   bands (ev):

     0.7789   6.5556  16.8510  17.5435  18.4695  21.9632

     occupation numbers 
     1.0000   1.0000   0.0000   0.0000   0.0000   0.0000

          k = 0.4811-0.1701 0.0000 (   386 PWs)   bands (ev):

     1.2075   5.5523  18.4934  18.4934  19.8143  19.8146

     occupation numbers 
     1.0000   1.0000   0.0000   0.0000   0.0000   0.0000

          k = 0.5774-0.1021-0.1667 (   393 PWs)   bands (ev):

     3.1445   4.5944  13.1462  16.3728  18.2313  22.7963

     occupation numbers 
     1.0000   1.0000   0.0000   0.0000   0.0000   0.0000

          k = 0.5292-0.1361-0.0833 (   393 PWs)   bands (ev):

     1.9989   4.8963  16.0084  17.9141  19.6136  20.5118

     occupation numbers 
     1.0000   1.0000   0.0000   0.0000   0.0000   0.0000

          k = 0.4811-0.0680 0.0000 (   383 PWs)   bands (ev):

     0.7789   6.5556  16.8510  17.5435  18.4695  21.9631

     occupation numbers 
     1.0000   1.0000   0.0000   0.0000   0.0000   0.0000

          k = 0.5774-0.0000-0.1667 (   387 PWs)   bands (ev):

     2.9643   5.8222  11.6307  14.3042  19.9347  22.3563

     occupation numbers 
     1.0000   1.0000   0.0000   0.0000   0.0000   0.0000

          k = 0.5292-0.0340-0.0833 (   387 PWs)   bands (ev):

     1.6943   6.0182  14.4426  15.7910  19.9309  21.3201

     occupation numbers 
     1.0000   1.0000   0.0000   0.0000   0.0000   0.0000

          k = 0.4811 0.0340 0.0000 (   389 PWs)   bands (ev):

     0.7166   7.8936  14.9412  15.5144  17.2448  24.1588

     occupation numbers 
     1.0000   0.0000   0.0000   0.0000   0.0000   0.0000

          k = 0.5774 0.1021-0.1667 (   392 PWs)   bands (ev):

     3.1400   7.3407  10.4704  11.8358  21.1749  22.5687

     occupation numbers 
     1.0000   1.0768   0.0000   0.0000   0.0000   0.0000

          k = 0.5292 0.0680-0.0833 (   390 PWs)   bands (ev):

     1.7529   7.4687  13.0405  13.3567  18.7667  23.5262

     occupation numbers 
     1.0000   0.8672   0.0000   0.0000   0.0000   0.0000

          k = 0.4811 0.1361 0.0000 (   390 PWs)   bands (ev):

     1.0205   9.5402  12.5306  14.4981  16.1011  21.0114

     occupation numbers 
     1.0000   0.0000   0.0000   0.0000   0.0000   0.0000

          k = 0.5774 0.2041-0.1667 (   395 PWs)   bands (ev):

     3.6653   8.7334   9.4518  10.2776  19.7877  21.3727

     occupation numbers 
     1.0000   0.0000   0.0000   0.0000   0.0000   0.0000

          k = 0.5292 0.1701-0.0833 (   394 PWs)   bands (ev):

     2.1727   9.1933  10.8583  12.3058  17.6959  20.8266

     occupation numbers 
     1.0000   0.0000   0.0000   0.0000   0.0000   0.0000

          k = 0.4811 0.2381 0.0000 (   388 PWs)   bands (ev):

     1.6864  10.3877  11.4595  13.8031  15.0331  18.1689

     occupation numbers 
     1.0000   0.0000   0.0000   0.0000   0.0000   0.0000

          k = 0.5774 0.3062-0.1667 (   390 PWs)   bands (ev):

     4.5035   7.6536   8.7624  11.8415  17.2511  20.4303

     occupation numbers 
     1.0000   0.0769   0.0000   0.0000   0.0000   0.0000

          k = 0.5292 0.2722-0.0833 (   392 PWs)   bands (ev):

     2.9440   8.8359  10.8206  12.1026  16.3607  18.4647

     occupation numbers 
     1.0000   0.0000   0.0000   0.0000   0.0000   0.0000

          k = 0.4811 0.3402 0.0000 (   392 PWs)   bands (ev):

     2.7027   8.6068  13.3024  13.4294  13.4294  16.7817

     occupation numbers 
     1.0000   0.0000   0.0000   0.0000   0.0000   0.0000

          k = 0.5774 0.4082-0.1667 (   385 PWs)   bands (ev):

     5.2457   6.5760   8.6353  13.6452  15.1700  20.2080

     occupation numbers 
     1.0000   1.0000   0.0000   0.0000   0.0000   0.0000

          k = 0.5292 0.3742-0.0833 (   391 PWs)   bands (ev):

     4.0283   7.1955  10.9919  13.3768  14.5643  17.7427

     occupation numbers 
     1.0000   1.0059   0.0000   0.0000   0.0000   0.0000

          k = 0.4811-0.7825 0.0000 (   391 PWs)   bands (ev):

     4.0283   7.1955  10.9919  13.3768  14.5643  17.7427

     occupation numbers 
     1.0000   1.0059   0.0000   0.0000   0.0000   0.0000

          k = 0.5292-0.7485-0.0833 (   384 PWs)   bands (ev):

     5.0128   6.3412  10.5892  11.8760  16.1342  18.2548

     occupation numbers 
     1.0000   1.0000   0.0000   0.0000   0.0000   0.0000

          k = 0.4811-0.6804 0.0000 (   385 PWs)   bands (ev):

     5.2457   6.5760   8.6353  13.6452  15.1700  20.2080

     occupation numbers 
     1.0000   1.0000   0.0000   0.0000   0.0000   0.0000

          k = 0.5292-0.6464-0.0833 (   390 PWs)   bands (ev):

     4.5035   7.6536   8.7624  11.8415  17.2511  20.4303

     occupation numbers 
     1.0000   0.0769   0.0000   0.0000   0.0000   0.0000

          k = 0.4811-0.5784 0.0000 (   390 PWs)   bands (ev):

     4.9744   6.4694   8.1792  14.2344  15.9097  23.1680

     occupation numbers 
     1.0000   1.0000   0.0000   0.0000   0.0000   0.0000

          k = 0.5292-0.5443-0.0833 (   391 PWs)   bands (ev):

     3.9041   6.7594   9.7898  12.5279  18.1292  23.3806

     occupation numbers 
     1.0000   1.0000   0.0000   0.0000   0.0000   0.0000

          k = 0.4811-0.4763 0.0000 (   393 PWs)   bands (ev):

     4.5265   4.7488  10.4907  15.1441  16.9359  25.3781

     occupation numbers 
     1.0000   1.0000   0.0000   0.0000   0.0000   0.0000

          k = 0.5292-0.4423-0.0833 (   389 PWs)   bands (ev):

     3.6179   5.0708  12.2315  13.5877  19.2036  22.9404

     occupation numbers 
     1.0000   1.0000   0.0000   0.0000   0.0000   0.0000

          k = 0.4811-0.3742 0.0000 (   393 PWs)   bands (ev):

     3.1445   4.5944  13.1462  16.3728  18.2313  22.7964

     occupation numbers 
     1.0000   1.0000   0.0000   0.0000   0.0000   0.0000

          k = 0.5292-0.3402-0.0833 (   390 PWs)   bands (ev):

     3.5922   3.7944  14.8472  15.0544  20.2700  20.6757

     occupation numbers 
     1.0000   1.0000   0.0000   0.0000   0.0000   0.0000

          k = 0.4811-0.2722 0.0000 (   393 PWs)   bands (ev):

     1.9989   4.8963  16.0084  17.9141  19.6133  20.5112

     occupation numbers 
     1.0000   1.0000   0.0000   0.0000   0.0000   0.0000

          k = 0.5774-0.2041-0.1667 (   390 PWs)   bands (ev):

     3.5922   3.7944  14.8472  15.0544  20.2699  20.6757

     occupation numbers 
     1.0000   1.0000   0.0000   0.0000   0.0000   0.0000

          k = 0.5292-0.2381-0.0833 (   389 PWs)   bands (ev):

     2.6632   4.1226  16.6150  17.2268  18.8799  21.0840

     occupation numbers 
     1.0000   1.0000   0.0000   0.0000   0.0000   0.0000

          k =-0.5774 0.2041 0.0000 (   392 PWs)   bands (ev):

     3.1221   3.3072  18.8346  18.8346  19.1617  19.1618

     occupation numbers 
     1.0000   1.0000   0.0000   0.0000   0.0000   0.0000

          k =-0.5774 0.3062 0.0000 (   389 PWs)   bands (ev):

     2.6632   4.1226  16.6150  17.2268  18.8799  21.0840

     occupation numbers 
     1.0000   1.0000   0.0000   0.0000   0.0000   0.0000

          k =-0.5774 0.4082 0.0000 (   385 PWs)   bands (ev):

     2.4812   5.3697  13.8754  15.7848  17.5746  23.4622

     occupation numbers 
     1.0000   1.0000   0.0000   0.0000   0.0000   0.0000

          k =-0.5774 0.5103 0.0000 (   390 PWs)   bands (ev):

     2.6571   6.9511  11.3348  14.6613  16.3676  23.5260

     occupation numbers 
     1.0000   1.0000   0.0000   0.0000   0.0000   0.0000

          k =-0.5774 0.6124 0.0000 (   392 PWs)   bands (ev):

     3.1848   8.7667   9.1667  13.8585  15.4054  20.4120

     occupation numbers 
     1.0000   0.0000   0.0000   0.0000   0.0000   0.0000

          k =-0.5774 0.7144 0.0000 (   391 PWs)   bands (ev):

     4.0283   7.1955  10.9919  13.3768  14.5643  17.7427

     occupation numbers 
     1.0000   1.0059   0.0000   0.0000   0.0000   0.0000

          k =-0.5774-0.4082 0.0000 (   388 PWs)   bands (ev):

     4.7798   6.0994  13.0566  13.2162  13.2162  16.5586

     occupation numbers 
     1.0000   1.0000   0.0000   0.0000   0.0000   0.0000

     the Fermi energy is     7.5575 ev

!    total energy              =      -6.64431071 Ry
     Harris-Foulkes estimate   =      -6.64431103 Ry
     estimated scf accuracy    <       0.00000127 Ry

     The total energy is the sum of the following terms:

     one-electron contribution =       2.98287622 Ry
     hartree contribution      =       0.00859518 Ry
     xc contribution           =      -4.22954657 Ry
     ewald contribution        =      -5.40634338 Ry
     smearing contrib. (-TS)   =       0.00010785 Ry

     convergence has been achieved in   3 iterations
 
     init_run     :     13.48s CPU      1.66s WALL (       1 calls)
     electrons    :    342.71s CPU     19.97s WALL (       1 calls)

     Called by init_run:
     wfcinit      :     13.15s CPU      1.47s WALL (       1 calls)
     wfcinit:atom :      0.26s CPU      0.03s WALL (     476 calls)
     wfcinit:wfcr :     12.24s CPU      1.37s WALL (     476 calls)
     potinit      :      0.02s CPU      0.01s WALL (       1 calls)

     Called by electrons:
     c_bands      :    314.15s CPU     17.26s WALL (       4 calls)
     sum_band     :     28.19s CPU      2.69s WALL (       4 calls)
     v_of_rho     :      0.03s CPU      0.00s WALL (       4 calls)
     v_h          :      0.01s CPU      0.00s WALL (       4 calls)
     v_xc         :      0.02s CPU      0.00s WALL (       4 calls)
     newd         :      0.21s CPU      0.02s WALL (       4 calls)
     mix_rho      :      0.01s CPU      0.00s WALL (       4 calls)

     Called by c_bands:
     init_us_2    :      5.92s CPU      0.43s WALL (    4284 calls)
     cegterg      :    298.59s CPU     16.37s WALL (    1904 calls)

     Called by sum_band:
     sum_band:bec :      0.22s CPU      0.02s WALL (    1904 calls)
     addusdens    :      0.10s CPU      0.01s WALL (       4 calls)

     Called by *egterg:
     h_psi        :    268.66s CPU     15.36s WALL (    6543 calls)
     s_psi        :      2.36s CPU      0.14s WALL (    6543 calls)
     g_psi        :      1.74s CPU      0.10s WALL (    4163 calls)
     cdiaghg      :     10.34s CPU      0.58s WALL (    5591 calls)
     cegterg:over :      4.46s CPU      0.25s WALL (    4163 calls)
     cegterg:upda :      2.99s CPU      0.17s WALL (    4163 calls)
     cegterg:last :      1.90s CPU      0.10s WALL (    2153 calls)

     Called by h_psi:
     h_psi:pot    :    265.63s CPU     15.18s WALL (    6543 calls)
     h_psi:calbec :      6.71s CPU      0.38s WALL (    6543 calls)
     vloc_psi     :    251.45s CPU     14.38s WALL (    6543 calls)
     add_vuspsi   :      2.73s CPU      0.16s WALL (    6543 calls)

     General routines
     calbec       :      5.01s CPU      0.32s WALL (    8447 calls)
     fft          :      0.03s CPU      0.01s WALL (      26 calls)
     fftw         :    231.69s CPU     14.09s WALL (   76348 calls)
 
     Parallel routines
 
     PWSCF        :  5m56.30s CPU     0m21.68s WALL

 
   This run was terminated on:  12:23:58  24Jan2019            

=------------------------------------------------------------------------------=
   JOB DONE.
=------------------------------------------------------------------------------=
