
     Program PWSCF v.6.2 (svn rev. 14038) starts on 24Jan2019 at 17:26:25 

     This program is part of the open-source Quantum ESPRESSO suite
     for quantum simulation of materials; please cite
         "P. Giannozzi et al., J. Phys.:Condens. Matter 21 395502 (2009);
         "P. Giannozzi et al., J. Phys.:Condens. Matter 29 465901 (2017);
          URL http://www.quantum-espresso.org", 
     in publications or presentations arising from this work. More details at
     http://www.quantum-espresso.org/quote

     Parallel version (MPI), running on     1 processors

     MPI processes distributed on     1 nodes
     Reading input from ./AlfccSEPNEG0DOT0924925954147745.in
Warning: card &IONS ignored
Warning: card / ignored
Warning: card &CELL ignored
Warning: card / ignored

     Current dimensions of program PWSCF are:
     Max number of different atomic species (ntypx) = 10
     Max number of k-points (npk) =  40000
     Max angular momentum in pseudopotentials (lmaxx) =  3
     Message from routine iosys:
     minimal I/O required, wf_collect reset to FALSE

     Subspace diagonalization in iterative solution of the eigenvalue problem:
     a serial algorithm will be used

     Found symmetry operation: I + ( -0.5000 -0.5000  0.0000)
     This is a supercell, fractional translations are disabled
 
     G-vector sticks info
     --------------------
     sticks:   dense  smooth     PW     G-vecs:    dense   smooth      PW
     Sum         465     465    145                 6807     6807    1269
 


     bravais-lattice index     =            0
     lattice parameter (alat)  =       7.6325  a.u.
     unit-cell volume          =     403.5021 (a.u.)^3
     number of atoms/cell      =            4
     number of atomic types    =            1
     number of electrons       =        12.00
     number of Kohn-Sham states=           10
     kinetic-energy cutoff     =      25.0000  Ry
     charge density cutoff     =     100.0000  Ry
     convergence threshold     =      1.0E-07
     mixing beta               =       0.7000
     number of iterations used =            8  plain     mixing
     Exchange-correlation      = SLA  PW   PBE  PBE ( 1  4  3  4 0 0)

     celldm(1)=   7.632472  celldm(2)=   0.000000  celldm(3)=   0.000000
     celldm(4)=   0.000000  celldm(5)=   0.000000  celldm(6)=   0.000000

     crystal axes: (cart. coord. in units of alat)
               a(1) = (   1.000000   0.000000   0.000000 )  
               a(2) = (   0.000000   1.000000   0.000000 )  
               a(3) = (   0.000000   0.000000   0.907507 )  

     reciprocal axes: (cart. coord. in units 2 pi/alat)
               b(1) = (  1.000000  0.000000  0.000000 )  
               b(2) = (  0.000000  1.000000  0.000000 )  
               b(3) = (  0.000000  0.000000  1.101919 )  


     PseudoPot. # 1 for Al read from file:
     ./al_pbe_v1.uspp.F.UPF
     MD5 check sum: 0a6289f5291fc8f409219462bc851e1f
     Pseudo is Ultrasoft + core correction, Zval =  3.0
     Generated by new atomic code, or converted to UPF format
     Using radial grid of  893 points,  3 beta functions with: 
                l(1) =   0
                l(2) =   1
                l(3) =   2
     Q(r) pseudized with  8 coefficients,  rinner =    0.900   0.900   0.900
                                                       0.900   0.900

     atomic species   valence    mass     pseudopotential
        Al             3.00    26.98150     Al( 1.00)

     16 Sym. Ops., with inversion, found


                                    s                        frac. trans.

      isym =  1     identity                                     

 cryst.   s( 1) = (     1          0          0      )
                  (     0          1          0      )
                  (     0          0          1      )

 cart.    s( 1) = (  1.0000000  0.0000000  0.0000000 )
                  (  0.0000000  1.0000000  0.0000000 )
                  (  0.0000000  0.0000000  1.0000000 )


      isym =  2     180 deg rotation - cart. axis [0,0,1]        

 cryst.   s( 2) = (    -1          0          0      )
                  (     0         -1          0      )
                  (     0          0          1      )

 cart.    s( 2) = ( -1.0000000  0.0000000  0.0000000 )
                  (  0.0000000 -1.0000000  0.0000000 )
                  (  0.0000000  0.0000000  1.0000000 )


      isym =  3     180 deg rotation - cart. axis [0,1,0]        

 cryst.   s( 3) = (    -1          0          0      )
                  (     0          1          0      )
                  (     0          0         -1      )

 cart.    s( 3) = ( -1.0000000  0.0000000  0.0000000 )
                  (  0.0000000  1.0000000  0.0000000 )
                  (  0.0000000  0.0000000 -1.0000000 )


      isym =  4     180 deg rotation - cart. axis [1,0,0]        

 cryst.   s( 4) = (     1          0          0      )
                  (     0         -1          0      )
                  (     0          0         -1      )

 cart.    s( 4) = (  1.0000000  0.0000000  0.0000000 )
                  (  0.0000000 -1.0000000  0.0000000 )
                  (  0.0000000  0.0000000 -1.0000000 )


      isym =  5     180 deg rotation - cart. axis [1,1,0]        

 cryst.   s( 5) = (     0          1          0      )
                  (     1          0          0      )
                  (     0          0         -1      )

 cart.    s( 5) = (  0.0000000  1.0000000  0.0000000 )
                  (  1.0000000  0.0000000  0.0000000 )
                  (  0.0000000  0.0000000 -1.0000000 )


      isym =  6     180 deg rotation - cart. axis [1,-1,0]       

 cryst.   s( 6) = (     0         -1          0      )
                  (    -1          0          0      )
                  (     0          0         -1      )

 cart.    s( 6) = (  0.0000000 -1.0000000  0.0000000 )
                  ( -1.0000000  0.0000000  0.0000000 )
                  (  0.0000000  0.0000000 -1.0000000 )


      isym =  7      90 deg rotation - cart. axis [0,0,-1]       

 cryst.   s( 7) = (     0         -1          0      )
                  (     1          0          0      )
                  (     0          0          1      )

 cart.    s( 7) = (  0.0000000  1.0000000  0.0000000 )
                  ( -1.0000000  0.0000000  0.0000000 )
                  (  0.0000000  0.0000000  1.0000000 )


      isym =  8      90 deg rotation - cart. axis [0,0,1]        

 cryst.   s( 8) = (     0          1          0      )
                  (    -1          0          0      )
                  (     0          0          1      )

 cart.    s( 8) = (  0.0000000 -1.0000000  0.0000000 )
                  (  1.0000000  0.0000000  0.0000000 )
                  (  0.0000000  0.0000000  1.0000000 )


      isym =  9     inversion                                    

 cryst.   s( 9) = (    -1          0          0      )
                  (     0         -1          0      )
                  (     0          0         -1      )

 cart.    s( 9) = ( -1.0000000  0.0000000  0.0000000 )
                  (  0.0000000 -1.0000000  0.0000000 )
                  (  0.0000000  0.0000000 -1.0000000 )


      isym = 10     inv. 180 deg rotation - cart. axis [0,0,1]   

 cryst.   s(10) = (     1          0          0      )
                  (     0          1          0      )
                  (     0          0         -1      )

 cart.    s(10) = (  1.0000000  0.0000000  0.0000000 )
                  (  0.0000000  1.0000000  0.0000000 )
                  (  0.0000000  0.0000000 -1.0000000 )


      isym = 11     inv. 180 deg rotation - cart. axis [0,1,0]   

 cryst.   s(11) = (     1          0          0      )
                  (     0         -1          0      )
                  (     0          0          1      )

 cart.    s(11) = (  1.0000000  0.0000000  0.0000000 )
                  (  0.0000000 -1.0000000  0.0000000 )
                  (  0.0000000  0.0000000  1.0000000 )


      isym = 12     inv. 180 deg rotation - cart. axis [1,0,0]   

 cryst.   s(12) = (    -1          0          0      )
                  (     0          1          0      )
                  (     0          0          1      )

 cart.    s(12) = ( -1.0000000  0.0000000  0.0000000 )
                  (  0.0000000  1.0000000  0.0000000 )
                  (  0.0000000  0.0000000  1.0000000 )


      isym = 13     inv. 180 deg rotation - cart. axis [1,1,0]   

 cryst.   s(13) = (     0         -1          0      )
                  (    -1          0          0      )
                  (     0          0          1      )

 cart.    s(13) = (  0.0000000 -1.0000000  0.0000000 )
                  ( -1.0000000  0.0000000  0.0000000 )
                  (  0.0000000  0.0000000  1.0000000 )


      isym = 14     inv. 180 deg rotation - cart. axis [1,-1,0]  

 cryst.   s(14) = (     0          1          0      )
                  (     1          0          0      )
                  (     0          0          1      )

 cart.    s(14) = (  0.0000000  1.0000000  0.0000000 )
                  (  1.0000000  0.0000000  0.0000000 )
                  (  0.0000000  0.0000000  1.0000000 )


      isym = 15     inv.  90 deg rotation - cart. axis [0,0,-1]  

 cryst.   s(15) = (     0          1          0      )
                  (    -1          0          0      )
                  (     0          0         -1      )

 cart.    s(15) = (  0.0000000 -1.0000000  0.0000000 )
                  (  1.0000000  0.0000000  0.0000000 )
                  (  0.0000000  0.0000000 -1.0000000 )


      isym = 16     inv.  90 deg rotation - cart. axis [0,0,1]   

 cryst.   s(16) = (     0         -1          0      )
                  (     1          0          0      )
                  (     0          0         -1      )

 cart.    s(16) = (  0.0000000  1.0000000  0.0000000 )
                  ( -1.0000000  0.0000000  0.0000000 )
                  (  0.0000000  0.0000000 -1.0000000 )


   Cartesian axes

     site n.     atom                  positions (alat units)
         1           Al  tau(   1) = (   0.0000000   0.0000000   0.0000000  )
         2           Al  tau(   2) = (   0.5000000   0.5000000   0.0000000  )
         3           Al  tau(   3) = (   0.5000000   0.0000000   0.4537537  )
         4           Al  tau(   4) = (   0.0000000   0.5000000   0.4537537  )

   Crystallographic axes

     site n.     atom                  positions (cryst. coord.)
         1           Al  tau(   1) = (  0.0000000  0.0000000  0.0000000  )
         2           Al  tau(   2) = (  0.5000000  0.5000000  0.0000000  )
         3           Al  tau(   3) = (  0.5000000  0.0000000  0.5000000  )
         4           Al  tau(   4) = (  0.0000000  0.5000000  0.5000000  )

     number of k points=   550  Marzari-Vanderbilt smearing, width (Ry)=  0.0100
                       cart. coord. in units 2pi/alat
        k(    1) = (   0.0000000   0.0000000   0.0000000), wk =   0.0003249
        k(    2) = (   0.0000000   0.0000000   0.0579958), wk =   0.0006498
        k(    3) = (   0.0000000   0.0000000   0.1159915), wk =   0.0006498
        k(    4) = (   0.0000000   0.0000000   0.1739873), wk =   0.0006498
        k(    5) = (   0.0000000   0.0000000   0.2319830), wk =   0.0006498
        k(    6) = (   0.0000000   0.0000000   0.2899788), wk =   0.0006498
        k(    7) = (   0.0000000   0.0000000   0.3479745), wk =   0.0006498
        k(    8) = (   0.0000000   0.0000000   0.4059703), wk =   0.0006498
        k(    9) = (   0.0000000   0.0000000   0.4639660), wk =   0.0006498
        k(   10) = (   0.0000000   0.0000000   0.5219618), wk =   0.0006498
        k(   11) = (   0.0000000   0.0555556   0.0000000), wk =   0.0012995
        k(   12) = (   0.0000000   0.0555556   0.0579958), wk =   0.0025991
        k(   13) = (   0.0000000   0.0555556   0.1159915), wk =   0.0025991
        k(   14) = (   0.0000000   0.0555556   0.1739873), wk =   0.0025991
        k(   15) = (   0.0000000   0.0555556   0.2319830), wk =   0.0025991
        k(   16) = (   0.0000000   0.0555556   0.2899788), wk =   0.0025991
        k(   17) = (   0.0000000   0.0555556   0.3479745), wk =   0.0025991
        k(   18) = (   0.0000000   0.0555556   0.4059703), wk =   0.0025991
        k(   19) = (   0.0000000   0.0555556   0.4639660), wk =   0.0025991
        k(   20) = (   0.0000000   0.0555556   0.5219618), wk =   0.0025991
        k(   21) = (   0.0000000   0.1111111   0.0000000), wk =   0.0012995
        k(   22) = (   0.0000000   0.1111111   0.0579958), wk =   0.0025991
        k(   23) = (   0.0000000   0.1111111   0.1159915), wk =   0.0025991
        k(   24) = (   0.0000000   0.1111111   0.1739873), wk =   0.0025991
        k(   25) = (   0.0000000   0.1111111   0.2319830), wk =   0.0025991
        k(   26) = (   0.0000000   0.1111111   0.2899788), wk =   0.0025991
        k(   27) = (   0.0000000   0.1111111   0.3479745), wk =   0.0025991
        k(   28) = (   0.0000000   0.1111111   0.4059703), wk =   0.0025991
        k(   29) = (   0.0000000   0.1111111   0.4639660), wk =   0.0025991
        k(   30) = (   0.0000000   0.1111111   0.5219618), wk =   0.0025991
        k(   31) = (   0.0000000   0.1666667   0.0000000), wk =   0.0012995
        k(   32) = (   0.0000000   0.1666667   0.0579958), wk =   0.0025991
        k(   33) = (   0.0000000   0.1666667   0.1159915), wk =   0.0025991
        k(   34) = (   0.0000000   0.1666667   0.1739873), wk =   0.0025991
        k(   35) = (   0.0000000   0.1666667   0.2319830), wk =   0.0025991
        k(   36) = (   0.0000000   0.1666667   0.2899788), wk =   0.0025991
        k(   37) = (   0.0000000   0.1666667   0.3479745), wk =   0.0025991
        k(   38) = (   0.0000000   0.1666667   0.4059703), wk =   0.0025991
        k(   39) = (   0.0000000   0.1666667   0.4639660), wk =   0.0025991
        k(   40) = (   0.0000000   0.1666667   0.5219618), wk =   0.0025991
        k(   41) = (   0.0000000   0.2222222   0.0000000), wk =   0.0012995
        k(   42) = (   0.0000000   0.2222222   0.0579958), wk =   0.0025991
        k(   43) = (   0.0000000   0.2222222   0.1159915), wk =   0.0025991
        k(   44) = (   0.0000000   0.2222222   0.1739873), wk =   0.0025991
        k(   45) = (   0.0000000   0.2222222   0.2319830), wk =   0.0025991
        k(   46) = (   0.0000000   0.2222222   0.2899788), wk =   0.0025991
        k(   47) = (   0.0000000   0.2222222   0.3479745), wk =   0.0025991
        k(   48) = (   0.0000000   0.2222222   0.4059703), wk =   0.0025991
        k(   49) = (   0.0000000   0.2222222   0.4639660), wk =   0.0025991
        k(   50) = (   0.0000000   0.2222222   0.5219618), wk =   0.0025991
        k(   51) = (   0.0000000   0.2777778   0.0000000), wk =   0.0012995
        k(   52) = (   0.0000000   0.2777778   0.0579958), wk =   0.0025991
        k(   53) = (   0.0000000   0.2777778   0.1159915), wk =   0.0025991
        k(   54) = (   0.0000000   0.2777778   0.1739873), wk =   0.0025991
        k(   55) = (   0.0000000   0.2777778   0.2319830), wk =   0.0025991
        k(   56) = (   0.0000000   0.2777778   0.2899788), wk =   0.0025991
        k(   57) = (   0.0000000   0.2777778   0.3479745), wk =   0.0025991
        k(   58) = (   0.0000000   0.2777778   0.4059703), wk =   0.0025991
        k(   59) = (   0.0000000   0.2777778   0.4639660), wk =   0.0025991
        k(   60) = (   0.0000000   0.2777778   0.5219618), wk =   0.0025991
        k(   61) = (   0.0000000   0.3333333   0.0000000), wk =   0.0012995
        k(   62) = (   0.0000000   0.3333333   0.0579958), wk =   0.0025991
        k(   63) = (   0.0000000   0.3333333   0.1159915), wk =   0.0025991
        k(   64) = (   0.0000000   0.3333333   0.1739873), wk =   0.0025991
        k(   65) = (   0.0000000   0.3333333   0.2319830), wk =   0.0025991
        k(   66) = (   0.0000000   0.3333333   0.2899788), wk =   0.0025991
        k(   67) = (   0.0000000   0.3333333   0.3479745), wk =   0.0025991
        k(   68) = (   0.0000000   0.3333333   0.4059703), wk =   0.0025991
        k(   69) = (   0.0000000   0.3333333   0.4639660), wk =   0.0025991
        k(   70) = (   0.0000000   0.3333333   0.5219618), wk =   0.0025991
        k(   71) = (   0.0000000   0.3888889   0.0000000), wk =   0.0012995
        k(   72) = (   0.0000000   0.3888889   0.0579958), wk =   0.0025991
        k(   73) = (   0.0000000   0.3888889   0.1159915), wk =   0.0025991
        k(   74) = (   0.0000000   0.3888889   0.1739873), wk =   0.0025991
        k(   75) = (   0.0000000   0.3888889   0.2319830), wk =   0.0025991
        k(   76) = (   0.0000000   0.3888889   0.2899788), wk =   0.0025991
        k(   77) = (   0.0000000   0.3888889   0.3479745), wk =   0.0025991
        k(   78) = (   0.0000000   0.3888889   0.4059703), wk =   0.0025991
        k(   79) = (   0.0000000   0.3888889   0.4639660), wk =   0.0025991
        k(   80) = (   0.0000000   0.3888889   0.5219618), wk =   0.0025991
        k(   81) = (   0.0000000   0.4444444   0.0000000), wk =   0.0012995
        k(   82) = (   0.0000000   0.4444444   0.0579958), wk =   0.0025991
        k(   83) = (   0.0000000   0.4444444   0.1159915), wk =   0.0025991
        k(   84) = (   0.0000000   0.4444444   0.1739873), wk =   0.0025991
        k(   85) = (   0.0000000   0.4444444   0.2319830), wk =   0.0025991
        k(   86) = (   0.0000000   0.4444444   0.2899788), wk =   0.0025991
        k(   87) = (   0.0000000   0.4444444   0.3479745), wk =   0.0025991
        k(   88) = (   0.0000000   0.4444444   0.4059703), wk =   0.0025991
        k(   89) = (   0.0000000   0.4444444   0.4639660), wk =   0.0025991
        k(   90) = (   0.0000000   0.4444444   0.5219618), wk =   0.0025991
        k(   91) = (   0.0000000  -0.5000000   0.0000000), wk =   0.0006498
        k(   92) = (   0.0000000  -0.5000000   0.0579958), wk =   0.0012995
        k(   93) = (   0.0000000  -0.5000000   0.1159915), wk =   0.0012995
        k(   94) = (   0.0000000  -0.5000000   0.1739873), wk =   0.0012995
        k(   95) = (   0.0000000  -0.5000000   0.2319830), wk =   0.0012995
        k(   96) = (   0.0000000  -0.5000000   0.2899788), wk =   0.0012995
        k(   97) = (   0.0000000  -0.5000000   0.3479745), wk =   0.0012995
        k(   98) = (   0.0000000  -0.5000000   0.4059703), wk =   0.0012995
        k(   99) = (   0.0000000  -0.5000000   0.4639660), wk =   0.0012995
        k(  100) = (   0.0000000  -0.5000000   0.5219618), wk =   0.0012995
        k(  101) = (   0.0555556   0.0555556   0.0000000), wk =   0.0012995
        k(  102) = (   0.0555556   0.0555556   0.0579958), wk =   0.0025991
        k(  103) = (   0.0555556   0.0555556   0.1159915), wk =   0.0025991
        k(  104) = (   0.0555556   0.0555556   0.1739873), wk =   0.0025991
        k(  105) = (   0.0555556   0.0555556   0.2319830), wk =   0.0025991
        k(  106) = (   0.0555556   0.0555556   0.2899788), wk =   0.0025991
        k(  107) = (   0.0555556   0.0555556   0.3479745), wk =   0.0025991
        k(  108) = (   0.0555556   0.0555556   0.4059703), wk =   0.0025991
        k(  109) = (   0.0555556   0.0555556   0.4639660), wk =   0.0025991
        k(  110) = (   0.0555556   0.0555556   0.5219618), wk =   0.0025991
        k(  111) = (   0.0555556   0.1111111   0.0000000), wk =   0.0025991
        k(  112) = (   0.0555556   0.1111111   0.0579958), wk =   0.0051982
        k(  113) = (   0.0555556   0.1111111   0.1159915), wk =   0.0051982
        k(  114) = (   0.0555556   0.1111111   0.1739873), wk =   0.0051982
        k(  115) = (   0.0555556   0.1111111   0.2319830), wk =   0.0051982
        k(  116) = (   0.0555556   0.1111111   0.2899788), wk =   0.0051982
        k(  117) = (   0.0555556   0.1111111   0.3479745), wk =   0.0051982
        k(  118) = (   0.0555556   0.1111111   0.4059703), wk =   0.0051982
        k(  119) = (   0.0555556   0.1111111   0.4639660), wk =   0.0051982
        k(  120) = (   0.0555556   0.1111111   0.5219618), wk =   0.0051982
        k(  121) = (   0.0555556   0.1666667   0.0000000), wk =   0.0025991
        k(  122) = (   0.0555556   0.1666667   0.0579958), wk =   0.0051982
        k(  123) = (   0.0555556   0.1666667   0.1159915), wk =   0.0051982
        k(  124) = (   0.0555556   0.1666667   0.1739873), wk =   0.0051982
        k(  125) = (   0.0555556   0.1666667   0.2319830), wk =   0.0051982
        k(  126) = (   0.0555556   0.1666667   0.2899788), wk =   0.0051982
        k(  127) = (   0.0555556   0.1666667   0.3479745), wk =   0.0051982
        k(  128) = (   0.0555556   0.1666667   0.4059703), wk =   0.0051982
        k(  129) = (   0.0555556   0.1666667   0.4639660), wk =   0.0051982
        k(  130) = (   0.0555556   0.1666667   0.5219618), wk =   0.0051982
        k(  131) = (   0.0555556   0.2222222   0.0000000), wk =   0.0025991
        k(  132) = (   0.0555556   0.2222222   0.0579958), wk =   0.0051982
        k(  133) = (   0.0555556   0.2222222   0.1159915), wk =   0.0051982
        k(  134) = (   0.0555556   0.2222222   0.1739873), wk =   0.0051982
        k(  135) = (   0.0555556   0.2222222   0.2319830), wk =   0.0051982
        k(  136) = (   0.0555556   0.2222222   0.2899788), wk =   0.0051982
        k(  137) = (   0.0555556   0.2222222   0.3479745), wk =   0.0051982
        k(  138) = (   0.0555556   0.2222222   0.4059703), wk =   0.0051982
        k(  139) = (   0.0555556   0.2222222   0.4639660), wk =   0.0051982
        k(  140) = (   0.0555556   0.2222222   0.5219618), wk =   0.0051982
        k(  141) = (   0.0555556   0.2777778   0.0000000), wk =   0.0025991
        k(  142) = (   0.0555556   0.2777778   0.0579958), wk =   0.0051982
        k(  143) = (   0.0555556   0.2777778   0.1159915), wk =   0.0051982
        k(  144) = (   0.0555556   0.2777778   0.1739873), wk =   0.0051982
        k(  145) = (   0.0555556   0.2777778   0.2319830), wk =   0.0051982
        k(  146) = (   0.0555556   0.2777778   0.2899788), wk =   0.0051982
        k(  147) = (   0.0555556   0.2777778   0.3479745), wk =   0.0051982
        k(  148) = (   0.0555556   0.2777778   0.4059703), wk =   0.0051982
        k(  149) = (   0.0555556   0.2777778   0.4639660), wk =   0.0051982
        k(  150) = (   0.0555556   0.2777778   0.5219618), wk =   0.0051982
        k(  151) = (   0.0555556   0.3333333   0.0000000), wk =   0.0025991
        k(  152) = (   0.0555556   0.3333333   0.0579958), wk =   0.0051982
        k(  153) = (   0.0555556   0.3333333   0.1159915), wk =   0.0051982
        k(  154) = (   0.0555556   0.3333333   0.1739873), wk =   0.0051982
        k(  155) = (   0.0555556   0.3333333   0.2319830), wk =   0.0051982
        k(  156) = (   0.0555556   0.3333333   0.2899788), wk =   0.0051982
        k(  157) = (   0.0555556   0.3333333   0.3479745), wk =   0.0051982
        k(  158) = (   0.0555556   0.3333333   0.4059703), wk =   0.0051982
        k(  159) = (   0.0555556   0.3333333   0.4639660), wk =   0.0051982
        k(  160) = (   0.0555556   0.3333333   0.5219618), wk =   0.0051982
        k(  161) = (   0.0555556   0.3888889   0.0000000), wk =   0.0025991
        k(  162) = (   0.0555556   0.3888889   0.0579958), wk =   0.0051982
        k(  163) = (   0.0555556   0.3888889   0.1159915), wk =   0.0051982
        k(  164) = (   0.0555556   0.3888889   0.1739873), wk =   0.0051982
        k(  165) = (   0.0555556   0.3888889   0.2319830), wk =   0.0051982
        k(  166) = (   0.0555556   0.3888889   0.2899788), wk =   0.0051982
        k(  167) = (   0.0555556   0.3888889   0.3479745), wk =   0.0051982
        k(  168) = (   0.0555556   0.3888889   0.4059703), wk =   0.0051982
        k(  169) = (   0.0555556   0.3888889   0.4639660), wk =   0.0051982
        k(  170) = (   0.0555556   0.3888889   0.5219618), wk =   0.0051982
        k(  171) = (   0.0555556   0.4444444   0.0000000), wk =   0.0025991
        k(  172) = (   0.0555556   0.4444444   0.0579958), wk =   0.0051982
        k(  173) = (   0.0555556   0.4444444   0.1159915), wk =   0.0051982
        k(  174) = (   0.0555556   0.4444444   0.1739873), wk =   0.0051982
        k(  175) = (   0.0555556   0.4444444   0.2319830), wk =   0.0051982
        k(  176) = (   0.0555556   0.4444444   0.2899788), wk =   0.0051982
        k(  177) = (   0.0555556   0.4444444   0.3479745), wk =   0.0051982
        k(  178) = (   0.0555556   0.4444444   0.4059703), wk =   0.0051982
        k(  179) = (   0.0555556   0.4444444   0.4639660), wk =   0.0051982
        k(  180) = (   0.0555556   0.4444444   0.5219618), wk =   0.0051982
        k(  181) = (   0.0555556  -0.5000000   0.0000000), wk =   0.0012995
        k(  182) = (   0.0555556  -0.5000000   0.0579958), wk =   0.0025991
        k(  183) = (   0.0555556  -0.5000000   0.1159915), wk =   0.0025991
        k(  184) = (   0.0555556  -0.5000000   0.1739873), wk =   0.0025991
        k(  185) = (   0.0555556  -0.5000000   0.2319830), wk =   0.0025991
        k(  186) = (   0.0555556  -0.5000000   0.2899788), wk =   0.0025991
        k(  187) = (   0.0555556  -0.5000000   0.3479745), wk =   0.0025991
        k(  188) = (   0.0555556  -0.5000000   0.4059703), wk =   0.0025991
        k(  189) = (   0.0555556  -0.5000000   0.4639660), wk =   0.0025991
        k(  190) = (   0.0555556  -0.5000000   0.5219618), wk =   0.0025991
        k(  191) = (   0.1111111   0.1111111   0.0000000), wk =   0.0012995
        k(  192) = (   0.1111111   0.1111111   0.0579958), wk =   0.0025991
        k(  193) = (   0.1111111   0.1111111   0.1159915), wk =   0.0025991
        k(  194) = (   0.1111111   0.1111111   0.1739873), wk =   0.0025991
        k(  195) = (   0.1111111   0.1111111   0.2319830), wk =   0.0025991
        k(  196) = (   0.1111111   0.1111111   0.2899788), wk =   0.0025991
        k(  197) = (   0.1111111   0.1111111   0.3479745), wk =   0.0025991
        k(  198) = (   0.1111111   0.1111111   0.4059703), wk =   0.0025991
        k(  199) = (   0.1111111   0.1111111   0.4639660), wk =   0.0025991
        k(  200) = (   0.1111111   0.1111111   0.5219618), wk =   0.0025991
        k(  201) = (   0.1111111   0.1666667   0.0000000), wk =   0.0025991
        k(  202) = (   0.1111111   0.1666667   0.0579958), wk =   0.0051982
        k(  203) = (   0.1111111   0.1666667   0.1159915), wk =   0.0051982
        k(  204) = (   0.1111111   0.1666667   0.1739873), wk =   0.0051982
        k(  205) = (   0.1111111   0.1666667   0.2319830), wk =   0.0051982
        k(  206) = (   0.1111111   0.1666667   0.2899788), wk =   0.0051982
        k(  207) = (   0.1111111   0.1666667   0.3479745), wk =   0.0051982
        k(  208) = (   0.1111111   0.1666667   0.4059703), wk =   0.0051982
        k(  209) = (   0.1111111   0.1666667   0.4639660), wk =   0.0051982
        k(  210) = (   0.1111111   0.1666667   0.5219618), wk =   0.0051982
        k(  211) = (   0.1111111   0.2222222   0.0000000), wk =   0.0025991
        k(  212) = (   0.1111111   0.2222222   0.0579958), wk =   0.0051982
        k(  213) = (   0.1111111   0.2222222   0.1159915), wk =   0.0051982
        k(  214) = (   0.1111111   0.2222222   0.1739873), wk =   0.0051982
        k(  215) = (   0.1111111   0.2222222   0.2319830), wk =   0.0051982
        k(  216) = (   0.1111111   0.2222222   0.2899788), wk =   0.0051982
        k(  217) = (   0.1111111   0.2222222   0.3479745), wk =   0.0051982
        k(  218) = (   0.1111111   0.2222222   0.4059703), wk =   0.0051982
        k(  219) = (   0.1111111   0.2222222   0.4639660), wk =   0.0051982
        k(  220) = (   0.1111111   0.2222222   0.5219618), wk =   0.0051982
        k(  221) = (   0.1111111   0.2777778   0.0000000), wk =   0.0025991
        k(  222) = (   0.1111111   0.2777778   0.0579958), wk =   0.0051982
        k(  223) = (   0.1111111   0.2777778   0.1159915), wk =   0.0051982
        k(  224) = (   0.1111111   0.2777778   0.1739873), wk =   0.0051982
        k(  225) = (   0.1111111   0.2777778   0.2319830), wk =   0.0051982
        k(  226) = (   0.1111111   0.2777778   0.2899788), wk =   0.0051982
        k(  227) = (   0.1111111   0.2777778   0.3479745), wk =   0.0051982
        k(  228) = (   0.1111111   0.2777778   0.4059703), wk =   0.0051982
        k(  229) = (   0.1111111   0.2777778   0.4639660), wk =   0.0051982
        k(  230) = (   0.1111111   0.2777778   0.5219618), wk =   0.0051982
        k(  231) = (   0.1111111   0.3333333   0.0000000), wk =   0.0025991
        k(  232) = (   0.1111111   0.3333333   0.0579958), wk =   0.0051982
        k(  233) = (   0.1111111   0.3333333   0.1159915), wk =   0.0051982
        k(  234) = (   0.1111111   0.3333333   0.1739873), wk =   0.0051982
        k(  235) = (   0.1111111   0.3333333   0.2319830), wk =   0.0051982
        k(  236) = (   0.1111111   0.3333333   0.2899788), wk =   0.0051982
        k(  237) = (   0.1111111   0.3333333   0.3479745), wk =   0.0051982
        k(  238) = (   0.1111111   0.3333333   0.4059703), wk =   0.0051982
        k(  239) = (   0.1111111   0.3333333   0.4639660), wk =   0.0051982
        k(  240) = (   0.1111111   0.3333333   0.5219618), wk =   0.0051982
        k(  241) = (   0.1111111   0.3888889   0.0000000), wk =   0.0025991
        k(  242) = (   0.1111111   0.3888889   0.0579958), wk =   0.0051982
        k(  243) = (   0.1111111   0.3888889   0.1159915), wk =   0.0051982
        k(  244) = (   0.1111111   0.3888889   0.1739873), wk =   0.0051982
        k(  245) = (   0.1111111   0.3888889   0.2319830), wk =   0.0051982
        k(  246) = (   0.1111111   0.3888889   0.2899788), wk =   0.0051982
        k(  247) = (   0.1111111   0.3888889   0.3479745), wk =   0.0051982
        k(  248) = (   0.1111111   0.3888889   0.4059703), wk =   0.0051982
        k(  249) = (   0.1111111   0.3888889   0.4639660), wk =   0.0051982
        k(  250) = (   0.1111111   0.3888889   0.5219618), wk =   0.0051982
        k(  251) = (   0.1111111   0.4444444   0.0000000), wk =   0.0025991
        k(  252) = (   0.1111111   0.4444444   0.0579958), wk =   0.0051982
        k(  253) = (   0.1111111   0.4444444   0.1159915), wk =   0.0051982
        k(  254) = (   0.1111111   0.4444444   0.1739873), wk =   0.0051982
        k(  255) = (   0.1111111   0.4444444   0.2319830), wk =   0.0051982
        k(  256) = (   0.1111111   0.4444444   0.2899788), wk =   0.0051982
        k(  257) = (   0.1111111   0.4444444   0.3479745), wk =   0.0051982
        k(  258) = (   0.1111111   0.4444444   0.4059703), wk =   0.0051982
        k(  259) = (   0.1111111   0.4444444   0.4639660), wk =   0.0051982
        k(  260) = (   0.1111111   0.4444444   0.5219618), wk =   0.0051982
        k(  261) = (   0.1111111  -0.5000000   0.0000000), wk =   0.0012995
        k(  262) = (   0.1111111  -0.5000000   0.0579958), wk =   0.0025991
        k(  263) = (   0.1111111  -0.5000000   0.1159915), wk =   0.0025991
        k(  264) = (   0.1111111  -0.5000000   0.1739873), wk =   0.0025991
        k(  265) = (   0.1111111  -0.5000000   0.2319830), wk =   0.0025991
        k(  266) = (   0.1111111  -0.5000000   0.2899788), wk =   0.0025991
        k(  267) = (   0.1111111  -0.5000000   0.3479745), wk =   0.0025991
        k(  268) = (   0.1111111  -0.5000000   0.4059703), wk =   0.0025991
        k(  269) = (   0.1111111  -0.5000000   0.4639660), wk =   0.0025991
        k(  270) = (   0.1111111  -0.5000000   0.5219618), wk =   0.0025991
        k(  271) = (   0.1666667   0.1666667   0.0000000), wk =   0.0012995
        k(  272) = (   0.1666667   0.1666667   0.0579958), wk =   0.0025991
        k(  273) = (   0.1666667   0.1666667   0.1159915), wk =   0.0025991
        k(  274) = (   0.1666667   0.1666667   0.1739873), wk =   0.0025991
        k(  275) = (   0.1666667   0.1666667   0.2319830), wk =   0.0025991
        k(  276) = (   0.1666667   0.1666667   0.2899788), wk =   0.0025991
        k(  277) = (   0.1666667   0.1666667   0.3479745), wk =   0.0025991
        k(  278) = (   0.1666667   0.1666667   0.4059703), wk =   0.0025991
        k(  279) = (   0.1666667   0.1666667   0.4639660), wk =   0.0025991
        k(  280) = (   0.1666667   0.1666667   0.5219618), wk =   0.0025991
        k(  281) = (   0.1666667   0.2222222   0.0000000), wk =   0.0025991
        k(  282) = (   0.1666667   0.2222222   0.0579958), wk =   0.0051982
        k(  283) = (   0.1666667   0.2222222   0.1159915), wk =   0.0051982
        k(  284) = (   0.1666667   0.2222222   0.1739873), wk =   0.0051982
        k(  285) = (   0.1666667   0.2222222   0.2319830), wk =   0.0051982
        k(  286) = (   0.1666667   0.2222222   0.2899788), wk =   0.0051982
        k(  287) = (   0.1666667   0.2222222   0.3479745), wk =   0.0051982
        k(  288) = (   0.1666667   0.2222222   0.4059703), wk =   0.0051982
        k(  289) = (   0.1666667   0.2222222   0.4639660), wk =   0.0051982
        k(  290) = (   0.1666667   0.2222222   0.5219618), wk =   0.0051982
        k(  291) = (   0.1666667   0.2777778   0.0000000), wk =   0.0025991
        k(  292) = (   0.1666667   0.2777778   0.0579958), wk =   0.0051982
        k(  293) = (   0.1666667   0.2777778   0.1159915), wk =   0.0051982
        k(  294) = (   0.1666667   0.2777778   0.1739873), wk =   0.0051982
        k(  295) = (   0.1666667   0.2777778   0.2319830), wk =   0.0051982
        k(  296) = (   0.1666667   0.2777778   0.2899788), wk =   0.0051982
        k(  297) = (   0.1666667   0.2777778   0.3479745), wk =   0.0051982
        k(  298) = (   0.1666667   0.2777778   0.4059703), wk =   0.0051982
        k(  299) = (   0.1666667   0.2777778   0.4639660), wk =   0.0051982
        k(  300) = (   0.1666667   0.2777778   0.5219618), wk =   0.0051982
        k(  301) = (   0.1666667   0.3333333   0.0000000), wk =   0.0025991
        k(  302) = (   0.1666667   0.3333333   0.0579958), wk =   0.0051982
        k(  303) = (   0.1666667   0.3333333   0.1159915), wk =   0.0051982
        k(  304) = (   0.1666667   0.3333333   0.1739873), wk =   0.0051982
        k(  305) = (   0.1666667   0.3333333   0.2319830), wk =   0.0051982
        k(  306) = (   0.1666667   0.3333333   0.2899788), wk =   0.0051982
        k(  307) = (   0.1666667   0.3333333   0.3479745), wk =   0.0051982
        k(  308) = (   0.1666667   0.3333333   0.4059703), wk =   0.0051982
        k(  309) = (   0.1666667   0.3333333   0.4639660), wk =   0.0051982
        k(  310) = (   0.1666667   0.3333333   0.5219618), wk =   0.0051982
        k(  311) = (   0.1666667   0.3888889   0.0000000), wk =   0.0025991
        k(  312) = (   0.1666667   0.3888889   0.0579958), wk =   0.0051982
        k(  313) = (   0.1666667   0.3888889   0.1159915), wk =   0.0051982
        k(  314) = (   0.1666667   0.3888889   0.1739873), wk =   0.0051982
        k(  315) = (   0.1666667   0.3888889   0.2319830), wk =   0.0051982
        k(  316) = (   0.1666667   0.3888889   0.2899788), wk =   0.0051982
        k(  317) = (   0.1666667   0.3888889   0.3479745), wk =   0.0051982
        k(  318) = (   0.1666667   0.3888889   0.4059703), wk =   0.0051982
        k(  319) = (   0.1666667   0.3888889   0.4639660), wk =   0.0051982
        k(  320) = (   0.1666667   0.3888889   0.5219618), wk =   0.0051982
        k(  321) = (   0.1666667   0.4444444   0.0000000), wk =   0.0025991
        k(  322) = (   0.1666667   0.4444444   0.0579958), wk =   0.0051982
        k(  323) = (   0.1666667   0.4444444   0.1159915), wk =   0.0051982
        k(  324) = (   0.1666667   0.4444444   0.1739873), wk =   0.0051982
        k(  325) = (   0.1666667   0.4444444   0.2319830), wk =   0.0051982
        k(  326) = (   0.1666667   0.4444444   0.2899788), wk =   0.0051982
        k(  327) = (   0.1666667   0.4444444   0.3479745), wk =   0.0051982
        k(  328) = (   0.1666667   0.4444444   0.4059703), wk =   0.0051982
        k(  329) = (   0.1666667   0.4444444   0.4639660), wk =   0.0051982
        k(  330) = (   0.1666667   0.4444444   0.5219618), wk =   0.0051982
        k(  331) = (   0.1666667  -0.5000000   0.0000000), wk =   0.0012995
        k(  332) = (   0.1666667  -0.5000000   0.0579958), wk =   0.0025991
        k(  333) = (   0.1666667  -0.5000000   0.1159915), wk =   0.0025991
        k(  334) = (   0.1666667  -0.5000000   0.1739873), wk =   0.0025991
        k(  335) = (   0.1666667  -0.5000000   0.2319830), wk =   0.0025991
        k(  336) = (   0.1666667  -0.5000000   0.2899788), wk =   0.0025991
        k(  337) = (   0.1666667  -0.5000000   0.3479745), wk =   0.0025991
        k(  338) = (   0.1666667  -0.5000000   0.4059703), wk =   0.0025991
        k(  339) = (   0.1666667  -0.5000000   0.4639660), wk =   0.0025991
        k(  340) = (   0.1666667  -0.5000000   0.5219618), wk =   0.0025991
        k(  341) = (   0.2222222   0.2222222   0.0000000), wk =   0.0012995
        k(  342) = (   0.2222222   0.2222222   0.0579958), wk =   0.0025991
        k(  343) = (   0.2222222   0.2222222   0.1159915), wk =   0.0025991
        k(  344) = (   0.2222222   0.2222222   0.1739873), wk =   0.0025991
        k(  345) = (   0.2222222   0.2222222   0.2319830), wk =   0.0025991
        k(  346) = (   0.2222222   0.2222222   0.2899788), wk =   0.0025991
        k(  347) = (   0.2222222   0.2222222   0.3479745), wk =   0.0025991
        k(  348) = (   0.2222222   0.2222222   0.4059703), wk =   0.0025991
        k(  349) = (   0.2222222   0.2222222   0.4639660), wk =   0.0025991
        k(  350) = (   0.2222222   0.2222222   0.5219618), wk =   0.0025991
        k(  351) = (   0.2222222   0.2777778   0.0000000), wk =   0.0025991
        k(  352) = (   0.2222222   0.2777778   0.0579958), wk =   0.0051982
        k(  353) = (   0.2222222   0.2777778   0.1159915), wk =   0.0051982
        k(  354) = (   0.2222222   0.2777778   0.1739873), wk =   0.0051982
        k(  355) = (   0.2222222   0.2777778   0.2319830), wk =   0.0051982
        k(  356) = (   0.2222222   0.2777778   0.2899788), wk =   0.0051982
        k(  357) = (   0.2222222   0.2777778   0.3479745), wk =   0.0051982
        k(  358) = (   0.2222222   0.2777778   0.4059703), wk =   0.0051982
        k(  359) = (   0.2222222   0.2777778   0.4639660), wk =   0.0051982
        k(  360) = (   0.2222222   0.2777778   0.5219618), wk =   0.0051982
        k(  361) = (   0.2222222   0.3333333   0.0000000), wk =   0.0025991
        k(  362) = (   0.2222222   0.3333333   0.0579958), wk =   0.0051982
        k(  363) = (   0.2222222   0.3333333   0.1159915), wk =   0.0051982
        k(  364) = (   0.2222222   0.3333333   0.1739873), wk =   0.0051982
        k(  365) = (   0.2222222   0.3333333   0.2319830), wk =   0.0051982
        k(  366) = (   0.2222222   0.3333333   0.2899788), wk =   0.0051982
        k(  367) = (   0.2222222   0.3333333   0.3479745), wk =   0.0051982
        k(  368) = (   0.2222222   0.3333333   0.4059703), wk =   0.0051982
        k(  369) = (   0.2222222   0.3333333   0.4639660), wk =   0.0051982
        k(  370) = (   0.2222222   0.3333333   0.5219618), wk =   0.0051982
        k(  371) = (   0.2222222   0.3888889   0.0000000), wk =   0.0025991
        k(  372) = (   0.2222222   0.3888889   0.0579958), wk =   0.0051982
        k(  373) = (   0.2222222   0.3888889   0.1159915), wk =   0.0051982
        k(  374) = (   0.2222222   0.3888889   0.1739873), wk =   0.0051982
        k(  375) = (   0.2222222   0.3888889   0.2319830), wk =   0.0051982
        k(  376) = (   0.2222222   0.3888889   0.2899788), wk =   0.0051982
        k(  377) = (   0.2222222   0.3888889   0.3479745), wk =   0.0051982
        k(  378) = (   0.2222222   0.3888889   0.4059703), wk =   0.0051982
        k(  379) = (   0.2222222   0.3888889   0.4639660), wk =   0.0051982
        k(  380) = (   0.2222222   0.3888889   0.5219618), wk =   0.0051982
        k(  381) = (   0.2222222   0.4444444   0.0000000), wk =   0.0025991
        k(  382) = (   0.2222222   0.4444444   0.0579958), wk =   0.0051982
        k(  383) = (   0.2222222   0.4444444   0.1159915), wk =   0.0051982
        k(  384) = (   0.2222222   0.4444444   0.1739873), wk =   0.0051982
        k(  385) = (   0.2222222   0.4444444   0.2319830), wk =   0.0051982
        k(  386) = (   0.2222222   0.4444444   0.2899788), wk =   0.0051982
        k(  387) = (   0.2222222   0.4444444   0.3479745), wk =   0.0051982
        k(  388) = (   0.2222222   0.4444444   0.4059703), wk =   0.0051982
        k(  389) = (   0.2222222   0.4444444   0.4639660), wk =   0.0051982
        k(  390) = (   0.2222222   0.4444444   0.5219618), wk =   0.0051982
        k(  391) = (   0.2222222  -0.5000000   0.0000000), wk =   0.0012995
        k(  392) = (   0.2222222  -0.5000000   0.0579958), wk =   0.0025991
        k(  393) = (   0.2222222  -0.5000000   0.1159915), wk =   0.0025991
        k(  394) = (   0.2222222  -0.5000000   0.1739873), wk =   0.0025991
        k(  395) = (   0.2222222  -0.5000000   0.2319830), wk =   0.0025991
        k(  396) = (   0.2222222  -0.5000000   0.2899788), wk =   0.0025991
        k(  397) = (   0.2222222  -0.5000000   0.3479745), wk =   0.0025991
        k(  398) = (   0.2222222  -0.5000000   0.4059703), wk =   0.0025991
        k(  399) = (   0.2222222  -0.5000000   0.4639660), wk =   0.0025991
        k(  400) = (   0.2222222  -0.5000000   0.5219618), wk =   0.0025991
        k(  401) = (   0.2777778   0.2777778   0.0000000), wk =   0.0012995
        k(  402) = (   0.2777778   0.2777778   0.0579958), wk =   0.0025991
        k(  403) = (   0.2777778   0.2777778   0.1159915), wk =   0.0025991
        k(  404) = (   0.2777778   0.2777778   0.1739873), wk =   0.0025991
        k(  405) = (   0.2777778   0.2777778   0.2319830), wk =   0.0025991
        k(  406) = (   0.2777778   0.2777778   0.2899788), wk =   0.0025991
        k(  407) = (   0.2777778   0.2777778   0.3479745), wk =   0.0025991
        k(  408) = (   0.2777778   0.2777778   0.4059703), wk =   0.0025991
        k(  409) = (   0.2777778   0.2777778   0.4639660), wk =   0.0025991
        k(  410) = (   0.2777778   0.2777778   0.5219618), wk =   0.0025991
        k(  411) = (   0.2777778   0.3333333   0.0000000), wk =   0.0025991
        k(  412) = (   0.2777778   0.3333333   0.0579958), wk =   0.0051982
        k(  413) = (   0.2777778   0.3333333   0.1159915), wk =   0.0051982
        k(  414) = (   0.2777778   0.3333333   0.1739873), wk =   0.0051982
        k(  415) = (   0.2777778   0.3333333   0.2319830), wk =   0.0051982
        k(  416) = (   0.2777778   0.3333333   0.2899788), wk =   0.0051982
        k(  417) = (   0.2777778   0.3333333   0.3479745), wk =   0.0051982
        k(  418) = (   0.2777778   0.3333333   0.4059703), wk =   0.0051982
        k(  419) = (   0.2777778   0.3333333   0.4639660), wk =   0.0051982
        k(  420) = (   0.2777778   0.3333333   0.5219618), wk =   0.0051982
        k(  421) = (   0.2777778   0.3888889   0.0000000), wk =   0.0025991
        k(  422) = (   0.2777778   0.3888889   0.0579958), wk =   0.0051982
        k(  423) = (   0.2777778   0.3888889   0.1159915), wk =   0.0051982
        k(  424) = (   0.2777778   0.3888889   0.1739873), wk =   0.0051982
        k(  425) = (   0.2777778   0.3888889   0.2319830), wk =   0.0051982
        k(  426) = (   0.2777778   0.3888889   0.2899788), wk =   0.0051982
        k(  427) = (   0.2777778   0.3888889   0.3479745), wk =   0.0051982
        k(  428) = (   0.2777778   0.3888889   0.4059703), wk =   0.0051982
        k(  429) = (   0.2777778   0.3888889   0.4639660), wk =   0.0051982
        k(  430) = (   0.2777778   0.3888889   0.5219618), wk =   0.0051982
        k(  431) = (   0.2777778   0.4444444   0.0000000), wk =   0.0025991
        k(  432) = (   0.2777778   0.4444444   0.0579958), wk =   0.0051982
        k(  433) = (   0.2777778   0.4444444   0.1159915), wk =   0.0051982
        k(  434) = (   0.2777778   0.4444444   0.1739873), wk =   0.0051982
        k(  435) = (   0.2777778   0.4444444   0.2319830), wk =   0.0051982
        k(  436) = (   0.2777778   0.4444444   0.2899788), wk =   0.0051982
        k(  437) = (   0.2777778   0.4444444   0.3479745), wk =   0.0051982
        k(  438) = (   0.2777778   0.4444444   0.4059703), wk =   0.0051982
        k(  439) = (   0.2777778   0.4444444   0.4639660), wk =   0.0051982
        k(  440) = (   0.2777778   0.4444444   0.5219618), wk =   0.0051982
        k(  441) = (   0.2777778  -0.5000000   0.0000000), wk =   0.0012995
        k(  442) = (   0.2777778  -0.5000000   0.0579958), wk =   0.0025991
        k(  443) = (   0.2777778  -0.5000000   0.1159915), wk =   0.0025991
        k(  444) = (   0.2777778  -0.5000000   0.1739873), wk =   0.0025991
        k(  445) = (   0.2777778  -0.5000000   0.2319830), wk =   0.0025991
        k(  446) = (   0.2777778  -0.5000000   0.2899788), wk =   0.0025991
        k(  447) = (   0.2777778  -0.5000000   0.3479745), wk =   0.0025991
        k(  448) = (   0.2777778  -0.5000000   0.4059703), wk =   0.0025991
        k(  449) = (   0.2777778  -0.5000000   0.4639660), wk =   0.0025991
        k(  450) = (   0.2777778  -0.5000000   0.5219618), wk =   0.0025991
        k(  451) = (   0.3333333   0.3333333   0.0000000), wk =   0.0012995
        k(  452) = (   0.3333333   0.3333333   0.0579958), wk =   0.0025991
        k(  453) = (   0.3333333   0.3333333   0.1159915), wk =   0.0025991
        k(  454) = (   0.3333333   0.3333333   0.1739873), wk =   0.0025991
        k(  455) = (   0.3333333   0.3333333   0.2319830), wk =   0.0025991
        k(  456) = (   0.3333333   0.3333333   0.2899788), wk =   0.0025991
        k(  457) = (   0.3333333   0.3333333   0.3479745), wk =   0.0025991
        k(  458) = (   0.3333333   0.3333333   0.4059703), wk =   0.0025991
        k(  459) = (   0.3333333   0.3333333   0.4639660), wk =   0.0025991
        k(  460) = (   0.3333333   0.3333333   0.5219618), wk =   0.0025991
        k(  461) = (   0.3333333   0.3888889   0.0000000), wk =   0.0025991
        k(  462) = (   0.3333333   0.3888889   0.0579958), wk =   0.0051982
        k(  463) = (   0.3333333   0.3888889   0.1159915), wk =   0.0051982
        k(  464) = (   0.3333333   0.3888889   0.1739873), wk =   0.0051982
        k(  465) = (   0.3333333   0.3888889   0.2319830), wk =   0.0051982
        k(  466) = (   0.3333333   0.3888889   0.2899788), wk =   0.0051982
        k(  467) = (   0.3333333   0.3888889   0.3479745), wk =   0.0051982
        k(  468) = (   0.3333333   0.3888889   0.4059703), wk =   0.0051982
        k(  469) = (   0.3333333   0.3888889   0.4639660), wk =   0.0051982
        k(  470) = (   0.3333333   0.3888889   0.5219618), wk =   0.0051982
        k(  471) = (   0.3333333   0.4444444   0.0000000), wk =   0.0025991
        k(  472) = (   0.3333333   0.4444444   0.0579958), wk =   0.0051982
        k(  473) = (   0.3333333   0.4444444   0.1159915), wk =   0.0051982
        k(  474) = (   0.3333333   0.4444444   0.1739873), wk =   0.0051982
        k(  475) = (   0.3333333   0.4444444   0.2319830), wk =   0.0051982
        k(  476) = (   0.3333333   0.4444444   0.2899788), wk =   0.0051982
        k(  477) = (   0.3333333   0.4444444   0.3479745), wk =   0.0051982
        k(  478) = (   0.3333333   0.4444444   0.4059703), wk =   0.0051982
        k(  479) = (   0.3333333   0.4444444   0.4639660), wk =   0.0051982
        k(  480) = (   0.3333333   0.4444444   0.5219618), wk =   0.0051982
        k(  481) = (   0.3333333  -0.5000000   0.0000000), wk =   0.0012995
        k(  482) = (   0.3333333  -0.5000000   0.0579958), wk =   0.0025991
        k(  483) = (   0.3333333  -0.5000000   0.1159915), wk =   0.0025991
        k(  484) = (   0.3333333  -0.5000000   0.1739873), wk =   0.0025991
        k(  485) = (   0.3333333  -0.5000000   0.2319830), wk =   0.0025991
        k(  486) = (   0.3333333  -0.5000000   0.2899788), wk =   0.0025991
        k(  487) = (   0.3333333  -0.5000000   0.3479745), wk =   0.0025991
        k(  488) = (   0.3333333  -0.5000000   0.4059703), wk =   0.0025991
        k(  489) = (   0.3333333  -0.5000000   0.4639660), wk =   0.0025991
        k(  490) = (   0.3333333  -0.5000000   0.5219618), wk =   0.0025991
        k(  491) = (   0.3888889   0.3888889   0.0000000), wk =   0.0012995
        k(  492) = (   0.3888889   0.3888889   0.0579958), wk =   0.0025991
        k(  493) = (   0.3888889   0.3888889   0.1159915), wk =   0.0025991
        k(  494) = (   0.3888889   0.3888889   0.1739873), wk =   0.0025991
        k(  495) = (   0.3888889   0.3888889   0.2319830), wk =   0.0025991
        k(  496) = (   0.3888889   0.3888889   0.2899788), wk =   0.0025991
        k(  497) = (   0.3888889   0.3888889   0.3479745), wk =   0.0025991
        k(  498) = (   0.3888889   0.3888889   0.4059703), wk =   0.0025991
        k(  499) = (   0.3888889   0.3888889   0.4639660), wk =   0.0025991
        k(  500) = (   0.3888889   0.3888889   0.5219618), wk =   0.0025991
        k(  501) = (   0.3888889   0.4444444   0.0000000), wk =   0.0025991
        k(  502) = (   0.3888889   0.4444444   0.0579958), wk =   0.0051982
        k(  503) = (   0.3888889   0.4444444   0.1159915), wk =   0.0051982
        k(  504) = (   0.3888889   0.4444444   0.1739873), wk =   0.0051982
        k(  505) = (   0.3888889   0.4444444   0.2319830), wk =   0.0051982
        k(  506) = (   0.3888889   0.4444444   0.2899788), wk =   0.0051982
        k(  507) = (   0.3888889   0.4444444   0.3479745), wk =   0.0051982
        k(  508) = (   0.3888889   0.4444444   0.4059703), wk =   0.0051982
        k(  509) = (   0.3888889   0.4444444   0.4639660), wk =   0.0051982
        k(  510) = (   0.3888889   0.4444444   0.5219618), wk =   0.0051982
        k(  511) = (   0.3888889  -0.5000000   0.0000000), wk =   0.0012995
        k(  512) = (   0.3888889  -0.5000000   0.0579958), wk =   0.0025991
        k(  513) = (   0.3888889  -0.5000000   0.1159915), wk =   0.0025991
        k(  514) = (   0.3888889  -0.5000000   0.1739873), wk =   0.0025991
        k(  515) = (   0.3888889  -0.5000000   0.2319830), wk =   0.0025991
        k(  516) = (   0.3888889  -0.5000000   0.2899788), wk =   0.0025991
        k(  517) = (   0.3888889  -0.5000000   0.3479745), wk =   0.0025991
        k(  518) = (   0.3888889  -0.5000000   0.4059703), wk =   0.0025991
        k(  519) = (   0.3888889  -0.5000000   0.4639660), wk =   0.0025991
        k(  520) = (   0.3888889  -0.5000000   0.5219618), wk =   0.0025991
        k(  521) = (   0.4444444   0.4444444   0.0000000), wk =   0.0012995
        k(  522) = (   0.4444444   0.4444444   0.0579958), wk =   0.0025991
        k(  523) = (   0.4444444   0.4444444   0.1159915), wk =   0.0025991
        k(  524) = (   0.4444444   0.4444444   0.1739873), wk =   0.0025991
        k(  525) = (   0.4444444   0.4444444   0.2319830), wk =   0.0025991
        k(  526) = (   0.4444444   0.4444444   0.2899788), wk =   0.0025991
        k(  527) = (   0.4444444   0.4444444   0.3479745), wk =   0.0025991
        k(  528) = (   0.4444444   0.4444444   0.4059703), wk =   0.0025991
        k(  529) = (   0.4444444   0.4444444   0.4639660), wk =   0.0025991
        k(  530) = (   0.4444444   0.4444444   0.5219618), wk =   0.0025991
        k(  531) = (   0.4444444  -0.5000000   0.0000000), wk =   0.0012995
        k(  532) = (   0.4444444  -0.5000000   0.0579958), wk =   0.0025991
        k(  533) = (   0.4444444  -0.5000000   0.1159915), wk =   0.0025991
        k(  534) = (   0.4444444  -0.5000000   0.1739873), wk =   0.0025991
        k(  535) = (   0.4444444  -0.5000000   0.2319830), wk =   0.0025991
        k(  536) = (   0.4444444  -0.5000000   0.2899788), wk =   0.0025991
        k(  537) = (   0.4444444  -0.5000000   0.3479745), wk =   0.0025991
        k(  538) = (   0.4444444  -0.5000000   0.4059703), wk =   0.0025991
        k(  539) = (   0.4444444  -0.5000000   0.4639660), wk =   0.0025991
        k(  540) = (   0.4444444  -0.5000000   0.5219618), wk =   0.0025991
        k(  541) = (  -0.5000000  -0.5000000   0.0000000), wk =   0.0003249
        k(  542) = (  -0.5000000  -0.5000000   0.0579958), wk =   0.0006498
        k(  543) = (  -0.5000000  -0.5000000   0.1159915), wk =   0.0006498
        k(  544) = (  -0.5000000  -0.5000000   0.1739873), wk =   0.0006498
        k(  545) = (  -0.5000000  -0.5000000   0.2319830), wk =   0.0006498
        k(  546) = (  -0.5000000  -0.5000000   0.2899788), wk =   0.0006498
        k(  547) = (  -0.5000000  -0.5000000   0.3479745), wk =   0.0006498
        k(  548) = (  -0.5000000  -0.5000000   0.4059703), wk =   0.0006498
        k(  549) = (  -0.5000000  -0.5000000   0.4639660), wk =   0.0006498
        k(  550) = (  -0.5000000  -0.5000000   0.5219618), wk =   0.0006498

                       cryst. coord.
        k(    1) = (   0.0000000   0.0000000   0.0000000), wk =   0.0003249
        k(    2) = (   0.0000000   0.0000000   0.0526316), wk =   0.0006498
        k(    3) = (   0.0000000   0.0000000   0.1052632), wk =   0.0006498
        k(    4) = (   0.0000000   0.0000000   0.1578947), wk =   0.0006498
        k(    5) = (   0.0000000   0.0000000   0.2105263), wk =   0.0006498
        k(    6) = (   0.0000000   0.0000000   0.2631579), wk =   0.0006498
        k(    7) = (   0.0000000   0.0000000   0.3157895), wk =   0.0006498
        k(    8) = (   0.0000000   0.0000000   0.3684211), wk =   0.0006498
        k(    9) = (   0.0000000   0.0000000   0.4210526), wk =   0.0006498
        k(   10) = (   0.0000000   0.0000000   0.4736842), wk =   0.0006498
        k(   11) = (   0.0000000   0.0555556   0.0000000), wk =   0.0012995
        k(   12) = (   0.0000000   0.0555556   0.0526316), wk =   0.0025991
        k(   13) = (   0.0000000   0.0555556   0.1052632), wk =   0.0025991
        k(   14) = (   0.0000000   0.0555556   0.1578947), wk =   0.0025991
        k(   15) = (   0.0000000   0.0555556   0.2105263), wk =   0.0025991
        k(   16) = (   0.0000000   0.0555556   0.2631579), wk =   0.0025991
        k(   17) = (   0.0000000   0.0555556   0.3157895), wk =   0.0025991
        k(   18) = (   0.0000000   0.0555556   0.3684211), wk =   0.0025991
        k(   19) = (   0.0000000   0.0555556   0.4210526), wk =   0.0025991
        k(   20) = (   0.0000000   0.0555556   0.4736842), wk =   0.0025991
        k(   21) = (   0.0000000   0.1111111   0.0000000), wk =   0.0012995
        k(   22) = (   0.0000000   0.1111111   0.0526316), wk =   0.0025991
        k(   23) = (   0.0000000   0.1111111   0.1052632), wk =   0.0025991
        k(   24) = (   0.0000000   0.1111111   0.1578947), wk =   0.0025991
        k(   25) = (   0.0000000   0.1111111   0.2105263), wk =   0.0025991
        k(   26) = (   0.0000000   0.1111111   0.2631579), wk =   0.0025991
        k(   27) = (   0.0000000   0.1111111   0.3157895), wk =   0.0025991
        k(   28) = (   0.0000000   0.1111111   0.3684211), wk =   0.0025991
        k(   29) = (   0.0000000   0.1111111   0.4210526), wk =   0.0025991
        k(   30) = (   0.0000000   0.1111111   0.4736842), wk =   0.0025991
        k(   31) = (   0.0000000   0.1666667   0.0000000), wk =   0.0012995
        k(   32) = (   0.0000000   0.1666667   0.0526316), wk =   0.0025991
        k(   33) = (   0.0000000   0.1666667   0.1052632), wk =   0.0025991
        k(   34) = (   0.0000000   0.1666667   0.1578947), wk =   0.0025991
        k(   35) = (   0.0000000   0.1666667   0.2105263), wk =   0.0025991
        k(   36) = (   0.0000000   0.1666667   0.2631579), wk =   0.0025991
        k(   37) = (   0.0000000   0.1666667   0.3157895), wk =   0.0025991
        k(   38) = (   0.0000000   0.1666667   0.3684211), wk =   0.0025991
        k(   39) = (   0.0000000   0.1666667   0.4210526), wk =   0.0025991
        k(   40) = (   0.0000000   0.1666667   0.4736842), wk =   0.0025991
        k(   41) = (   0.0000000   0.2222222   0.0000000), wk =   0.0012995
        k(   42) = (   0.0000000   0.2222222   0.0526316), wk =   0.0025991
        k(   43) = (   0.0000000   0.2222222   0.1052632), wk =   0.0025991
        k(   44) = (   0.0000000   0.2222222   0.1578947), wk =   0.0025991
        k(   45) = (   0.0000000   0.2222222   0.2105263), wk =   0.0025991
        k(   46) = (   0.0000000   0.2222222   0.2631579), wk =   0.0025991
        k(   47) = (   0.0000000   0.2222222   0.3157895), wk =   0.0025991
        k(   48) = (   0.0000000   0.2222222   0.3684211), wk =   0.0025991
        k(   49) = (   0.0000000   0.2222222   0.4210526), wk =   0.0025991
        k(   50) = (   0.0000000   0.2222222   0.4736842), wk =   0.0025991
        k(   51) = (   0.0000000   0.2777778   0.0000000), wk =   0.0012995
        k(   52) = (   0.0000000   0.2777778   0.0526316), wk =   0.0025991
        k(   53) = (   0.0000000   0.2777778   0.1052632), wk =   0.0025991
        k(   54) = (   0.0000000   0.2777778   0.1578947), wk =   0.0025991
        k(   55) = (   0.0000000   0.2777778   0.2105263), wk =   0.0025991
        k(   56) = (   0.0000000   0.2777778   0.2631579), wk =   0.0025991
        k(   57) = (   0.0000000   0.2777778   0.3157895), wk =   0.0025991
        k(   58) = (   0.0000000   0.2777778   0.3684211), wk =   0.0025991
        k(   59) = (   0.0000000   0.2777778   0.4210526), wk =   0.0025991
        k(   60) = (   0.0000000   0.2777778   0.4736842), wk =   0.0025991
        k(   61) = (   0.0000000   0.3333333   0.0000000), wk =   0.0012995
        k(   62) = (   0.0000000   0.3333333   0.0526316), wk =   0.0025991
        k(   63) = (   0.0000000   0.3333333   0.1052632), wk =   0.0025991
        k(   64) = (   0.0000000   0.3333333   0.1578947), wk =   0.0025991
        k(   65) = (   0.0000000   0.3333333   0.2105263), wk =   0.0025991
        k(   66) = (   0.0000000   0.3333333   0.2631579), wk =   0.0025991
        k(   67) = (   0.0000000   0.3333333   0.3157895), wk =   0.0025991
        k(   68) = (   0.0000000   0.3333333   0.3684211), wk =   0.0025991
        k(   69) = (   0.0000000   0.3333333   0.4210526), wk =   0.0025991
        k(   70) = (   0.0000000   0.3333333   0.4736842), wk =   0.0025991
        k(   71) = (   0.0000000   0.3888889   0.0000000), wk =   0.0012995
        k(   72) = (   0.0000000   0.3888889   0.0526316), wk =   0.0025991
        k(   73) = (   0.0000000   0.3888889   0.1052632), wk =   0.0025991
        k(   74) = (   0.0000000   0.3888889   0.1578947), wk =   0.0025991
        k(   75) = (   0.0000000   0.3888889   0.2105263), wk =   0.0025991
        k(   76) = (   0.0000000   0.3888889   0.2631579), wk =   0.0025991
        k(   77) = (   0.0000000   0.3888889   0.3157895), wk =   0.0025991
        k(   78) = (   0.0000000   0.3888889   0.3684211), wk =   0.0025991
        k(   79) = (   0.0000000   0.3888889   0.4210526), wk =   0.0025991
        k(   80) = (   0.0000000   0.3888889   0.4736842), wk =   0.0025991
        k(   81) = (   0.0000000   0.4444444   0.0000000), wk =   0.0012995
        k(   82) = (   0.0000000   0.4444444   0.0526316), wk =   0.0025991
        k(   83) = (   0.0000000   0.4444444   0.1052632), wk =   0.0025991
        k(   84) = (   0.0000000   0.4444444   0.1578947), wk =   0.0025991
        k(   85) = (   0.0000000   0.4444444   0.2105263), wk =   0.0025991
        k(   86) = (   0.0000000   0.4444444   0.2631579), wk =   0.0025991
        k(   87) = (   0.0000000   0.4444444   0.3157895), wk =   0.0025991
        k(   88) = (   0.0000000   0.4444444   0.3684211), wk =   0.0025991
        k(   89) = (   0.0000000   0.4444444   0.4210526), wk =   0.0025991
        k(   90) = (   0.0000000   0.4444444   0.4736842), wk =   0.0025991
        k(   91) = (   0.0000000  -0.5000000   0.0000000), wk =   0.0006498
        k(   92) = (   0.0000000  -0.5000000   0.0526316), wk =   0.0012995
        k(   93) = (   0.0000000  -0.5000000   0.1052632), wk =   0.0012995
        k(   94) = (   0.0000000  -0.5000000   0.1578947), wk =   0.0012995
        k(   95) = (   0.0000000  -0.5000000   0.2105263), wk =   0.0012995
        k(   96) = (   0.0000000  -0.5000000   0.2631579), wk =   0.0012995
        k(   97) = (   0.0000000  -0.5000000   0.3157895), wk =   0.0012995
        k(   98) = (   0.0000000  -0.5000000   0.3684211), wk =   0.0012995
        k(   99) = (   0.0000000  -0.5000000   0.4210526), wk =   0.0012995
        k(  100) = (   0.0000000  -0.5000000   0.4736842), wk =   0.0012995
        k(  101) = (   0.0555556   0.0555556   0.0000000), wk =   0.0012995
        k(  102) = (   0.0555556   0.0555556   0.0526316), wk =   0.0025991
        k(  103) = (   0.0555556   0.0555556   0.1052632), wk =   0.0025991
        k(  104) = (   0.0555556   0.0555556   0.1578947), wk =   0.0025991
        k(  105) = (   0.0555556   0.0555556   0.2105263), wk =   0.0025991
        k(  106) = (   0.0555556   0.0555556   0.2631579), wk =   0.0025991
        k(  107) = (   0.0555556   0.0555556   0.3157895), wk =   0.0025991
        k(  108) = (   0.0555556   0.0555556   0.3684211), wk =   0.0025991
        k(  109) = (   0.0555556   0.0555556   0.4210526), wk =   0.0025991
        k(  110) = (   0.0555556   0.0555556   0.4736842), wk =   0.0025991
        k(  111) = (   0.0555556   0.1111111   0.0000000), wk =   0.0025991
        k(  112) = (   0.0555556   0.1111111   0.0526316), wk =   0.0051982
        k(  113) = (   0.0555556   0.1111111   0.1052632), wk =   0.0051982
        k(  114) = (   0.0555556   0.1111111   0.1578947), wk =   0.0051982
        k(  115) = (   0.0555556   0.1111111   0.2105263), wk =   0.0051982
        k(  116) = (   0.0555556   0.1111111   0.2631579), wk =   0.0051982
        k(  117) = (   0.0555556   0.1111111   0.3157895), wk =   0.0051982
        k(  118) = (   0.0555556   0.1111111   0.3684211), wk =   0.0051982
        k(  119) = (   0.0555556   0.1111111   0.4210526), wk =   0.0051982
        k(  120) = (   0.0555556   0.1111111   0.4736842), wk =   0.0051982
        k(  121) = (   0.0555556   0.1666667   0.0000000), wk =   0.0025991
        k(  122) = (   0.0555556   0.1666667   0.0526316), wk =   0.0051982
        k(  123) = (   0.0555556   0.1666667   0.1052632), wk =   0.0051982
        k(  124) = (   0.0555556   0.1666667   0.1578947), wk =   0.0051982
        k(  125) = (   0.0555556   0.1666667   0.2105263), wk =   0.0051982
        k(  126) = (   0.0555556   0.1666667   0.2631579), wk =   0.0051982
        k(  127) = (   0.0555556   0.1666667   0.3157895), wk =   0.0051982
        k(  128) = (   0.0555556   0.1666667   0.3684211), wk =   0.0051982
        k(  129) = (   0.0555556   0.1666667   0.4210526), wk =   0.0051982
        k(  130) = (   0.0555556   0.1666667   0.4736842), wk =   0.0051982
        k(  131) = (   0.0555556   0.2222222   0.0000000), wk =   0.0025991
        k(  132) = (   0.0555556   0.2222222   0.0526316), wk =   0.0051982
        k(  133) = (   0.0555556   0.2222222   0.1052632), wk =   0.0051982
        k(  134) = (   0.0555556   0.2222222   0.1578947), wk =   0.0051982
        k(  135) = (   0.0555556   0.2222222   0.2105263), wk =   0.0051982
        k(  136) = (   0.0555556   0.2222222   0.2631579), wk =   0.0051982
        k(  137) = (   0.0555556   0.2222222   0.3157895), wk =   0.0051982
        k(  138) = (   0.0555556   0.2222222   0.3684211), wk =   0.0051982
        k(  139) = (   0.0555556   0.2222222   0.4210526), wk =   0.0051982
        k(  140) = (   0.0555556   0.2222222   0.4736842), wk =   0.0051982
        k(  141) = (   0.0555556   0.2777778   0.0000000), wk =   0.0025991
        k(  142) = (   0.0555556   0.2777778   0.0526316), wk =   0.0051982
        k(  143) = (   0.0555556   0.2777778   0.1052632), wk =   0.0051982
        k(  144) = (   0.0555556   0.2777778   0.1578947), wk =   0.0051982
        k(  145) = (   0.0555556   0.2777778   0.2105263), wk =   0.0051982
        k(  146) = (   0.0555556   0.2777778   0.2631579), wk =   0.0051982
        k(  147) = (   0.0555556   0.2777778   0.3157895), wk =   0.0051982
        k(  148) = (   0.0555556   0.2777778   0.3684211), wk =   0.0051982
        k(  149) = (   0.0555556   0.2777778   0.4210526), wk =   0.0051982
        k(  150) = (   0.0555556   0.2777778   0.4736842), wk =   0.0051982
        k(  151) = (   0.0555556   0.3333333   0.0000000), wk =   0.0025991
        k(  152) = (   0.0555556   0.3333333   0.0526316), wk =   0.0051982
        k(  153) = (   0.0555556   0.3333333   0.1052632), wk =   0.0051982
        k(  154) = (   0.0555556   0.3333333   0.1578947), wk =   0.0051982
        k(  155) = (   0.0555556   0.3333333   0.2105263), wk =   0.0051982
        k(  156) = (   0.0555556   0.3333333   0.2631579), wk =   0.0051982
        k(  157) = (   0.0555556   0.3333333   0.3157895), wk =   0.0051982
        k(  158) = (   0.0555556   0.3333333   0.3684211), wk =   0.0051982
        k(  159) = (   0.0555556   0.3333333   0.4210526), wk =   0.0051982
        k(  160) = (   0.0555556   0.3333333   0.4736842), wk =   0.0051982
        k(  161) = (   0.0555556   0.3888889   0.0000000), wk =   0.0025991
        k(  162) = (   0.0555556   0.3888889   0.0526316), wk =   0.0051982
        k(  163) = (   0.0555556   0.3888889   0.1052632), wk =   0.0051982
        k(  164) = (   0.0555556   0.3888889   0.1578947), wk =   0.0051982
        k(  165) = (   0.0555556   0.3888889   0.2105263), wk =   0.0051982
        k(  166) = (   0.0555556   0.3888889   0.2631579), wk =   0.0051982
        k(  167) = (   0.0555556   0.3888889   0.3157895), wk =   0.0051982
        k(  168) = (   0.0555556   0.3888889   0.3684211), wk =   0.0051982
        k(  169) = (   0.0555556   0.3888889   0.4210526), wk =   0.0051982
        k(  170) = (   0.0555556   0.3888889   0.4736842), wk =   0.0051982
        k(  171) = (   0.0555556   0.4444444   0.0000000), wk =   0.0025991
        k(  172) = (   0.0555556   0.4444444   0.0526316), wk =   0.0051982
        k(  173) = (   0.0555556   0.4444444   0.1052632), wk =   0.0051982
        k(  174) = (   0.0555556   0.4444444   0.1578947), wk =   0.0051982
        k(  175) = (   0.0555556   0.4444444   0.2105263), wk =   0.0051982
        k(  176) = (   0.0555556   0.4444444   0.2631579), wk =   0.0051982
        k(  177) = (   0.0555556   0.4444444   0.3157895), wk =   0.0051982
        k(  178) = (   0.0555556   0.4444444   0.3684211), wk =   0.0051982
        k(  179) = (   0.0555556   0.4444444   0.4210526), wk =   0.0051982
        k(  180) = (   0.0555556   0.4444444   0.4736842), wk =   0.0051982
        k(  181) = (   0.0555556  -0.5000000   0.0000000), wk =   0.0012995
        k(  182) = (   0.0555556  -0.5000000   0.0526316), wk =   0.0025991
        k(  183) = (   0.0555556  -0.5000000   0.1052632), wk =   0.0025991
        k(  184) = (   0.0555556  -0.5000000   0.1578947), wk =   0.0025991
        k(  185) = (   0.0555556  -0.5000000   0.2105263), wk =   0.0025991
        k(  186) = (   0.0555556  -0.5000000   0.2631579), wk =   0.0025991
        k(  187) = (   0.0555556  -0.5000000   0.3157895), wk =   0.0025991
        k(  188) = (   0.0555556  -0.5000000   0.3684211), wk =   0.0025991
        k(  189) = (   0.0555556  -0.5000000   0.4210526), wk =   0.0025991
        k(  190) = (   0.0555556  -0.5000000   0.4736842), wk =   0.0025991
        k(  191) = (   0.1111111   0.1111111   0.0000000), wk =   0.0012995
        k(  192) = (   0.1111111   0.1111111   0.0526316), wk =   0.0025991
        k(  193) = (   0.1111111   0.1111111   0.1052632), wk =   0.0025991
        k(  194) = (   0.1111111   0.1111111   0.1578947), wk =   0.0025991
        k(  195) = (   0.1111111   0.1111111   0.2105263), wk =   0.0025991
        k(  196) = (   0.1111111   0.1111111   0.2631579), wk =   0.0025991
        k(  197) = (   0.1111111   0.1111111   0.3157895), wk =   0.0025991
        k(  198) = (   0.1111111   0.1111111   0.3684211), wk =   0.0025991
        k(  199) = (   0.1111111   0.1111111   0.4210526), wk =   0.0025991
        k(  200) = (   0.1111111   0.1111111   0.4736842), wk =   0.0025991
        k(  201) = (   0.1111111   0.1666667   0.0000000), wk =   0.0025991
        k(  202) = (   0.1111111   0.1666667   0.0526316), wk =   0.0051982
        k(  203) = (   0.1111111   0.1666667   0.1052632), wk =   0.0051982
        k(  204) = (   0.1111111   0.1666667   0.1578947), wk =   0.0051982
        k(  205) = (   0.1111111   0.1666667   0.2105263), wk =   0.0051982
        k(  206) = (   0.1111111   0.1666667   0.2631579), wk =   0.0051982
        k(  207) = (   0.1111111   0.1666667   0.3157895), wk =   0.0051982
        k(  208) = (   0.1111111   0.1666667   0.3684211), wk =   0.0051982
        k(  209) = (   0.1111111   0.1666667   0.4210526), wk =   0.0051982
        k(  210) = (   0.1111111   0.1666667   0.4736842), wk =   0.0051982
        k(  211) = (   0.1111111   0.2222222   0.0000000), wk =   0.0025991
        k(  212) = (   0.1111111   0.2222222   0.0526316), wk =   0.0051982
        k(  213) = (   0.1111111   0.2222222   0.1052632), wk =   0.0051982
        k(  214) = (   0.1111111   0.2222222   0.1578947), wk =   0.0051982
        k(  215) = (   0.1111111   0.2222222   0.2105263), wk =   0.0051982
        k(  216) = (   0.1111111   0.2222222   0.2631579), wk =   0.0051982
        k(  217) = (   0.1111111   0.2222222   0.3157895), wk =   0.0051982
        k(  218) = (   0.1111111   0.2222222   0.3684211), wk =   0.0051982
        k(  219) = (   0.1111111   0.2222222   0.4210526), wk =   0.0051982
        k(  220) = (   0.1111111   0.2222222   0.4736842), wk =   0.0051982
        k(  221) = (   0.1111111   0.2777778   0.0000000), wk =   0.0025991
        k(  222) = (   0.1111111   0.2777778   0.0526316), wk =   0.0051982
        k(  223) = (   0.1111111   0.2777778   0.1052632), wk =   0.0051982
        k(  224) = (   0.1111111   0.2777778   0.1578947), wk =   0.0051982
        k(  225) = (   0.1111111   0.2777778   0.2105263), wk =   0.0051982
        k(  226) = (   0.1111111   0.2777778   0.2631579), wk =   0.0051982
        k(  227) = (   0.1111111   0.2777778   0.3157895), wk =   0.0051982
        k(  228) = (   0.1111111   0.2777778   0.3684211), wk =   0.0051982
        k(  229) = (   0.1111111   0.2777778   0.4210526), wk =   0.0051982
        k(  230) = (   0.1111111   0.2777778   0.4736842), wk =   0.0051982
        k(  231) = (   0.1111111   0.3333333   0.0000000), wk =   0.0025991
        k(  232) = (   0.1111111   0.3333333   0.0526316), wk =   0.0051982
        k(  233) = (   0.1111111   0.3333333   0.1052632), wk =   0.0051982
        k(  234) = (   0.1111111   0.3333333   0.1578947), wk =   0.0051982
        k(  235) = (   0.1111111   0.3333333   0.2105263), wk =   0.0051982
        k(  236) = (   0.1111111   0.3333333   0.2631579), wk =   0.0051982
        k(  237) = (   0.1111111   0.3333333   0.3157895), wk =   0.0051982
        k(  238) = (   0.1111111   0.3333333   0.3684211), wk =   0.0051982
        k(  239) = (   0.1111111   0.3333333   0.4210526), wk =   0.0051982
        k(  240) = (   0.1111111   0.3333333   0.4736842), wk =   0.0051982
        k(  241) = (   0.1111111   0.3888889   0.0000000), wk =   0.0025991
        k(  242) = (   0.1111111   0.3888889   0.0526316), wk =   0.0051982
        k(  243) = (   0.1111111   0.3888889   0.1052632), wk =   0.0051982
        k(  244) = (   0.1111111   0.3888889   0.1578947), wk =   0.0051982
        k(  245) = (   0.1111111   0.3888889   0.2105263), wk =   0.0051982
        k(  246) = (   0.1111111   0.3888889   0.2631579), wk =   0.0051982
        k(  247) = (   0.1111111   0.3888889   0.3157895), wk =   0.0051982
        k(  248) = (   0.1111111   0.3888889   0.3684211), wk =   0.0051982
        k(  249) = (   0.1111111   0.3888889   0.4210526), wk =   0.0051982
        k(  250) = (   0.1111111   0.3888889   0.4736842), wk =   0.0051982
        k(  251) = (   0.1111111   0.4444444   0.0000000), wk =   0.0025991
        k(  252) = (   0.1111111   0.4444444   0.0526316), wk =   0.0051982
        k(  253) = (   0.1111111   0.4444444   0.1052632), wk =   0.0051982
        k(  254) = (   0.1111111   0.4444444   0.1578947), wk =   0.0051982
        k(  255) = (   0.1111111   0.4444444   0.2105263), wk =   0.0051982
        k(  256) = (   0.1111111   0.4444444   0.2631579), wk =   0.0051982
        k(  257) = (   0.1111111   0.4444444   0.3157895), wk =   0.0051982
        k(  258) = (   0.1111111   0.4444444   0.3684211), wk =   0.0051982
        k(  259) = (   0.1111111   0.4444444   0.4210526), wk =   0.0051982
        k(  260) = (   0.1111111   0.4444444   0.4736842), wk =   0.0051982
        k(  261) = (   0.1111111  -0.5000000   0.0000000), wk =   0.0012995
        k(  262) = (   0.1111111  -0.5000000   0.0526316), wk =   0.0025991
        k(  263) = (   0.1111111  -0.5000000   0.1052632), wk =   0.0025991
        k(  264) = (   0.1111111  -0.5000000   0.1578947), wk =   0.0025991
        k(  265) = (   0.1111111  -0.5000000   0.2105263), wk =   0.0025991
        k(  266) = (   0.1111111  -0.5000000   0.2631579), wk =   0.0025991
        k(  267) = (   0.1111111  -0.5000000   0.3157895), wk =   0.0025991
        k(  268) = (   0.1111111  -0.5000000   0.3684211), wk =   0.0025991
        k(  269) = (   0.1111111  -0.5000000   0.4210526), wk =   0.0025991
        k(  270) = (   0.1111111  -0.5000000   0.4736842), wk =   0.0025991
        k(  271) = (   0.1666667   0.1666667   0.0000000), wk =   0.0012995
        k(  272) = (   0.1666667   0.1666667   0.0526316), wk =   0.0025991
        k(  273) = (   0.1666667   0.1666667   0.1052632), wk =   0.0025991
        k(  274) = (   0.1666667   0.1666667   0.1578947), wk =   0.0025991
        k(  275) = (   0.1666667   0.1666667   0.2105263), wk =   0.0025991
        k(  276) = (   0.1666667   0.1666667   0.2631579), wk =   0.0025991
        k(  277) = (   0.1666667   0.1666667   0.3157895), wk =   0.0025991
        k(  278) = (   0.1666667   0.1666667   0.3684211), wk =   0.0025991
        k(  279) = (   0.1666667   0.1666667   0.4210526), wk =   0.0025991
        k(  280) = (   0.1666667   0.1666667   0.4736842), wk =   0.0025991
        k(  281) = (   0.1666667   0.2222222   0.0000000), wk =   0.0025991
        k(  282) = (   0.1666667   0.2222222   0.0526316), wk =   0.0051982
        k(  283) = (   0.1666667   0.2222222   0.1052632), wk =   0.0051982
        k(  284) = (   0.1666667   0.2222222   0.1578947), wk =   0.0051982
        k(  285) = (   0.1666667   0.2222222   0.2105263), wk =   0.0051982
        k(  286) = (   0.1666667   0.2222222   0.2631579), wk =   0.0051982
        k(  287) = (   0.1666667   0.2222222   0.3157895), wk =   0.0051982
        k(  288) = (   0.1666667   0.2222222   0.3684211), wk =   0.0051982
        k(  289) = (   0.1666667   0.2222222   0.4210526), wk =   0.0051982
        k(  290) = (   0.1666667   0.2222222   0.4736842), wk =   0.0051982
        k(  291) = (   0.1666667   0.2777778   0.0000000), wk =   0.0025991
        k(  292) = (   0.1666667   0.2777778   0.0526316), wk =   0.0051982
        k(  293) = (   0.1666667   0.2777778   0.1052632), wk =   0.0051982
        k(  294) = (   0.1666667   0.2777778   0.1578947), wk =   0.0051982
        k(  295) = (   0.1666667   0.2777778   0.2105263), wk =   0.0051982
        k(  296) = (   0.1666667   0.2777778   0.2631579), wk =   0.0051982
        k(  297) = (   0.1666667   0.2777778   0.3157895), wk =   0.0051982
        k(  298) = (   0.1666667   0.2777778   0.3684211), wk =   0.0051982
        k(  299) = (   0.1666667   0.2777778   0.4210526), wk =   0.0051982
        k(  300) = (   0.1666667   0.2777778   0.4736842), wk =   0.0051982
        k(  301) = (   0.1666667   0.3333333   0.0000000), wk =   0.0025991
        k(  302) = (   0.1666667   0.3333333   0.0526316), wk =   0.0051982
        k(  303) = (   0.1666667   0.3333333   0.1052632), wk =   0.0051982
        k(  304) = (   0.1666667   0.3333333   0.1578947), wk =   0.0051982
        k(  305) = (   0.1666667   0.3333333   0.2105263), wk =   0.0051982
        k(  306) = (   0.1666667   0.3333333   0.2631579), wk =   0.0051982
        k(  307) = (   0.1666667   0.3333333   0.3157895), wk =   0.0051982
        k(  308) = (   0.1666667   0.3333333   0.3684211), wk =   0.0051982
        k(  309) = (   0.1666667   0.3333333   0.4210526), wk =   0.0051982
        k(  310) = (   0.1666667   0.3333333   0.4736842), wk =   0.0051982
        k(  311) = (   0.1666667   0.3888889   0.0000000), wk =   0.0025991
        k(  312) = (   0.1666667   0.3888889   0.0526316), wk =   0.0051982
        k(  313) = (   0.1666667   0.3888889   0.1052632), wk =   0.0051982
        k(  314) = (   0.1666667   0.3888889   0.1578947), wk =   0.0051982
        k(  315) = (   0.1666667   0.3888889   0.2105263), wk =   0.0051982
        k(  316) = (   0.1666667   0.3888889   0.2631579), wk =   0.0051982
        k(  317) = (   0.1666667   0.3888889   0.3157895), wk =   0.0051982
        k(  318) = (   0.1666667   0.3888889   0.3684211), wk =   0.0051982
        k(  319) = (   0.1666667   0.3888889   0.4210526), wk =   0.0051982
        k(  320) = (   0.1666667   0.3888889   0.4736842), wk =   0.0051982
        k(  321) = (   0.1666667   0.4444444   0.0000000), wk =   0.0025991
        k(  322) = (   0.1666667   0.4444444   0.0526316), wk =   0.0051982
        k(  323) = (   0.1666667   0.4444444   0.1052632), wk =   0.0051982
        k(  324) = (   0.1666667   0.4444444   0.1578947), wk =   0.0051982
        k(  325) = (   0.1666667   0.4444444   0.2105263), wk =   0.0051982
        k(  326) = (   0.1666667   0.4444444   0.2631579), wk =   0.0051982
        k(  327) = (   0.1666667   0.4444444   0.3157895), wk =   0.0051982
        k(  328) = (   0.1666667   0.4444444   0.3684211), wk =   0.0051982
        k(  329) = (   0.1666667   0.4444444   0.4210526), wk =   0.0051982
        k(  330) = (   0.1666667   0.4444444   0.4736842), wk =   0.0051982
        k(  331) = (   0.1666667  -0.5000000   0.0000000), wk =   0.0012995
        k(  332) = (   0.1666667  -0.5000000   0.0526316), wk =   0.0025991
        k(  333) = (   0.1666667  -0.5000000   0.1052632), wk =   0.0025991
        k(  334) = (   0.1666667  -0.5000000   0.1578947), wk =   0.0025991
        k(  335) = (   0.1666667  -0.5000000   0.2105263), wk =   0.0025991
        k(  336) = (   0.1666667  -0.5000000   0.2631579), wk =   0.0025991
        k(  337) = (   0.1666667  -0.5000000   0.3157895), wk =   0.0025991
        k(  338) = (   0.1666667  -0.5000000   0.3684211), wk =   0.0025991
        k(  339) = (   0.1666667  -0.5000000   0.4210526), wk =   0.0025991
        k(  340) = (   0.1666667  -0.5000000   0.4736842), wk =   0.0025991
        k(  341) = (   0.2222222   0.2222222   0.0000000), wk =   0.0012995
        k(  342) = (   0.2222222   0.2222222   0.0526316), wk =   0.0025991
        k(  343) = (   0.2222222   0.2222222   0.1052632), wk =   0.0025991
        k(  344) = (   0.2222222   0.2222222   0.1578947), wk =   0.0025991
        k(  345) = (   0.2222222   0.2222222   0.2105263), wk =   0.0025991
        k(  346) = (   0.2222222   0.2222222   0.2631579), wk =   0.0025991
        k(  347) = (   0.2222222   0.2222222   0.3157895), wk =   0.0025991
        k(  348) = (   0.2222222   0.2222222   0.3684211), wk =   0.0025991
        k(  349) = (   0.2222222   0.2222222   0.4210526), wk =   0.0025991
        k(  350) = (   0.2222222   0.2222222   0.4736842), wk =   0.0025991
        k(  351) = (   0.2222222   0.2777778   0.0000000), wk =   0.0025991
        k(  352) = (   0.2222222   0.2777778   0.0526316), wk =   0.0051982
        k(  353) = (   0.2222222   0.2777778   0.1052632), wk =   0.0051982
        k(  354) = (   0.2222222   0.2777778   0.1578947), wk =   0.0051982
        k(  355) = (   0.2222222   0.2777778   0.2105263), wk =   0.0051982
        k(  356) = (   0.2222222   0.2777778   0.2631579), wk =   0.0051982
        k(  357) = (   0.2222222   0.2777778   0.3157895), wk =   0.0051982
        k(  358) = (   0.2222222   0.2777778   0.3684211), wk =   0.0051982
[...]
    13.0358  13.2496

     occupation numbers 
     1.0000   1.0000   1.0000   1.0000   0.0000   0.0000   0.0000   0.0000
     0.0000   0.0000

          k = 0.3889 0.3889 0.0580 (   857 PWs)   bands (ev):

    -0.1622   1.8029   1.8029   3.7378   8.9615  10.7963  10.7963  11.9483
    12.6297  13.6950

     occupation numbers 
     1.0000   1.0000   1.0000   1.0000   0.3924   0.0000   0.0000   0.0000
     0.0000   0.0000

          k = 0.3889 0.3889 0.1160 (   861 PWs)   bands (ev):

    -0.0723   1.8913   1.8913   3.8235   8.1455   9.9947   9.9947  11.8426
    12.9091  14.5252

     occupation numbers 
     1.0000   1.0000   1.0000   1.0000   1.0000   0.0000   0.0000   0.0000
     0.0000   0.0000

          k = 0.3889 0.3889 0.1740 (   866 PWs)   bands (ev):

     0.0774   2.0385   2.0385   3.9652   7.2753   9.1348   9.1348  10.9931
    14.0197  15.1546

     occupation numbers 
     1.0000   1.0000   1.0000   1.0000   1.0000   0.0099   0.0099   0.0000
     0.0000   0.0000

          k = 0.3889 0.3889 0.2320 (   862 PWs)   bands (ev):

     0.2866   2.2442   2.2442   4.1596   6.4276   8.2905   8.2905  10.1574
    15.2021  15.4750

     occupation numbers 
     1.0000   1.0000   1.0000   1.0000   1.0000   1.0000   1.0000   0.0000
     0.0000   0.0000

          k = 0.3889 0.3889 0.2900 (   863 PWs)   bands (ev):

     0.5551   2.5077   2.5077   4.3925   5.6375   7.4837   7.4837   9.3576
    15.7538  15.7538

     occupation numbers 
     1.0000   1.0000   1.0000   1.0000   1.0000   1.0000   1.0000   0.0000
     0.0000   0.0000

          k = 0.3889 0.3889 0.3480 (   861 PWs)   bands (ev):

     0.8825   2.8281   2.8281   4.5122   5.0646   6.7238   6.7238   8.6030
    16.0601  16.0601

     occupation numbers 
     1.0000   1.0000   1.0000   1.0000   1.0000   1.0000   1.0000   1.0068
     0.0000   0.0000

          k = 0.3889 0.3889 0.4060 (   851 PWs)   bands (ev):

     1.2682   3.2032   3.2032   4.0087   5.2228   6.0169   6.0169   7.8979
    16.4052  16.4052

     occupation numbers 
     1.0000   1.0000   1.0000   1.0000   1.0000   1.0000   1.0000   1.0000
     0.0000   0.0000

          k = 0.3889 0.3889 0.4640 (   846 PWs)   bands (ev):

     1.7115   3.3701   3.6263   3.6264   5.3716   5.3716   5.6258   7.2452
    16.7831  16.7831

     occupation numbers 
     1.0000   1.0000   1.0000   1.0000   1.0000   1.0000   1.0000   1.0000
     0.0000   0.0000

          k = 0.3889 0.3889 0.5220 (   849 PWs)   bands (ev):

     2.2112   2.7655   4.0553   4.0554   4.8313   4.8313   6.1059   6.6471
    17.1426  17.1427

     occupation numbers 
     1.0000   1.0000   1.0000   1.0000   1.0000   1.0000   1.0000   1.0000
     0.0000   0.0000

          k = 0.3889 0.4444 0.0000 (   863 PWs)   bands (ev):

     0.2199   1.2035   2.1795   3.1483   9.7721  10.6843  11.5956  11.8606
    12.5056  12.7607

     occupation numbers 
     1.0000   1.0000   1.0000   1.0000   0.0000   0.0000   0.0000   0.0000
     0.0000   0.0000

          k = 0.3889 0.4444 0.0580 (   860 PWs)   bands (ev):

     0.2498   1.2331   2.2089   3.1773   9.3449  10.2628  11.1803  12.0972
    12.3354  13.2225

     occupation numbers 
     1.0000   1.0000   1.0000   1.0000   0.0000   0.0000   0.0000   0.0000
     0.0000   0.0000

          k = 0.3889 0.4444 0.1160 (   861 PWs)   bands (ev):

     0.3394   1.3220   2.2969   3.2641   8.5320   9.4575  10.3825  11.3068
    13.2900  14.1388

     occupation numbers 
     1.0000   1.0000   1.0000   1.0000   1.0008   0.0000   0.0000   0.0000
     0.0000   0.0000

          k = 0.3889 0.4444 0.1740 (   857 PWs)   bands (ev):

     0.4886   1.4700   2.4435   3.4082   7.6628   8.5939   9.5245  10.4543
    14.3916  15.1109

     occupation numbers 
     1.0000   1.0000   1.0000   1.0000   1.0000   1.0053   0.0000   0.0000
     0.0000   0.0000

          k = 0.3889 0.4444 0.2320 (   858 PWs)   bands (ev):

     0.6972   1.6768   2.6480   3.6083   6.8126   7.7466   8.6816   9.6158
    15.5515  15.7400

     occupation numbers 
     1.0000   1.0000   1.0000   1.0000   1.0000   1.0000   1.0374   0.0000
     0.0000   0.0000

          k = 0.3889 0.4444 0.2900 (   864 PWs)   bands (ev):

     0.9648   1.9421   2.9097   3.8605   6.0062   6.9377   7.8758   8.8136
    16.0752  16.5912

     occupation numbers 
     1.0000   1.0000   1.0000   1.0000   1.0000   1.0000   1.0000   1.0470
     0.0000   0.0000

          k = 0.3889 0.4444 0.3480 (   859 PWs)   bands (ev):

     1.2911   2.2651   3.2267   4.1468   5.2698   6.1774   7.1161   8.0568
    16.3946  17.0252

     occupation numbers 
     1.0000   1.0000   1.0000   1.0000   1.0000   1.0000   1.0000   1.0000
     0.0000   0.0000

          k = 0.3889 0.4444 0.4060 (   851 PWs)   bands (ev):

     1.6753   2.6446   3.5936   4.2569   4.8175   5.4751   6.4076   7.3499
    16.7476  17.3820

     occupation numbers 
     1.0000   1.0000   1.0000   1.0000   1.0000   1.0000   1.0000   1.0000
     0.0000   0.0000

          k = 0.3889 0.4444 0.4640 (   848 PWs)   bands (ev):

     2.1165   3.0782   3.7495   3.9795   4.8636   5.0925   5.7550   6.6959
    17.1405  17.7761

     occupation numbers 
     1.0000   1.0000   1.0000   1.0000   1.0000   1.0000   1.0000   1.0000
     0.0000   0.0000

          k = 0.3889 0.4444 0.5220 (   852 PWs)   bands (ev):

     2.6132   3.1618   3.5576   4.0244   4.7039   5.1674   5.5589   6.0976
    17.5661  17.9676

     occupation numbers 
     1.0000   1.0000   1.0000   1.0000   1.0000   1.0000   1.0000   1.0000
     0.0000   0.0000

          k = 0.3889-0.5000 0.0000 (   860 PWs)   bands (ev):

     0.6853   0.6854   2.6381   2.6381  10.2029  10.2029  12.0255  12.0255
    12.2929  12.2929

     occupation numbers 
     1.0000   1.0000   1.0000   1.0000   0.0000   0.0000   0.0000   0.0000
     0.0000   0.0000

          k = 0.3889-0.5000 0.0580 (   864 PWs)   bands (ev):

     0.7151   0.7151   2.6673   2.6673   9.7787   9.7788  11.6139  11.6140
    12.7624  12.7625

     occupation numbers 
     1.0000   1.0000   1.0000   1.0000   0.0000   0.0000   0.0000   0.0000
     0.0000   0.0000

          k = 0.3889-0.5000 0.1160 (   854 PWs)   bands (ev):

     0.8044   0.8044   2.7548   2.7548   8.9696   8.9696  10.8199  10.8199
    13.7051  13.7052

     occupation numbers 
     1.0000   1.0000   1.0000   1.0000   0.3530   0.3528   0.0000   0.0000
     0.0000   0.0000

          k = 0.3889-0.5000 0.1740 (   856 PWs)   bands (ev):

     0.9530   0.9531   2.9004   2.9004   8.1028   8.1028   9.9645   9.9645
    14.7792  14.7793

     occupation numbers 
     1.0000   1.0000   1.0000   1.0000   1.0000   1.0000   0.0000   0.0000
     0.0000   0.0000

          k = 0.3889-0.5000 0.2320 (   862 PWs)   bands (ev):

     1.1608   1.1609   3.1033   3.1033   7.2533   7.2534   9.1236   9.1236
    15.8140  15.8142

     occupation numbers 
     1.0000   1.0000   1.0000   1.0000   1.0000   1.0000   0.0138   0.0138
     0.0000   0.0000

          k = 0.3889-0.5000 0.2900 (   864 PWs)   bands (ev):

     1.4274   1.4274   3.3619   3.3619   6.4439   6.4439   8.3193   8.3194
    16.3888  16.3889

     occupation numbers 
     1.0000   1.0000   1.0000   1.0000   1.0000   1.0000   1.0000   1.0000
     0.0000   0.0000

          k = 0.3889-0.5000 0.3480 (   858 PWs)   bands (ev):

     1.7522   1.7522   3.6716   3.6717   5.6873   5.6874   7.5608   7.5608
    16.7357  16.7357

     occupation numbers 
     1.0000   1.0000   1.0000   1.0000   1.0000   1.0000   1.0000   1.0000
     0.0000   0.0000

          k = 0.3889-0.5000 0.4060 (   852 PWs)   bands (ev):

     2.1345   2.1345   4.0094   4.0094   5.0106   5.0107   6.8526   6.8527
    17.0938  17.0938

     occupation numbers 
     1.0000   1.0000   1.0000   1.0000   1.0000   1.0000   1.0000   1.0000
     0.0000   0.0000

          k = 0.3889-0.5000 0.4640 (   850 PWs)   bands (ev):

     2.5729   2.5729   4.0930   4.0932   4.6979   4.6980   6.1984   6.1984
    17.4910  17.4911

     occupation numbers 
     1.0000   1.0000   1.0000   1.0000   1.0000   1.0000   1.0000   1.0000
     0.0000   0.0000

          k = 0.3889-0.5000 0.5220 (   852 PWs)   bands (ev):

     3.0643   3.0644   3.5988   3.5989   5.0741   5.0742   5.6020   5.6020
    17.9300  17.9301

     occupation numbers 
     1.0000   1.0000   1.0000   1.0000   1.0000   1.0000   1.0000   1.0000
     0.0000   0.0000

          k = 0.4444 0.4444 0.0000 (   854 PWs)   bands (ev):

     0.6308   1.6114   1.6114   2.5846  10.1522  11.0641  11.0641  11.9749
    12.2581  13.1769

     occupation numbers 
     1.0000   1.0000   1.0000   1.0000   0.0000   0.0000   0.0000   0.0000
     0.0000   0.0000

          k = 0.4444 0.4444 0.0580 (   856 PWs)   bands (ev):

     0.6606   1.6409   1.6409   2.6139   9.7285  10.6466  10.6466  11.5641
    12.7295  13.6392

     occupation numbers 
     1.0000   1.0000   1.0000   1.0000   0.0000   0.0000   0.0000   0.0000
     0.0000   0.0000

          k = 0.4444 0.4444 0.1160 (   855 PWs)   bands (ev):

     0.7499   1.7295   1.7295   2.7015   8.9191   9.8450   9.8450  10.7701
    13.6814  14.5726

     occupation numbers 
     1.0000   1.0000   1.0000   1.0000   0.6198   0.0000   0.0000   0.0000
     0.0000   0.0000

          k = 0.4444 0.4444 0.1740 (   864 PWs)   bands (ev):

     0.8986   1.8769   1.8769   2.8471   8.0518   8.9836   8.9836   9.9144
    14.7838  15.6394

     occupation numbers 
     1.0000   1.0000   1.0000   1.0000   1.0000   0.2896   0.2896   0.0000
     0.0000   0.0000

          k = 0.4444 0.4444 0.2320 (   863 PWs)   bands (ev):

     1.1065   2.0828   2.0829   3.0501   7.2018   8.1377   8.1377   9.0731
    15.9575  16.6748

     occupation numbers 
     1.0000   1.0000   1.0000   1.0000   1.0000   1.0000   1.0000   0.0520
     0.0000   0.0000

          k = 0.4444 0.4444 0.2900 (   863 PWs)   bands (ev):

     1.3732   2.3468   2.3468   3.3088   6.3918   7.3294   7.3295   8.2684
    17.1709  17.2353

     occupation numbers 
     1.0000   1.0000   1.0000   1.0000   1.0000   1.0000   1.0000   1.0000
     0.0000   0.0000

          k = 0.4444 0.4444 0.3480 (   862 PWs)   bands (ev):

     1.6981   2.6676   2.6677   3.6188   5.6348   6.5682   6.5682   7.5095
    17.5696  17.7414

     occupation numbers 
     1.0000   1.0000   1.0000   1.0000   1.0000   1.0000   1.0000   1.0000
     0.0000   0.0000

          k = 0.4444 0.4444 0.4060 (   854 PWs)   bands (ev):

     2.0806   3.0434   3.0434   3.9569   4.9576   5.8600   5.8600   6.8010
    17.9178  18.0768

     occupation numbers 
     1.0000   1.0000   1.0000   1.0000   1.0000   1.0000   1.0000   1.0000
     0.0000   0.0000

          k = 0.4444 0.4444 0.4640 (   852 PWs)   bands (ev):

     2.5192   3.4673   3.4673   4.0407   4.6446   5.2135   5.2135   6.1464
    18.2988  18.2988

     occupation numbers 
     1.0000   1.0000   1.0000   1.0000   1.0000   1.0000   1.0000   1.0000
     0.0000   0.0000

          k = 0.4444 0.4444 0.5220 (   847 PWs)   bands (ev):

     3.0109   3.5457   3.8978   3.8979   4.6715   4.6715   5.0214   5.5497
    18.6793  18.6796

     occupation numbers 
     1.0000   1.0000   1.0000   1.0000   1.0000   1.0000   1.0000   1.0000
     0.0000   0.0000

          k = 0.4444-0.5000 0.0000 (   846 PWs)   bands (ev):

     1.0948   1.0949   2.0720   2.0720  10.5829  10.5830  11.4943  11.4943
    12.6976  12.6976

     occupation numbers 
     1.0000   1.0000   1.0000   1.0000   0.0000   0.0000   0.0000   0.0000
     0.0000   0.0000

          k = 0.4444-0.5000 0.0580 (   848 PWs)   bands (ev):

     1.1245   1.1245   2.1014   2.1014  10.1625  10.1626  11.0804  11.0805
    13.1648  13.1649

     occupation numbers 
     1.0000   1.0000   1.0000   1.0000   0.0000   0.0000   0.0000   0.0000
     0.0000   0.0000

          k = 0.4444-0.5000 0.1160 (   856 PWs)   bands (ev):

     1.2135   1.2135   2.1896   2.1896   9.3570   9.3570  10.2827  10.2827
    14.1100  14.1100

     occupation numbers 
     1.0000   1.0000   1.0000   1.0000   0.0000   0.0000   0.0000   0.0000
     0.0000   0.0000

          k = 0.4444-0.5000 0.1740 (   866 PWs)   bands (ev):

     1.3616   1.3616   2.3362   2.3362   8.4924   8.4924   9.4239   9.4240
    15.2029  15.2029

     occupation numbers 
     1.0000   1.0000   1.0000   1.0000   1.0002   1.0002   0.0000   0.0000
     0.0000   0.0000

          k = 0.4444-0.5000 0.2320 (   868 PWs)   bands (ev):

     1.5686   1.5687   2.5410   2.5410   7.6440   7.6440   8.5801   8.5801
    16.3544  16.3544

     occupation numbers 
     1.0000   1.0000   1.0000   1.0000   1.0000   1.0000   1.0036   1.0036
     0.0000   0.0000

          k = 0.4444-0.5000 0.2900 (   870 PWs)   bands (ev):

     1.8341   1.8341   2.8029   2.8030   6.8341   6.8341   7.7734   7.7734
    17.3869  17.3871

     occupation numbers 
     1.0000   1.0000   1.0000   1.0000   1.0000   1.0000   1.0000   1.0000
     0.0000   0.0000

          k = 0.4444-0.5000 0.3480 (   860 PWs)   bands (ev):

     2.1574   2.1574   3.1203   3.1203   6.0729   6.0730   7.0128   7.0128
    17.8013  17.8013

     occupation numbers 
     1.0000   1.0000   1.0000   1.0000   1.0000   1.0000   1.0000   1.0000
     0.0000   0.0000

          k = 0.4444-0.5000 0.4060 (   856 PWs)   bands (ev):

     2.5373   2.5373   3.4877   3.4877   5.3697   5.3697   6.3036   6.3036
    18.1514  18.1515

     occupation numbers 
     1.0000   1.0000   1.0000   1.0000   1.0000   1.0000   1.0000   1.0000
     0.0000   0.0000

          k = 0.4444-0.5000 0.4640 (   854 PWs)   bands (ev):

     2.9713   2.9714   3.8744   3.8745   4.7570   4.7571   5.6502   5.6503
    18.5399  18.5399

     occupation numbers 
     1.0000   1.0000   1.0000   1.0000   1.0000   1.0000   1.0000   1.0000
     0.0000   0.0000

          k = 0.4444-0.5000 0.5220 (   844 PWs)   bands (ev):

     3.4514   3.4515   3.9194   3.9196   4.5971   4.5972   5.0619   5.0620
    18.9680  18.9681

     occupation numbers 
     1.0000   1.0000   1.0000   1.0000   1.0000   1.0000   1.0000   1.0000
     0.0000   0.0000

          k =-0.5000-0.5000 0.0000 (   848 PWs)   bands (ev):

     1.5573   1.5573   1.5573   1.5573  11.0133  11.0134  11.0134  11.0135
    13.1423  13.1423

     occupation numbers 
     1.0000   1.0000   1.0000   1.0000   0.0000   0.0000   0.0000   0.0000
     0.0000   0.0000

          k =-0.5000-0.5000 0.0580 (   840 PWs)   bands (ev):

     1.5869   1.5869   1.5869   1.5869  10.5965  10.5965  10.5965  10.5966
    13.6061  13.6061

     occupation numbers 
     1.0000   1.0000   1.0000   1.0000   0.0000   0.0000   0.0000   0.0000
     0.0000   0.0000

          k =-0.5000-0.5000 0.1160 (   864 PWs)   bands (ev):

     1.6755   1.6755   1.6755   1.6755   9.7948   9.7948   9.7948   9.7949
    14.5476  14.5476

     occupation numbers 
     1.0000   1.0000   1.0000   1.0000   0.0000   0.0000   0.0000   0.0000
     0.0000   0.0000

          k =-0.5000-0.5000 0.1740 (   872 PWs)   bands (ev):

     1.8229   1.8229   1.8229   1.8230   8.9329   8.9330   8.9330   8.9330
    15.6395  15.6395

     occupation numbers 
     1.0000   1.0000   1.0000   1.0000   0.5435   0.5433   0.5433   0.5431
     0.0000   0.0000

          k =-0.5000-0.5000 0.2320 (   872 PWs)   bands (ev):

     2.0290   2.0290   2.0290   2.0290   8.0866   8.0866   8.0866   8.0866
    16.7999  16.8000

     occupation numbers 
     1.0000   1.0000   1.0000   1.0000   1.0000   1.0000   1.0000   1.0000
     0.0000   0.0000

          k =-0.5000-0.5000 0.2900 (   872 PWs)   bands (ev):

     2.2930   2.2930   2.2930   2.2931   7.2778   7.2779   7.2779   7.2779
    17.9938  18.2671

     occupation numbers 
     1.0000   1.0000   1.0000   1.0000   1.0000   1.0000   1.0000   1.0000
     0.0000   0.0000

          k =-0.5000-0.5000 0.3480 (   856 PWs)   bands (ev):

     2.6141   2.6141   2.6141   2.6141   6.5162   6.5162   6.5162   6.5162
    18.5498  18.5502

     occupation numbers 
     1.0000   1.0000   1.0000   1.0000   1.0000   1.0000   1.0000   1.0000
     0.0000   0.0000

          k =-0.5000-0.5000 0.4060 (   856 PWs)   bands (ev):

     2.9900   2.9900   2.9900   2.9901   5.8076   5.8076   5.8076   5.8076
    18.8825  18.8826

     occupation numbers 
     1.0000   1.0000   1.0000   1.0000   1.0000   1.0000   1.0000   1.0000
     0.0000   0.0000

          k =-0.5000-0.5000 0.4640 (   856 PWs)   bands (ev):

     3.4142   3.4142   3.4142   3.4143   5.1607   5.1607   5.1607   5.1608
    19.2626  19.2628

     occupation numbers 
     1.0000   1.0000   1.0000   1.0000   1.0000   1.0000   1.0000   1.0000
     0.0000   0.0000

          k =-0.5000-0.5000 0.5220 (   856 PWs)   bands (ev):

     3.8452   3.8453   3.8453   3.8454   4.6180   4.6181   4.6181   4.6182
    19.6679  19.6684

     occupation numbers 
     1.0000   1.0000   1.0000   1.0000   1.0000   1.0000   1.0000   1.0000
     0.0000   0.0000

     the Fermi energy is     8.9598 ev

!    total energy              =     -26.81218501 Ry
     Harris-Foulkes estimate   =     -26.81218504 Ry
     estimated scf accuracy    <       0.00000005 Ry

     The total energy is the sum of the following terms:

     one-electron contribution =      12.88316580 Ry
     hartree contribution      =       0.03641216 Ry
     xc contribution           =     -17.39701343 Ry
     ewald contribution        =     -22.33482728 Ry
     smearing contrib. (-TS)   =       0.00007774 Ry

     convergence has been achieved in   5 iterations
 
     init_run     :    120.89s CPU      5.35s WALL (       1 calls)
     electrons    :   1434.06s CPU     61.09s WALL (       1 calls)

     Called by init_run:
     wfcinit      :    120.47s CPU      5.14s WALL (       1 calls)
     wfcinit:atom :      2.50s CPU      0.11s WALL (     550 calls)
     wfcinit:wfcr :    107.54s CPU      4.58s WALL (     550 calls)
     potinit      :      0.04s CPU      0.01s WALL (       1 calls)

     Called by electrons:
     c_bands      :   1234.56s CPU     52.58s WALL (       6 calls)
     sum_band     :    197.54s CPU      8.42s WALL (       6 calls)
     v_of_rho     :      0.67s CPU      0.03s WALL (       6 calls)
     v_h          :      0.03s CPU      0.00s WALL (       6 calls)
     v_xc         :      0.64s CPU      0.03s WALL (       6 calls)
     newd         :      0.80s CPU      0.05s WALL (       6 calls)
     mix_rho      :      0.14s CPU      0.01s WALL (       6 calls)

     Called by c_bands:
     init_us_2    :     42.65s CPU      1.82s WALL (    7150 calls)
     cegterg      :   1121.06s CPU     47.70s WALL (    3300 calls)

     Called by sum_band:
     sum_band:bec :      1.14s CPU      0.05s WALL (    3300 calls)
     addusdens    :      0.71s CPU      0.03s WALL (       6 calls)

     Called by *egterg:
     h_psi        :   1068.46s CPU     45.49s WALL (   11611 calls)
     s_psi        :      9.00s CPU      0.38s WALL (   11611 calls)
     g_psi        :      4.81s CPU      0.21s WALL (    7761 calls)
     cdiaghg      :     55.81s CPU      2.44s WALL (   10511 calls)
     cegterg:over :     14.08s CPU      0.61s WALL (    7761 calls)
     cegterg:upda :     15.08s CPU      0.67s WALL (    7761 calls)
     cegterg:last :      6.02s CPU      0.28s WALL (    3302 calls)

     Called by h_psi:
     h_psi:pot    :   1058.26s CPU     45.03s WALL (   11611 calls)
     h_psi:calbec :     37.47s CPU      1.59s WALL (   11611 calls)
     vloc_psi     :    995.33s CPU     42.38s WALL (   11611 calls)
     add_vuspsi   :     15.55s CPU      0.68s WALL (   11611 calls)

     General routines
     calbec       :     38.91s CPU      1.75s WALL (   14911 calls)
     fft          :      0.27s CPU      0.06s WALL (      80 calls)
     fftw         :    934.75s CPU     39.86s WALL (  216064 calls)
 
     Parallel routines
 
     PWSCF        : 25m55.18s CPU     1m 6.60s WALL

 
   This run was terminated on:  17:27:32  24Jan2019            

=------------------------------------------------------------------------------=
   JOB DONE.
=------------------------------------------------------------------------------=
