
     Program PWSCF v.6.2 (svn rev. 14038) starts on 24Jan2019 at 17: 3: 1 

     This program is part of the open-source Quantum ESPRESSO suite
     for quantum simulation of materials; please cite
         "P. Giannozzi et al., J. Phys.:Condens. Matter 21 395502 (2009);
         "P. Giannozzi et al., J. Phys.:Condens. Matter 29 465901 (2017);
          URL http://www.quantum-espresso.org", 
     in publications or presentations arising from this work. More details at
     http://www.quantum-espresso.org/quote

     Parallel version (MPI), running on     1 processors

     MPI processes distributed on     1 nodes
     Reading input from ./AlfccSEPNEG0DOT04624629770738725.in
Warning: card &IONS ignored
Warning: card / ignored
Warning: card &CELL ignored
Warning: card / ignored

     Current dimensions of program PWSCF are:
     Max number of different atomic species (ntypx) = 10
     Max number of k-points (npk) =  40000
     Max angular momentum in pseudopotentials (lmaxx) =  3
     Message from routine iosys:
     minimal I/O required, wf_collect reset to FALSE

     Subspace diagonalization in iterative solution of the eigenvalue problem:
     a serial algorithm will be used

     Found symmetry operation: I + ( -0.5000 -0.5000  0.0000)
     This is a supercell, fractional translations are disabled
 
     G-vector sticks info
     --------------------
     sticks:   dense  smooth     PW     G-vecs:    dense   smooth      PW
     Sum         465     465    145                 7151     7151    1333
 


     bravais-lattice index     =            0
     lattice parameter (alat)  =       7.6325  a.u.
     unit-cell volume          =     424.0644 (a.u.)^3
     number of atoms/cell      =            4
     number of atomic types    =            1
     number of electrons       =        12.00
     number of Kohn-Sham states=           10
     kinetic-energy cutoff     =      25.0000  Ry
     charge density cutoff     =     100.0000  Ry
     convergence threshold     =      1.0E-07
     mixing beta               =       0.7000
     number of iterations used =            8  plain     mixing
     Exchange-correlation      = SLA  PW   PBE  PBE ( 1  4  3  4 0 0)

     celldm(1)=   7.632472  celldm(2)=   0.000000  celldm(3)=   0.000000
     celldm(4)=   0.000000  celldm(5)=   0.000000  celldm(6)=   0.000000

     crystal axes: (cart. coord. in units of alat)
               a(1) = (   1.000000   0.000000   0.000000 )  
               a(2) = (   0.000000   1.000000   0.000000 )  
               a(3) = (   0.000000   0.000000   0.953754 )  

     reciprocal axes: (cart. coord. in units 2 pi/alat)
               b(1) = (  1.000000  0.000000  0.000000 )  
               b(2) = (  0.000000  1.000000  0.000000 )  
               b(3) = (  0.000000  0.000000  1.048489 )  


     PseudoPot. # 1 for Al read from file:
     ./al_pbe_v1.uspp.F.UPF
     MD5 check sum: 0a6289f5291fc8f409219462bc851e1f
     Pseudo is Ultrasoft + core correction, Zval =  3.0
     Generated by new atomic code, or converted to UPF format
     Using radial grid of  893 points,  3 beta functions with: 
                l(1) =   0
                l(2) =   1
                l(3) =   2
     Q(r) pseudized with  8 coefficients,  rinner =    0.900   0.900   0.900
                                                       0.900   0.900

     atomic species   valence    mass     pseudopotential
        Al             3.00    26.98150     Al( 1.00)

     16 Sym. Ops., with inversion, found


                                    s                        frac. trans.

      isym =  1     identity                                     

 cryst.   s( 1) = (     1          0          0      )
                  (     0          1          0      )
                  (     0          0          1      )

 cart.    s( 1) = (  1.0000000  0.0000000  0.0000000 )
                  (  0.0000000  1.0000000  0.0000000 )
                  (  0.0000000  0.0000000  1.0000000 )


      isym =  2     180 deg rotation - cart. axis [0,0,1]        

 cryst.   s( 2) = (    -1          0          0      )
                  (     0         -1          0      )
                  (     0          0          1      )

 cart.    s( 2) = ( -1.0000000  0.0000000  0.0000000 )
                  (  0.0000000 -1.0000000  0.0000000 )
                  (  0.0000000  0.0000000  1.0000000 )


      isym =  3     180 deg rotation - cart. axis [0,1,0]        

 cryst.   s( 3) = (    -1          0          0      )
                  (     0          1          0      )
                  (     0          0         -1      )

 cart.    s( 3) = ( -1.0000000  0.0000000  0.0000000 )
                  (  0.0000000  1.0000000  0.0000000 )
                  (  0.0000000  0.0000000 -1.0000000 )


      isym =  4     180 deg rotation - cart. axis [1,0,0]        

 cryst.   s( 4) = (     1          0          0      )
                  (     0         -1          0      )
                  (     0          0         -1      )

 cart.    s( 4) = (  1.0000000  0.0000000  0.0000000 )
                  (  0.0000000 -1.0000000  0.0000000 )
                  (  0.0000000  0.0000000 -1.0000000 )


      isym =  5     180 deg rotation - cart. axis [1,1,0]        

 cryst.   s( 5) = (     0          1          0      )
                  (     1          0          0      )
                  (     0          0         -1      )

 cart.    s( 5) = (  0.0000000  1.0000000  0.0000000 )
                  (  1.0000000  0.0000000  0.0000000 )
                  (  0.0000000  0.0000000 -1.0000000 )


      isym =  6     180 deg rotation - cart. axis [1,-1,0]       

 cryst.   s( 6) = (     0         -1          0      )
                  (    -1          0          0      )
                  (     0          0         -1      )

 cart.    s( 6) = (  0.0000000 -1.0000000  0.0000000 )
                  ( -1.0000000  0.0000000  0.0000000 )
                  (  0.0000000  0.0000000 -1.0000000 )


      isym =  7      90 deg rotation - cart. axis [0,0,-1]       

 cryst.   s( 7) = (     0         -1          0      )
                  (     1          0          0      )
                  (     0          0          1      )

 cart.    s( 7) = (  0.0000000  1.0000000  0.0000000 )
                  ( -1.0000000  0.0000000  0.0000000 )
                  (  0.0000000  0.0000000  1.0000000 )


      isym =  8      90 deg rotation - cart. axis [0,0,1]        

 cryst.   s( 8) = (     0          1          0      )
                  (    -1          0          0      )
                  (     0          0          1      )

 cart.    s( 8) = (  0.0000000 -1.0000000  0.0000000 )
                  (  1.0000000  0.0000000  0.0000000 )
                  (  0.0000000  0.0000000  1.0000000 )


      isym =  9     inversion                                    

 cryst.   s( 9) = (    -1          0          0      )
                  (     0         -1          0      )
                  (     0          0         -1      )

 cart.    s( 9) = ( -1.0000000  0.0000000  0.0000000 )
                  (  0.0000000 -1.0000000  0.0000000 )
                  (  0.0000000  0.0000000 -1.0000000 )


      isym = 10     inv. 180 deg rotation - cart. axis [0,0,1]   

 cryst.   s(10) = (     1          0          0      )
                  (     0          1          0      )
                  (     0          0         -1      )

 cart.    s(10) = (  1.0000000  0.0000000  0.0000000 )
                  (  0.0000000  1.0000000  0.0000000 )
                  (  0.0000000  0.0000000 -1.0000000 )


      isym = 11     inv. 180 deg rotation - cart. axis [0,1,0]   

 cryst.   s(11) = (     1          0          0      )
                  (     0         -1          0      )
                  (     0          0          1      )

 cart.    s(11) = (  1.0000000  0.0000000  0.0000000 )
                  (  0.0000000 -1.0000000  0.0000000 )
                  (  0.0000000  0.0000000  1.0000000 )


      isym = 12     inv. 180 deg rotation - cart. axis [1,0,0]   

 cryst.   s(12) = (    -1          0          0      )
                  (     0          1          0      )
                  (     0          0          1      )

 cart.    s(12) = ( -1.0000000  0.0000000  0.0000000 )
                  (  0.0000000  1.0000000  0.0000000 )
                  (  0.0000000  0.0000000  1.0000000 )


      isym = 13     inv. 180 deg rotation - cart. axis [1,1,0]   

 cryst.   s(13) = (     0         -1          0      )
                  (    -1          0          0      )
                  (     0          0          1      )

 cart.    s(13) = (  0.0000000 -1.0000000  0.0000000 )
                  ( -1.0000000  0.0000000  0.0000000 )
                  (  0.0000000  0.0000000  1.0000000 )


      isym = 14     inv. 180 deg rotation - cart. axis [1,-1,0]  

 cryst.   s(14) = (     0          1          0      )
                  (     1          0          0      )
                  (     0          0          1      )

 cart.    s(14) = (  0.0000000  1.0000000  0.0000000 )
                  (  1.0000000  0.0000000  0.0000000 )
                  (  0.0000000  0.0000000  1.0000000 )


      isym = 15     inv.  90 deg rotation - cart. axis [0,0,-1]  

 cryst.   s(15) = (     0          1          0      )
                  (    -1          0          0      )
                  (     0          0         -1      )

 cart.    s(15) = (  0.0000000 -1.0000000  0.0000000 )
                  (  1.0000000  0.0000000  0.0000000 )
                  (  0.0000000  0.0000000 -1.0000000 )


      isym = 16     inv.  90 deg rotation - cart. axis [0,0,1]   

 cryst.   s(16) = (     0         -1          0      )
                  (     1          0          0      )
                  (     0          0         -1      )

 cart.    s(16) = (  0.0000000  1.0000000  0.0000000 )
                  ( -1.0000000  0.0000000  0.0000000 )
                  (  0.0000000  0.0000000 -1.0000000 )


   Cartesian axes

     site n.     atom                  positions (alat units)
         1           Al  tau(   1) = (   0.0000000   0.0000000   0.0000000  )
         2           Al  tau(   2) = (   0.5000000   0.5000000   0.0000000  )
         3           Al  tau(   3) = (   0.5000000   0.0000000   0.4768768  )
         4           Al  tau(   4) = (   0.0000000   0.5000000   0.4768768  )

   Crystallographic axes

     site n.     atom                  positions (cryst. coord.)
         1           Al  tau(   1) = (  0.0000000  0.0000000  0.0000000  )
         2           Al  tau(   2) = (  0.5000000  0.5000000  0.0000000  )
         3           Al  tau(   3) = (  0.5000000  0.0000000  0.5000000  )
         4           Al  tau(   4) = (  0.0000000  0.5000000  0.5000000  )

     number of k points=   550  Marzari-Vanderbilt smearing, width (Ry)=  0.0100
                       cart. coord. in units 2pi/alat
        k(    1) = (   0.0000000   0.0000000   0.0000000), wk =   0.0003429
        k(    2) = (   0.0000000   0.0000000   0.0582494), wk =   0.0006859
        k(    3) = (   0.0000000   0.0000000   0.1164988), wk =   0.0006859
        k(    4) = (   0.0000000   0.0000000   0.1747481), wk =   0.0006859
        k(    5) = (   0.0000000   0.0000000   0.2329975), wk =   0.0006859
        k(    6) = (   0.0000000   0.0000000   0.2912469), wk =   0.0006859
        k(    7) = (   0.0000000   0.0000000   0.3494963), wk =   0.0006859
        k(    8) = (   0.0000000   0.0000000   0.4077457), wk =   0.0006859
        k(    9) = (   0.0000000   0.0000000   0.4659950), wk =   0.0006859
        k(   10) = (   0.0000000   0.0000000  -0.5242444), wk =   0.0003429
        k(   11) = (   0.0000000   0.0555556   0.0000000), wk =   0.0013717
        k(   12) = (   0.0000000   0.0555556   0.0582494), wk =   0.0027435
        k(   13) = (   0.0000000   0.0555556   0.1164988), wk =   0.0027435
        k(   14) = (   0.0000000   0.0555556   0.1747481), wk =   0.0027435
        k(   15) = (   0.0000000   0.0555556   0.2329975), wk =   0.0027435
        k(   16) = (   0.0000000   0.0555556   0.2912469), wk =   0.0027435
        k(   17) = (   0.0000000   0.0555556   0.3494963), wk =   0.0027435
        k(   18) = (   0.0000000   0.0555556   0.4077457), wk =   0.0027435
        k(   19) = (   0.0000000   0.0555556   0.4659950), wk =   0.0027435
        k(   20) = (   0.0000000   0.0555556  -0.5242444), wk =   0.0013717
        k(   21) = (   0.0000000   0.1111111   0.0000000), wk =   0.0013717
        k(   22) = (   0.0000000   0.1111111   0.0582494), wk =   0.0027435
        k(   23) = (   0.0000000   0.1111111   0.1164988), wk =   0.0027435
        k(   24) = (   0.0000000   0.1111111   0.1747481), wk =   0.0027435
        k(   25) = (   0.0000000   0.1111111   0.2329975), wk =   0.0027435
        k(   26) = (   0.0000000   0.1111111   0.2912469), wk =   0.0027435
        k(   27) = (   0.0000000   0.1111111   0.3494963), wk =   0.0027435
        k(   28) = (   0.0000000   0.1111111   0.4077457), wk =   0.0027435
        k(   29) = (   0.0000000   0.1111111   0.4659950), wk =   0.0027435
        k(   30) = (   0.0000000   0.1111111  -0.5242444), wk =   0.0013717
        k(   31) = (   0.0000000   0.1666667   0.0000000), wk =   0.0013717
        k(   32) = (   0.0000000   0.1666667   0.0582494), wk =   0.0027435
        k(   33) = (   0.0000000   0.1666667   0.1164988), wk =   0.0027435
        k(   34) = (   0.0000000   0.1666667   0.1747481), wk =   0.0027435
        k(   35) = (   0.0000000   0.1666667   0.2329975), wk =   0.0027435
        k(   36) = (   0.0000000   0.1666667   0.2912469), wk =   0.0027435
        k(   37) = (   0.0000000   0.1666667   0.3494963), wk =   0.0027435
        k(   38) = (   0.0000000   0.1666667   0.4077457), wk =   0.0027435
        k(   39) = (   0.0000000   0.1666667   0.4659950), wk =   0.0027435
        k(   40) = (   0.0000000   0.1666667  -0.5242444), wk =   0.0013717
        k(   41) = (   0.0000000   0.2222222   0.0000000), wk =   0.0013717
        k(   42) = (   0.0000000   0.2222222   0.0582494), wk =   0.0027435
        k(   43) = (   0.0000000   0.2222222   0.1164988), wk =   0.0027435
        k(   44) = (   0.0000000   0.2222222   0.1747481), wk =   0.0027435
        k(   45) = (   0.0000000   0.2222222   0.2329975), wk =   0.0027435
        k(   46) = (   0.0000000   0.2222222   0.2912469), wk =   0.0027435
        k(   47) = (   0.0000000   0.2222222   0.3494963), wk =   0.0027435
        k(   48) = (   0.0000000   0.2222222   0.4077457), wk =   0.0027435
        k(   49) = (   0.0000000   0.2222222   0.4659950), wk =   0.0027435
        k(   50) = (   0.0000000   0.2222222  -0.5242444), wk =   0.0013717
        k(   51) = (   0.0000000   0.2777778   0.0000000), wk =   0.0013717
        k(   52) = (   0.0000000   0.2777778   0.0582494), wk =   0.0027435
        k(   53) = (   0.0000000   0.2777778   0.1164988), wk =   0.0027435
        k(   54) = (   0.0000000   0.2777778   0.1747481), wk =   0.0027435
        k(   55) = (   0.0000000   0.2777778   0.2329975), wk =   0.0027435
        k(   56) = (   0.0000000   0.2777778   0.2912469), wk =   0.0027435
        k(   57) = (   0.0000000   0.2777778   0.3494963), wk =   0.0027435
        k(   58) = (   0.0000000   0.2777778   0.4077457), wk =   0.0027435
        k(   59) = (   0.0000000   0.2777778   0.4659950), wk =   0.0027435
        k(   60) = (   0.0000000   0.2777778  -0.5242444), wk =   0.0013717
        k(   61) = (   0.0000000   0.3333333   0.0000000), wk =   0.0013717
        k(   62) = (   0.0000000   0.3333333   0.0582494), wk =   0.0027435
        k(   63) = (   0.0000000   0.3333333   0.1164988), wk =   0.0027435
        k(   64) = (   0.0000000   0.3333333   0.1747481), wk =   0.0027435
        k(   65) = (   0.0000000   0.3333333   0.2329975), wk =   0.0027435
        k(   66) = (   0.0000000   0.3333333   0.2912469), wk =   0.0027435
        k(   67) = (   0.0000000   0.3333333   0.3494963), wk =   0.0027435
        k(   68) = (   0.0000000   0.3333333   0.4077457), wk =   0.0027435
        k(   69) = (   0.0000000   0.3333333   0.4659950), wk =   0.0027435
        k(   70) = (   0.0000000   0.3333333  -0.5242444), wk =   0.0013717
        k(   71) = (   0.0000000   0.3888889   0.0000000), wk =   0.0013717
        k(   72) = (   0.0000000   0.3888889   0.0582494), wk =   0.0027435
        k(   73) = (   0.0000000   0.3888889   0.1164988), wk =   0.0027435
        k(   74) = (   0.0000000   0.3888889   0.1747481), wk =   0.0027435
        k(   75) = (   0.0000000   0.3888889   0.2329975), wk =   0.0027435
        k(   76) = (   0.0000000   0.3888889   0.2912469), wk =   0.0027435
        k(   77) = (   0.0000000   0.3888889   0.3494963), wk =   0.0027435
        k(   78) = (   0.0000000   0.3888889   0.4077457), wk =   0.0027435
        k(   79) = (   0.0000000   0.3888889   0.4659950), wk =   0.0027435
        k(   80) = (   0.0000000   0.3888889  -0.5242444), wk =   0.0013717
        k(   81) = (   0.0000000   0.4444444   0.0000000), wk =   0.0013717
        k(   82) = (   0.0000000   0.4444444   0.0582494), wk =   0.0027435
        k(   83) = (   0.0000000   0.4444444   0.1164988), wk =   0.0027435
        k(   84) = (   0.0000000   0.4444444   0.1747481), wk =   0.0027435
        k(   85) = (   0.0000000   0.4444444   0.2329975), wk =   0.0027435
        k(   86) = (   0.0000000   0.4444444   0.2912469), wk =   0.0027435
        k(   87) = (   0.0000000   0.4444444   0.3494963), wk =   0.0027435
        k(   88) = (   0.0000000   0.4444444   0.4077457), wk =   0.0027435
        k(   89) = (   0.0000000   0.4444444   0.4659950), wk =   0.0027435
        k(   90) = (   0.0000000   0.4444444  -0.5242444), wk =   0.0013717
        k(   91) = (   0.0000000  -0.5000000   0.0000000), wk =   0.0006859
        k(   92) = (   0.0000000  -0.5000000   0.0582494), wk =   0.0013717
        k(   93) = (   0.0000000  -0.5000000   0.1164988), wk =   0.0013717
        k(   94) = (   0.0000000  -0.5000000   0.1747481), wk =   0.0013717
        k(   95) = (   0.0000000  -0.5000000   0.2329975), wk =   0.0013717
        k(   96) = (   0.0000000  -0.5000000   0.2912469), wk =   0.0013717
        k(   97) = (   0.0000000  -0.5000000   0.3494963), wk =   0.0013717
        k(   98) = (   0.0000000  -0.5000000   0.4077457), wk =   0.0013717
        k(   99) = (   0.0000000  -0.5000000   0.4659950), wk =   0.0013717
        k(  100) = (   0.0000000  -0.5000000  -0.5242444), wk =   0.0006859
        k(  101) = (   0.0555556   0.0555556   0.0000000), wk =   0.0013717
        k(  102) = (   0.0555556   0.0555556   0.0582494), wk =   0.0027435
        k(  103) = (   0.0555556   0.0555556   0.1164988), wk =   0.0027435
        k(  104) = (   0.0555556   0.0555556   0.1747481), wk =   0.0027435
        k(  105) = (   0.0555556   0.0555556   0.2329975), wk =   0.0027435
        k(  106) = (   0.0555556   0.0555556   0.2912469), wk =   0.0027435
        k(  107) = (   0.0555556   0.0555556   0.3494963), wk =   0.0027435
        k(  108) = (   0.0555556   0.0555556   0.4077457), wk =   0.0027435
        k(  109) = (   0.0555556   0.0555556   0.4659950), wk =   0.0027435
        k(  110) = (   0.0555556   0.0555556  -0.5242444), wk =   0.0013717
        k(  111) = (   0.0555556   0.1111111   0.0000000), wk =   0.0027435
        k(  112) = (   0.0555556   0.1111111   0.0582494), wk =   0.0054870
        k(  113) = (   0.0555556   0.1111111   0.1164988), wk =   0.0054870
        k(  114) = (   0.0555556   0.1111111   0.1747481), wk =   0.0054870
        k(  115) = (   0.0555556   0.1111111   0.2329975), wk =   0.0054870
        k(  116) = (   0.0555556   0.1111111   0.2912469), wk =   0.0054870
        k(  117) = (   0.0555556   0.1111111   0.3494963), wk =   0.0054870
        k(  118) = (   0.0555556   0.1111111   0.4077457), wk =   0.0054870
        k(  119) = (   0.0555556   0.1111111   0.4659950), wk =   0.0054870
        k(  120) = (   0.0555556   0.1111111  -0.5242444), wk =   0.0027435
        k(  121) = (   0.0555556   0.1666667   0.0000000), wk =   0.0027435
        k(  122) = (   0.0555556   0.1666667   0.0582494), wk =   0.0054870
        k(  123) = (   0.0555556   0.1666667   0.1164988), wk =   0.0054870
        k(  124) = (   0.0555556   0.1666667   0.1747481), wk =   0.0054870
        k(  125) = (   0.0555556   0.1666667   0.2329975), wk =   0.0054870
        k(  126) = (   0.0555556   0.1666667   0.2912469), wk =   0.0054870
        k(  127) = (   0.0555556   0.1666667   0.3494963), wk =   0.0054870
        k(  128) = (   0.0555556   0.1666667   0.4077457), wk =   0.0054870
        k(  129) = (   0.0555556   0.1666667   0.4659950), wk =   0.0054870
        k(  130) = (   0.0555556   0.1666667  -0.5242444), wk =   0.0027435
        k(  131) = (   0.0555556   0.2222222   0.0000000), wk =   0.0027435
        k(  132) = (   0.0555556   0.2222222   0.0582494), wk =   0.0054870
        k(  133) = (   0.0555556   0.2222222   0.1164988), wk =   0.0054870
        k(  134) = (   0.0555556   0.2222222   0.1747481), wk =   0.0054870
        k(  135) = (   0.0555556   0.2222222   0.2329975), wk =   0.0054870
        k(  136) = (   0.0555556   0.2222222   0.2912469), wk =   0.0054870
        k(  137) = (   0.0555556   0.2222222   0.3494963), wk =   0.0054870
        k(  138) = (   0.0555556   0.2222222   0.4077457), wk =   0.0054870
        k(  139) = (   0.0555556   0.2222222   0.4659950), wk =   0.0054870
        k(  140) = (   0.0555556   0.2222222  -0.5242444), wk =   0.0027435
        k(  141) = (   0.0555556   0.2777778   0.0000000), wk =   0.0027435
        k(  142) = (   0.0555556   0.2777778   0.0582494), wk =   0.0054870
        k(  143) = (   0.0555556   0.2777778   0.1164988), wk =   0.0054870
        k(  144) = (   0.0555556   0.2777778   0.1747481), wk =   0.0054870
        k(  145) = (   0.0555556   0.2777778   0.2329975), wk =   0.0054870
        k(  146) = (   0.0555556   0.2777778   0.2912469), wk =   0.0054870
        k(  147) = (   0.0555556   0.2777778   0.3494963), wk =   0.0054870
        k(  148) = (   0.0555556   0.2777778   0.4077457), wk =   0.0054870
        k(  149) = (   0.0555556   0.2777778   0.4659950), wk =   0.0054870
        k(  150) = (   0.0555556   0.2777778  -0.5242444), wk =   0.0027435
        k(  151) = (   0.0555556   0.3333333   0.0000000), wk =   0.0027435
        k(  152) = (   0.0555556   0.3333333   0.0582494), wk =   0.0054870
        k(  153) = (   0.0555556   0.3333333   0.1164988), wk =   0.0054870
        k(  154) = (   0.0555556   0.3333333   0.1747481), wk =   0.0054870
        k(  155) = (   0.0555556   0.3333333   0.2329975), wk =   0.0054870
        k(  156) = (   0.0555556   0.3333333   0.2912469), wk =   0.0054870
        k(  157) = (   0.0555556   0.3333333   0.3494963), wk =   0.0054870
        k(  158) = (   0.0555556   0.3333333   0.4077457), wk =   0.0054870
        k(  159) = (   0.0555556   0.3333333   0.4659950), wk =   0.0054870
        k(  160) = (   0.0555556   0.3333333  -0.5242444), wk =   0.0027435
        k(  161) = (   0.0555556   0.3888889   0.0000000), wk =   0.0027435
        k(  162) = (   0.0555556   0.3888889   0.0582494), wk =   0.0054870
        k(  163) = (   0.0555556   0.3888889   0.1164988), wk =   0.0054870
        k(  164) = (   0.0555556   0.3888889   0.1747481), wk =   0.0054870
        k(  165) = (   0.0555556   0.3888889   0.2329975), wk =   0.0054870
        k(  166) = (   0.0555556   0.3888889   0.2912469), wk =   0.0054870
        k(  167) = (   0.0555556   0.3888889   0.3494963), wk =   0.0054870
        k(  168) = (   0.0555556   0.3888889   0.4077457), wk =   0.0054870
        k(  169) = (   0.0555556   0.3888889   0.4659950), wk =   0.0054870
        k(  170) = (   0.0555556   0.3888889  -0.5242444), wk =   0.0027435
        k(  171) = (   0.0555556   0.4444444   0.0000000), wk =   0.0027435
        k(  172) = (   0.0555556   0.4444444   0.0582494), wk =   0.0054870
        k(  173) = (   0.0555556   0.4444444   0.1164988), wk =   0.0054870
        k(  174) = (   0.0555556   0.4444444   0.1747481), wk =   0.0054870
        k(  175) = (   0.0555556   0.4444444   0.2329975), wk =   0.0054870
        k(  176) = (   0.0555556   0.4444444   0.2912469), wk =   0.0054870
        k(  177) = (   0.0555556   0.4444444   0.3494963), wk =   0.0054870
        k(  178) = (   0.0555556   0.4444444   0.4077457), wk =   0.0054870
        k(  179) = (   0.0555556   0.4444444   0.4659950), wk =   0.0054870
        k(  180) = (   0.0555556   0.4444444  -0.5242444), wk =   0.0027435
        k(  181) = (   0.0555556  -0.5000000   0.0000000), wk =   0.0013717
        k(  182) = (   0.0555556  -0.5000000   0.0582494), wk =   0.0027435
        k(  183) = (   0.0555556  -0.5000000   0.1164988), wk =   0.0027435
        k(  184) = (   0.0555556  -0.5000000   0.1747481), wk =   0.0027435
        k(  185) = (   0.0555556  -0.5000000   0.2329975), wk =   0.0027435
        k(  186) = (   0.0555556  -0.5000000   0.2912469), wk =   0.0027435
        k(  187) = (   0.0555556  -0.5000000   0.3494963), wk =   0.0027435
        k(  188) = (   0.0555556  -0.5000000   0.4077457), wk =   0.0027435
        k(  189) = (   0.0555556  -0.5000000   0.4659950), wk =   0.0027435
        k(  190) = (   0.0555556  -0.5000000  -0.5242444), wk =   0.0013717
        k(  191) = (   0.1111111   0.1111111   0.0000000), wk =   0.0013717
        k(  192) = (   0.1111111   0.1111111   0.0582494), wk =   0.0027435
        k(  193) = (   0.1111111   0.1111111   0.1164988), wk =   0.0027435
        k(  194) = (   0.1111111   0.1111111   0.1747481), wk =   0.0027435
        k(  195) = (   0.1111111   0.1111111   0.2329975), wk =   0.0027435
        k(  196) = (   0.1111111   0.1111111   0.2912469), wk =   0.0027435
        k(  197) = (   0.1111111   0.1111111   0.3494963), wk =   0.0027435
        k(  198) = (   0.1111111   0.1111111   0.4077457), wk =   0.0027435
        k(  199) = (   0.1111111   0.1111111   0.4659950), wk =   0.0027435
        k(  200) = (   0.1111111   0.1111111  -0.5242444), wk =   0.0013717
        k(  201) = (   0.1111111   0.1666667   0.0000000), wk =   0.0027435
        k(  202) = (   0.1111111   0.1666667   0.0582494), wk =   0.0054870
        k(  203) = (   0.1111111   0.1666667   0.1164988), wk =   0.0054870
        k(  204) = (   0.1111111   0.1666667   0.1747481), wk =   0.0054870
        k(  205) = (   0.1111111   0.1666667   0.2329975), wk =   0.0054870
        k(  206) = (   0.1111111   0.1666667   0.2912469), wk =   0.0054870
        k(  207) = (   0.1111111   0.1666667   0.3494963), wk =   0.0054870
        k(  208) = (   0.1111111   0.1666667   0.4077457), wk =   0.0054870
        k(  209) = (   0.1111111   0.1666667   0.4659950), wk =   0.0054870
        k(  210) = (   0.1111111   0.1666667  -0.5242444), wk =   0.0027435
        k(  211) = (   0.1111111   0.2222222   0.0000000), wk =   0.0027435
        k(  212) = (   0.1111111   0.2222222   0.0582494), wk =   0.0054870
        k(  213) = (   0.1111111   0.2222222   0.1164988), wk =   0.0054870
        k(  214) = (   0.1111111   0.2222222   0.1747481), wk =   0.0054870
        k(  215) = (   0.1111111   0.2222222   0.2329975), wk =   0.0054870
        k(  216) = (   0.1111111   0.2222222   0.2912469), wk =   0.0054870
        k(  217) = (   0.1111111   0.2222222   0.3494963), wk =   0.0054870
        k(  218) = (   0.1111111   0.2222222   0.4077457), wk =   0.0054870
        k(  219) = (   0.1111111   0.2222222   0.4659950), wk =   0.0054870
        k(  220) = (   0.1111111   0.2222222  -0.5242444), wk =   0.0027435
        k(  221) = (   0.1111111   0.2777778   0.0000000), wk =   0.0027435
        k(  222) = (   0.1111111   0.2777778   0.0582494), wk =   0.0054870
        k(  223) = (   0.1111111   0.2777778   0.1164988), wk =   0.0054870
        k(  224) = (   0.1111111   0.2777778   0.1747481), wk =   0.0054870
        k(  225) = (   0.1111111   0.2777778   0.2329975), wk =   0.0054870
        k(  226) = (   0.1111111   0.2777778   0.2912469), wk =   0.0054870
        k(  227) = (   0.1111111   0.2777778   0.3494963), wk =   0.0054870
        k(  228) = (   0.1111111   0.2777778   0.4077457), wk =   0.0054870
        k(  229) = (   0.1111111   0.2777778   0.4659950), wk =   0.0054870
        k(  230) = (   0.1111111   0.2777778  -0.5242444), wk =   0.0027435
        k(  231) = (   0.1111111   0.3333333   0.0000000), wk =   0.0027435
        k(  232) = (   0.1111111   0.3333333   0.0582494), wk =   0.0054870
        k(  233) = (   0.1111111   0.3333333   0.1164988), wk =   0.0054870
        k(  234) = (   0.1111111   0.3333333   0.1747481), wk =   0.0054870
        k(  235) = (   0.1111111   0.3333333   0.2329975), wk =   0.0054870
        k(  236) = (   0.1111111   0.3333333   0.2912469), wk =   0.0054870
        k(  237) = (   0.1111111   0.3333333   0.3494963), wk =   0.0054870
        k(  238) = (   0.1111111   0.3333333   0.4077457), wk =   0.0054870
        k(  239) = (   0.1111111   0.3333333   0.4659950), wk =   0.0054870
        k(  240) = (   0.1111111   0.3333333  -0.5242444), wk =   0.0027435
        k(  241) = (   0.1111111   0.3888889   0.0000000), wk =   0.0027435
        k(  242) = (   0.1111111   0.3888889   0.0582494), wk =   0.0054870
        k(  243) = (   0.1111111   0.3888889   0.1164988), wk =   0.0054870
        k(  244) = (   0.1111111   0.3888889   0.1747481), wk =   0.0054870
        k(  245) = (   0.1111111   0.3888889   0.2329975), wk =   0.0054870
        k(  246) = (   0.1111111   0.3888889   0.2912469), wk =   0.0054870
        k(  247) = (   0.1111111   0.3888889   0.3494963), wk =   0.0054870
        k(  248) = (   0.1111111   0.3888889   0.4077457), wk =   0.0054870
        k(  249) = (   0.1111111   0.3888889   0.4659950), wk =   0.0054870
        k(  250) = (   0.1111111   0.3888889  -0.5242444), wk =   0.0027435
        k(  251) = (   0.1111111   0.4444444   0.0000000), wk =   0.0027435
        k(  252) = (   0.1111111   0.4444444   0.0582494), wk =   0.0054870
        k(  253) = (   0.1111111   0.4444444   0.1164988), wk =   0.0054870
        k(  254) = (   0.1111111   0.4444444   0.1747481), wk =   0.0054870
        k(  255) = (   0.1111111   0.4444444   0.2329975), wk =   0.0054870
        k(  256) = (   0.1111111   0.4444444   0.2912469), wk =   0.0054870
        k(  257) = (   0.1111111   0.4444444   0.3494963), wk =   0.0054870
        k(  258) = (   0.1111111   0.4444444   0.4077457), wk =   0.0054870
        k(  259) = (   0.1111111   0.4444444   0.4659950), wk =   0.0054870
        k(  260) = (   0.1111111   0.4444444  -0.5242444), wk =   0.0027435
        k(  261) = (   0.1111111  -0.5000000   0.0000000), wk =   0.0013717
        k(  262) = (   0.1111111  -0.5000000   0.0582494), wk =   0.0027435
        k(  263) = (   0.1111111  -0.5000000   0.1164988), wk =   0.0027435
        k(  264) = (   0.1111111  -0.5000000   0.1747481), wk =   0.0027435
        k(  265) = (   0.1111111  -0.5000000   0.2329975), wk =   0.0027435
        k(  266) = (   0.1111111  -0.5000000   0.2912469), wk =   0.0027435
        k(  267) = (   0.1111111  -0.5000000   0.3494963), wk =   0.0027435
        k(  268) = (   0.1111111  -0.5000000   0.4077457), wk =   0.0027435
        k(  269) = (   0.1111111  -0.5000000   0.4659950), wk =   0.0027435
        k(  270) = (   0.1111111  -0.5000000  -0.5242444), wk =   0.0013717
        k(  271) = (   0.1666667   0.1666667   0.0000000), wk =   0.0013717
        k(  272) = (   0.1666667   0.1666667   0.0582494), wk =   0.0027435
        k(  273) = (   0.1666667   0.1666667   0.1164988), wk =   0.0027435
        k(  274) = (   0.1666667   0.1666667   0.1747481), wk =   0.0027435
        k(  275) = (   0.1666667   0.1666667   0.2329975), wk =   0.0027435
        k(  276) = (   0.1666667   0.1666667   0.2912469), wk =   0.0027435
        k(  277) = (   0.1666667   0.1666667   0.3494963), wk =   0.0027435
        k(  278) = (   0.1666667   0.1666667   0.4077457), wk =   0.0027435
        k(  279) = (   0.1666667   0.1666667   0.4659950), wk =   0.0027435
        k(  280) = (   0.1666667   0.1666667  -0.5242444), wk =   0.0013717
        k(  281) = (   0.1666667   0.2222222   0.0000000), wk =   0.0027435
        k(  282) = (   0.1666667   0.2222222   0.0582494), wk =   0.0054870
        k(  283) = (   0.1666667   0.2222222   0.1164988), wk =   0.0054870
        k(  284) = (   0.1666667   0.2222222   0.1747481), wk =   0.0054870
        k(  285) = (   0.1666667   0.2222222   0.2329975), wk =   0.0054870
        k(  286) = (   0.1666667   0.2222222   0.2912469), wk =   0.0054870
        k(  287) = (   0.1666667   0.2222222   0.3494963), wk =   0.0054870
        k(  288) = (   0.1666667   0.2222222   0.4077457), wk =   0.0054870
        k(  289) = (   0.1666667   0.2222222   0.4659950), wk =   0.0054870
        k(  290) = (   0.1666667   0.2222222  -0.5242444), wk =   0.0027435
        k(  291) = (   0.1666667   0.2777778   0.0000000), wk =   0.0027435
        k(  292) = (   0.1666667   0.2777778   0.0582494), wk =   0.0054870
        k(  293) = (   0.1666667   0.2777778   0.1164988), wk =   0.0054870
        k(  294) = (   0.1666667   0.2777778   0.1747481), wk =   0.0054870
        k(  295) = (   0.1666667   0.2777778   0.2329975), wk =   0.0054870
        k(  296) = (   0.1666667   0.2777778   0.2912469), wk =   0.0054870
        k(  297) = (   0.1666667   0.2777778   0.3494963), wk =   0.0054870
        k(  298) = (   0.1666667   0.2777778   0.4077457), wk =   0.0054870
        k(  299) = (   0.1666667   0.2777778   0.4659950), wk =   0.0054870
        k(  300) = (   0.1666667   0.2777778  -0.5242444), wk =   0.0027435
        k(  301) = (   0.1666667   0.3333333   0.0000000), wk =   0.0027435
        k(  302) = (   0.1666667   0.3333333   0.0582494), wk =   0.0054870
        k(  303) = (   0.1666667   0.3333333   0.1164988), wk =   0.0054870
        k(  304) = (   0.1666667   0.3333333   0.1747481), wk =   0.0054870
        k(  305) = (   0.1666667   0.3333333   0.2329975), wk =   0.0054870
        k(  306) = (   0.1666667   0.3333333   0.2912469), wk =   0.0054870
        k(  307) = (   0.1666667   0.3333333   0.3494963), wk =   0.0054870
        k(  308) = (   0.1666667   0.3333333   0.4077457), wk =   0.0054870
        k(  309) = (   0.1666667   0.3333333   0.4659950), wk =   0.0054870
        k(  310) = (   0.1666667   0.3333333  -0.5242444), wk =   0.0027435
        k(  311) = (   0.1666667   0.3888889   0.0000000), wk =   0.0027435
        k(  312) = (   0.1666667   0.3888889   0.0582494), wk =   0.0054870
        k(  313) = (   0.1666667   0.3888889   0.1164988), wk =   0.0054870
        k(  314) = (   0.1666667   0.3888889   0.1747481), wk =   0.0054870
        k(  315) = (   0.1666667   0.3888889   0.2329975), wk =   0.0054870
        k(  316) = (   0.1666667   0.3888889   0.2912469), wk =   0.0054870
        k(  317) = (   0.1666667   0.3888889   0.3494963), wk =   0.0054870
        k(  318) = (   0.1666667   0.3888889   0.4077457), wk =   0.0054870
        k(  319) = (   0.1666667   0.3888889   0.4659950), wk =   0.0054870
        k(  320) = (   0.1666667   0.3888889  -0.5242444), wk =   0.0027435
        k(  321) = (   0.1666667   0.4444444   0.0000000), wk =   0.0027435
        k(  322) = (   0.1666667   0.4444444   0.0582494), wk =   0.0054870
        k(  323) = (   0.1666667   0.4444444   0.1164988), wk =   0.0054870
        k(  324) = (   0.1666667   0.4444444   0.1747481), wk =   0.0054870
        k(  325) = (   0.1666667   0.4444444   0.2329975), wk =   0.0054870
        k(  326) = (   0.1666667   0.4444444   0.2912469), wk =   0.0054870
        k(  327) = (   0.1666667   0.4444444   0.3494963), wk =   0.0054870
        k(  328) = (   0.1666667   0.4444444   0.4077457), wk =   0.0054870
        k(  329) = (   0.1666667   0.4444444   0.4659950), wk =   0.0054870
        k(  330) = (   0.1666667   0.4444444  -0.5242444), wk =   0.0027435
        k(  331) = (   0.1666667  -0.5000000   0.0000000), wk =   0.0013717
        k(  332) = (   0.1666667  -0.5000000   0.0582494), wk =   0.0027435
        k(  333) = (   0.1666667  -0.5000000   0.1164988), wk =   0.0027435
        k(  334) = (   0.1666667  -0.5000000   0.1747481), wk =   0.0027435
        k(  335) = (   0.1666667  -0.5000000   0.2329975), wk =   0.0027435
        k(  336) = (   0.1666667  -0.5000000   0.2912469), wk =   0.0027435
        k(  337) = (   0.1666667  -0.5000000   0.3494963), wk =   0.0027435
        k(  338) = (   0.1666667  -0.5000000   0.4077457), wk =   0.0027435
        k(  339) = (   0.1666667  -0.5000000   0.4659950), wk =   0.0027435
        k(  340) = (   0.1666667  -0.5000000  -0.5242444), wk =   0.0013717
        k(  341) = (   0.2222222   0.2222222   0.0000000), wk =   0.0013717
        k(  342) = (   0.2222222   0.2222222   0.0582494), wk =   0.0027435
        k(  343) = (   0.2222222   0.2222222   0.1164988), wk =   0.0027435
        k(  344) = (   0.2222222   0.2222222   0.1747481), wk =   0.0027435
        k(  345) = (   0.2222222   0.2222222   0.2329975), wk =   0.0027435
        k(  346) = (   0.2222222   0.2222222   0.2912469), wk =   0.0027435
        k(  347) = (   0.2222222   0.2222222   0.3494963), wk =   0.0027435
        k(  348) = (   0.2222222   0.2222222   0.4077457), wk =   0.0027435
        k(  349) = (   0.2222222   0.2222222   0.4659950), wk =   0.0027435
        k(  350) = (   0.2222222   0.2222222  -0.5242444), wk =   0.0013717
        k(  351) = (   0.2222222   0.2777778   0.0000000), wk =   0.0027435
        k(  352) = (   0.2222222   0.2777778   0.0582494), wk =   0.0054870
        k(  353) = (   0.2222222   0.2777778   0.1164988), wk =   0.0054870
        k(  354) = (   0.2222222   0.2777778   0.1747481), wk =   0.0054870
        k(  355) = (   0.2222222   0.2777778   0.2329975), wk =   0.0054870
        k(  356) = (   0.2222222   0.2777778   0.2912469), wk =   0.0054870
        k(  357) = (   0.2222222   0.2777778   0.3494963), wk =   0.0054870
        k(  358) = (   0.2222222   0.2777778   0.4077457), wk =   0.0054870
        k(  359) = (   0.2222222   0.2777778   0.4659950), wk =   0.0054870
        k(  360) = (   0.2222222   0.2777778  -0.5242444), wk =   0.0027435
        k(  361) = (   0.2222222   0.3333333   0.0000000), wk =   0.0027435
        k(  362) = (   0.2222222   0.3333333   0.0582494), wk =   0.0054870
        k(  363) = (   0.2222222   0.3333333   0.1164988), wk =   0.0054870
        k(  364) = (   0.2222222   0.3333333   0.1747481), wk =   0.0054870
        k(  365) = (   0.2222222   0.3333333   0.2329975), wk =   0.0054870
        k(  366) = (   0.2222222   0.3333333   0.2912469), wk =   0.0054870
        k(  367) = (   0.2222222   0.3333333   0.3494963), wk =   0.0054870
        k(  368) = (   0.2222222   0.3333333   0.4077457), wk =   0.0054870
        k(  369) = (   0.2222222   0.3333333   0.4659950), wk =   0.0054870
        k(  370) = (   0.2222222   0.3333333  -0.5242444), wk =   0.0027435
        k(  371) = (   0.2222222   0.3888889   0.0000000), wk =   0.0027435
        k(  372) = (   0.2222222   0.3888889   0.0582494), wk =   0.0054870
        k(  373) = (   0.2222222   0.3888889   0.1164988), wk =   0.0054870
        k(  374) = (   0.2222222   0.3888889   0.1747481), wk =   0.0054870
        k(  375) = (   0.2222222   0.3888889   0.2329975), wk =   0.0054870
        k(  376) = (   0.2222222   0.3888889   0.2912469), wk =   0.0054870
        k(  377) = (   0.2222222   0.3888889   0.3494963), wk =   0.0054870
        k(  378) = (   0.2222222   0.3888889   0.4077457), wk =   0.0054870
        k(  379) = (   0.2222222   0.3888889   0.4659950), wk =   0.0054870
        k(  380) = (   0.2222222   0.3888889  -0.5242444), wk =   0.0027435
        k(  381) = (   0.2222222   0.4444444   0.0000000), wk =   0.0027435
        k(  382) = (   0.2222222   0.4444444   0.0582494), wk =   0.0054870
        k(  383) = (   0.2222222   0.4444444   0.1164988), wk =   0.0054870
        k(  384) = (   0.2222222   0.4444444   0.1747481), wk =   0.0054870
        k(  385) = (   0.2222222   0.4444444   0.2329975), wk =   0.0054870
        k(  386) = (   0.2222222   0.4444444   0.2912469), wk =   0.0054870
        k(  387) = (   0.2222222   0.4444444   0.3494963), wk =   0.0054870
        k(  388) = (   0.2222222   0.4444444   0.4077457), wk =   0.0054870
        k(  389) = (   0.2222222   0.4444444   0.4659950), wk =   0.0054870
        k(  390) = (   0.2222222   0.4444444  -0.5242444), wk =   0.0027435
        k(  391) = (   0.2222222  -0.5000000   0.0000000), wk =   0.0013717
        k(  392) = (   0.2222222  -0.5000000   0.0582494), wk =   0.0027435
        k(  393) = (   0.2222222  -0.5000000   0.1164988), wk =   0.0027435
        k(  394) = (   0.2222222  -0.5000000   0.1747481), wk =   0.0027435
        k(  395) = (   0.2222222  -0.5000000   0.2329975), wk =   0.0027435
        k(  396) = (   0.2222222  -0.5000000   0.2912469), wk =   0.0027435
        k(  397) = (   0.2222222  -0.5000000   0.3494963), wk =   0.0027435
        k(  398) = (   0.2222222  -0.5000000   0.4077457), wk =   0.0027435
        k(  399) = (   0.2222222  -0.5000000   0.4659950), wk =   0.0027435
        k(  400) = (   0.2222222  -0.5000000  -0.5242444), wk =   0.0013717
        k(  401) = (   0.2777778   0.2777778   0.0000000), wk =   0.0013717
        k(  402) = (   0.2777778   0.2777778   0.0582494), wk =   0.0027435
        k(  403) = (   0.2777778   0.2777778   0.1164988), wk =   0.0027435
        k(  404) = (   0.2777778   0.2777778   0.1747481), wk =   0.0027435
        k(  405) = (   0.2777778   0.2777778   0.2329975), wk =   0.0027435
        k(  406) = (   0.2777778   0.2777778   0.2912469), wk =   0.0027435
        k(  407) = (   0.2777778   0.2777778   0.3494963), wk =   0.0027435
        k(  408) = (   0.2777778   0.2777778   0.4077457), wk =   0.0027435
        k(  409) = (   0.2777778   0.2777778   0.4659950), wk =   0.0027435
        k(  410) = (   0.2777778   0.2777778  -0.5242444), wk =   0.0013717
        k(  411) = (   0.2777778   0.3333333   0.0000000), wk =   0.0027435
        k(  412) = (   0.2777778   0.3333333   0.0582494), wk =   0.0054870
        k(  413) = (   0.2777778   0.3333333   0.1164988), wk =   0.0054870
        k(  414) = (   0.2777778   0.3333333   0.1747481), wk =   0.0054870
        k(  415) = (   0.2777778   0.3333333   0.2329975), wk =   0.0054870
        k(  416) = (   0.2777778   0.3333333   0.2912469), wk =   0.0054870
        k(  417) = (   0.2777778   0.3333333   0.3494963), wk =   0.0054870
        k(  418) = (   0.2777778   0.3333333   0.4077457), wk =   0.0054870
        k(  419) = (   0.2777778   0.3333333   0.4659950), wk =   0.0054870
        k(  420) = (   0.2777778   0.3333333  -0.5242444), wk =   0.0027435
        k(  421) = (   0.2777778   0.3888889   0.0000000), wk =   0.0027435
        k(  422) = (   0.2777778   0.3888889   0.0582494), wk =   0.0054870
        k(  423) = (   0.2777778   0.3888889   0.1164988), wk =   0.0054870
        k(  424) = (   0.2777778   0.3888889   0.1747481), wk =   0.0054870
        k(  425) = (   0.2777778   0.3888889   0.2329975), wk =   0.0054870
        k(  426) = (   0.2777778   0.3888889   0.2912469), wk =   0.0054870
        k(  427) = (   0.2777778   0.3888889   0.3494963), wk =   0.0054870
        k(  428) = (   0.2777778   0.3888889   0.4077457), wk =   0.0054870
        k(  429) = (   0.2777778   0.3888889   0.4659950), wk =   0.0054870
        k(  430) = (   0.2777778   0.3888889  -0.5242444), wk =   0.0027435
        k(  431) = (   0.2777778   0.4444444   0.0000000), wk =   0.0027435
        k(  432) = (   0.2777778   0.4444444   0.0582494), wk =   0.0054870
        k(  433) = (   0.2777778   0.4444444   0.1164988), wk =   0.0054870
        k(  434) = (   0.2777778   0.4444444   0.1747481), wk =   0.0054870
        k(  435) = (   0.2777778   0.4444444   0.2329975), wk =   0.0054870
        k(  436) = (   0.2777778   0.4444444   0.2912469), wk =   0.0054870
        k(  437) = (   0.2777778   0.4444444   0.3494963), wk =   0.0054870
        k(  438) = (   0.2777778   0.4444444   0.4077457), wk =   0.0054870
        k(  439) = (   0.2777778   0.4444444   0.4659950), wk =   0.0054870
        k(  440) = (   0.2777778   0.4444444  -0.5242444), wk =   0.0027435
        k(  441) = (   0.2777778  -0.5000000   0.0000000), wk =   0.0013717
        k(  442) = (   0.2777778  -0.5000000   0.0582494), wk =   0.0027435
        k(  443) = (   0.2777778  -0.5000000   0.1164988), wk =   0.0027435
        k(  444) = (   0.2777778  -0.5000000   0.1747481), wk =   0.0027435
        k(  445) = (   0.2777778  -0.5000000   0.2329975), wk =   0.0027435
        k(  446) = (   0.2777778  -0.5000000   0.2912469), wk =   0.0027435
        k(  447) = (   0.2777778  -0.5000000   0.3494963), wk =   0.0027435
        k(  448) = (   0.2777778  -0.5000000   0.4077457), wk =   0.0027435
        k(  449) = (   0.2777778  -0.5000000   0.4659950), wk =   0.0027435
        k(  450) = (   0.2777778  -0.5000000  -0.5242444), wk =   0.0013717
        k(  451) = (   0.3333333   0.3333333   0.0000000), wk =   0.0013717
        k(  452) = (   0.3333333   0.3333333   0.0582494), wk =   0.0027435
        k(  453) = (   0.3333333   0.3333333   0.1164988), wk =   0.0027435
        k(  454) = (   0.3333333   0.3333333   0.1747481), wk =   0.0027435
        k(  455) = (   0.3333333   0.3333333   0.2329975), wk =   0.0027435
        k(  456) = (   0.3333333   0.3333333   0.2912469), wk =   0.0027435
        k(  457) = (   0.3333333   0.3333333   0.3494963), wk =   0.0027435
        k(  458) = (   0.3333333   0.3333333   0.4077457), wk =   0.0027435
        k(  459) = (   0.3333333   0.3333333   0.4659950), wk =   0.0027435
        k(  460) = (   0.3333333   0.3333333  -0.5242444), wk =   0.0013717
        k(  461) = (   0.3333333   0.3888889   0.0000000), wk =   0.0027435
        k(  462) = (   0.3333333   0.3888889   0.0582494), wk =   0.0054870
        k(  463) = (   0.3333333   0.3888889   0.1164988), wk =   0.0054870
        k(  464) = (   0.3333333   0.3888889   0.1747481), wk =   0.0054870
        k(  465) = (   0.3333333   0.3888889   0.2329975), wk =   0.0054870
        k(  466) = (   0.3333333   0.3888889   0.2912469), wk =   0.0054870
        k(  467) = (   0.3333333   0.3888889   0.3494963), wk =   0.0054870
        k(  468) = (   0.3333333   0.3888889   0.4077457), wk =   0.0054870
        k(  469) = (   0.3333333   0.3888889   0.4659950), wk =   0.0054870
        k(  470) = (   0.3333333   0.3888889  -0.5242444), wk =   0.0027435
        k(  471) = (   0.3333333   0.4444444   0.0000000), wk =   0.0027435
        k(  472) = (   0.3333333   0.4444444   0.0582494), wk =   0.0054870
        k(  473) = (   0.3333333   0.4444444   0.1164988), wk =   0.0054870
        k(  474) = (   0.3333333   0.4444444   0.1747481), wk =   0.0054870
        k(  475) = (   0.3333333   0.4444444   0.2329975), wk =   0.0054870
        k(  476) = (   0.3333333   0.4444444   0.2912469), wk =   0.0054870
        k(  477) = (   0.3333333   0.4444444   0.3494963), wk =   0.0054870
        k(  478) = (   0.3333333   0.4444444   0.4077457), wk =   0.0054870
        k(  479) = (   0.3333333   0.4444444   0.4659950), wk =   0.0054870
        k(  480) = (   0.3333333   0.4444444  -0.5242444), wk =   0.0027435
        k(  481) = (   0.3333333  -0.5000000   0.0000000), wk =   0.0013717
        k(  482) = (   0.3333333  -0.5000000   0.0582494), wk =   0.0027435
        k(  483) = (   0.3333333  -0.5000000   0.1164988), wk =   0.0027435
        k(  484) = (   0.3333333  -0.5000000   0.1747481), wk =   0.0027435
        k(  485) = (   0.3333333  -0.5000000   0.2329975), wk =   0.0027435
        k(  486) = (   0.3333333  -0.5000000   0.2912469), wk =   0.0027435
        k(  487) = (   0.3333333  -0.5000000   0.3494963), wk =   0.0027435
        k(  488) = (   0.3333333  -0.5000000   0.4077457), wk =   0.0027435
        k(  489) = (   0.3333333  -0.5000000   0.4659950), wk =   0.0027435
        k(  490) = (   0.3333333  -0.5000000  -0.5242444), wk =   0.0013717
        k(  491) = (   0.3888889   0.3888889   0.0000000), wk =   0.0013717
        k(  492) = (   0.3888889   0.3888889   0.0582494), wk =   0.0027435
        k(  493) = (   0.3888889   0.3888889   0.1164988), wk =   0.0027435
        k(  494) = (   0.3888889   0.3888889   0.1747481), wk =   0.0027435
        k(  495) = (   0.3888889   0.3888889   0.2329975), wk =   0.0027435
        k(  496) = (   0.3888889   0.3888889   0.2912469), wk =   0.0027435
        k(  497) = (   0.3888889   0.3888889   0.3494963), wk =   0.0027435
        k(  498) = (   0.3888889   0.3888889   0.4077457), wk =   0.0027435
        k(  499) = (   0.3888889   0.3888889   0.4659950), wk =   0.0027435
        k(  500) = (   0.3888889   0.3888889  -0.5242444), wk =   0.0013717
        k(  501) = (   0.3888889   0.4444444   0.0000000), wk =   0.0027435
        k(  502) = (   0.3888889   0.4444444   0.0582494), wk =   0.0054870
        k(  503) = (   0.3888889   0.4444444   0.1164988), wk =   0.0054870
        k(  504) = (   0.3888889   0.4444444   0.1747481), wk =   0.0054870
        k(  505) = (   0.3888889   0.4444444   0.2329975), wk =   0.0054870
        k(  506) = (   0.3888889   0.4444444   0.2912469), wk =   0.0054870
        k(  507) = (   0.3888889   0.4444444   0.3494963), wk =   0.0054870
        k(  508) = (   0.3888889   0.4444444   0.4077457), wk =   0.0054870
        k(  509) = (   0.3888889   0.4444444   0.4659950), wk =   0.0054870
        k(  510) = (   0.3888889   0.4444444  -0.5242444), wk =   0.0027435
        k(  511) = (   0.3888889  -0.5000000   0.0000000), wk =   0.0013717
        k(  512) = (   0.3888889  -0.5000000   0.0582494), wk =   0.0027435
        k(  513) = (   0.3888889  -0.5000000   0.1164988), wk =   0.0027435
        k(  514) = (   0.3888889  -0.5000000   0.1747481), wk =   0.0027435
        k(  515) = (   0.3888889  -0.5000000   0.2329975), wk =   0.0027435
        k(  516) = (   0.3888889  -0.5000000   0.2912469), wk =   0.0027435
        k(  517) = (   0.3888889  -0.5000000   0.3494963), wk =   0.0027435
        k(  518) = (   0.3888889  -0.5000000   0.4077457), wk =   0.0027435
        k(  519) = (   0.3888889  -0.5000000   0.4659950), wk =   0.0027435
        k(  520) = (   0.3888889  -0.5000000  -0.5242444), wk =   0.0013717
        k(  521) = (   0.4444444   0.4444444   0.0000000), wk =   0.0013717
        k(  522) = (   0.4444444   0.4444444   0.0582494), wk =   0.0027435
        k(  523) = (   0.4444444   0.4444444   0.1164988), wk =   0.0027435
        k(  524) = (   0.4444444   0.4444444   0.1747481), wk =   0.0027435
        k(  525) = (   0.4444444   0.4444444   0.2329975), wk =   0.0027435
        k(  526) = (   0.4444444   0.4444444   0.2912469), wk =   0.0027435
        k(  527) = (   0.4444444   0.4444444   0.3494963), wk =   0.0027435
        k(  528) = (   0.4444444   0.4444444   0.4077457), wk =   0.0027435
        k(  529) = (   0.4444444   0.4444444   0.4659950), wk =   0.0027435
        k(  530) = (   0.4444444   0.4444444  -0.5242444), wk =   0.0013717
        k(  531) = (   0.4444444  -0.5000000   0.0000000), wk =   0.0013717
        k(  532) = (   0.4444444  -0.5000000   0.0582494), wk =   0.0027435
        k(  533) = (   0.4444444  -0.5000000   0.1164988), wk =   0.0027435
        k(  534) = (   0.4444444  -0.5000000   0.1747481), wk =   0.0027435
        k(  535) = (   0.4444444  -0.5000000   0.2329975), wk =   0.0027435
        k(  536) = (   0.4444444  -0.5000000   0.2912469), wk =   0.0027435
        k(  537) = (   0.4444444  -0.5000000   0.3494963), wk =   0.0027435
        k(  538) = (   0.4444444  -0.5000000   0.4077457), wk =   0.0027435
        k(  539) = (   0.4444444  -0.5000000   0.4659950), wk =   0.0027435
        k(  540) = (   0.4444444  -0.5000000  -0.5242444), wk =   0.0013717
        k(  541) = (  -0.5000000  -0.5000000   0.0000000), wk =   0.0003429
        k(  542) = (  -0.5000000  -0.5000000   0.0582494), wk =   0.0006859
        k(  543) = (  -0.5000000  -0.5000000   0.1164988), wk =   0.0006859
        k(  544) = (  -0.5000000  -0.5000000   0.1747481), wk =   0.0006859
        k(  545) = (  -0.5000000  -0.5000000   0.2329975), wk =   0.0006859
        k(  546) = (  -0.5000000  -0.5000000   0.2912469), wk =   0.0006859
        k(  547) = (  -0.5000000  -0.5000000   0.3494963), wk =   0.0006859
        k(  548) = (  -0.5000000  -0.5000000   0.4077457), wk =   0.0006859
        k(  549) = (  -0.5000000  -0.5000000   0.4659950), wk =   0.0006859
        k(  550) = (  -0.5000000  -0.5000000  -0.5242444), wk =   0.0003429

                       cryst. coord.
        k(    1) = (   0.0000000   0.0000000   0.0000000), wk =   0.0003429
        k(    2) = (   0.0000000   0.0000000   0.0555556), wk =   0.0006859
        k(    3) = (   0.0000000   0.0000000   0.1111111), wk =   0.0006859
        k(    4) = (   0.0000000   0.0000000   0.1666667), wk =   0.0006859
        k(    5) = (   0.0000000   0.0000000   0.2222222), wk =   0.0006859
        k(    6) = (   0.0000000   0.0000000   0.2777778), wk =   0.0006859
        k(    7) = (   0.0000000   0.0000000   0.3333333), wk =   0.0006859
        k(    8) = (   0.0000000   0.0000000   0.3888889), wk =   0.0006859
        k(    9) = (   0.0000000   0.0000000   0.4444444), wk =   0.0006859
        k(   10) = (   0.0000000   0.0000000  -0.5000000), wk =   0.0003429
        k(   11) = (   0.0000000   0.0555556   0.0000000), wk =   0.0013717
        k(   12) = (   0.0000000   0.0555556   0.0555556), wk =   0.0027435
        k(   13) = (   0.0000000   0.0555556   0.1111111), wk =   0.0027435
        k(   14) = (   0.0000000   0.0555556   0.1666667), wk =   0.0027435
        k(   15) = (   0.0000000   0.0555556   0.2222222), wk =   0.0027435
        k(   16) = (   0.0000000   0.0555556   0.2777778), wk =   0.0027435
        k(   17) = (   0.0000000   0.0555556   0.3333333), wk =   0.0027435
        k(   18) = (   0.0000000   0.0555556   0.3888889), wk =   0.0027435
        k(   19) = (   0.0000000   0.0555556   0.4444444), wk =   0.0027435
        k(   20) = (   0.0000000   0.0555556  -0.5000000), wk =   0.0013717
        k(   21) = (   0.0000000   0.1111111   0.0000000), wk =   0.0013717
        k(   22) = (   0.0000000   0.1111111   0.0555556), wk =   0.0027435
        k(   23) = (   0.0000000   0.1111111   0.1111111), wk =   0.0027435
        k(   24) = (   0.0000000   0.1111111   0.1666667), wk =   0.0027435
        k(   25) = (   0.0000000   0.1111111   0.2222222), wk =   0.0027435
        k(   26) = (   0.0000000   0.1111111   0.2777778), wk =   0.0027435
        k(   27) = (   0.0000000   0.1111111   0.3333333), wk =   0.0027435
        k(   28) = (   0.0000000   0.1111111   0.3888889), wk =   0.0027435
        k(   29) = (   0.0000000   0.1111111   0.4444444), wk =   0.0027435
        k(   30) = (   0.0000000   0.1111111  -0.5000000), wk =   0.0013717
        k(   31) = (   0.0000000   0.1666667   0.0000000), wk =   0.0013717
        k(   32) = (   0.0000000   0.1666667   0.0555556), wk =   0.0027435
        k(   33) = (   0.0000000   0.1666667   0.1111111), wk =   0.0027435
        k(   34) = (   0.0000000   0.1666667   0.1666667), wk =   0.0027435
        k(   35) = (   0.0000000   0.1666667   0.2222222), wk =   0.0027435
        k(   36) = (   0.0000000   0.1666667   0.2777778), wk =   0.0027435
        k(   37) = (   0.0000000   0.1666667   0.3333333), wk =   0.0027435
        k(   38) = (   0.0000000   0.1666667   0.3888889), wk =   0.0027435
        k(   39) = (   0.0000000   0.1666667   0.4444444), wk =   0.0027435
        k(   40) = (   0.0000000   0.1666667  -0.5000000), wk =   0.0013717
        k(   41) = (   0.0000000   0.2222222   0.0000000), wk =   0.0013717
        k(   42) = (   0.0000000   0.2222222   0.0555556), wk =   0.0027435
        k(   43) = (   0.0000000   0.2222222   0.1111111), wk =   0.0027435
        k(   44) = (   0.0000000   0.2222222   0.1666667), wk =   0.0027435
        k(   45) = (   0.0000000   0.2222222   0.2222222), wk =   0.0027435
        k(   46) = (   0.0000000   0.2222222   0.2777778), wk =   0.0027435
        k(   47) = (   0.0000000   0.2222222   0.3333333), wk =   0.0027435
        k(   48) = (   0.0000000   0.2222222   0.3888889), wk =   0.0027435
        k(   49) = (   0.0000000   0.2222222   0.4444444), wk =   0.0027435
        k(   50) = (   0.0000000   0.2222222  -0.5000000), wk =   0.0013717
        k(   51) = (   0.0000000   0.2777778   0.0000000), wk =   0.0013717
        k(   52) = (   0.0000000   0.2777778   0.0555556), wk =   0.0027435
        k(   53) = (   0.0000000   0.2777778   0.1111111), wk =   0.0027435
        k(   54) = (   0.0000000   0.2777778   0.1666667), wk =   0.0027435
        k(   55) = (   0.0000000   0.2777778   0.2222222), wk =   0.0027435
        k(   56) = (   0.0000000   0.2777778   0.2777778), wk =   0.0027435
        k(   57) = (   0.0000000   0.2777778   0.3333333), wk =   0.0027435
        k(   58) = (   0.0000000   0.2777778   0.3888889), wk =   0.0027435
        k(   59) = (   0.0000000   0.2777778   0.4444444), wk =   0.0027435
        k(   60) = (   0.0000000   0.2777778  -0.5000000), wk =   0.0013717
        k(   61) = (   0.0000000   0.3333333   0.0000000), wk =   0.0013717
        k(   62) = (   0.0000000   0.3333333   0.0555556), wk =   0.0027435
        k(   63) = (   0.0000000   0.3333333   0.1111111), wk =   0.0027435
        k(   64) = (   0.0000000   0.3333333   0.1666667), wk =   0.0027435
        k(   65) = (   0.0000000   0.3333333   0.2222222), wk =   0.0027435
        k(   66) = (   0.0000000   0.3333333   0.2777778), wk =   0.0027435
        k(   67) = (   0.0000000   0.3333333   0.3333333), wk =   0.0027435
        k(   68) = (   0.0000000   0.3333333   0.3888889), wk =   0.0027435
        k(   69) = (   0.0000000   0.3333333   0.4444444), wk =   0.0027435
        k(   70) = (   0.0000000   0.3333333  -0.5000000), wk =   0.0013717
        k(   71) = (   0.0000000   0.3888889   0.0000000), wk =   0.0013717
        k(   72) = (   0.0000000   0.3888889   0.0555556), wk =   0.0027435
        k(   73) = (   0.0000000   0.3888889   0.1111111), wk =   0.0027435
        k(   74) = (   0.0000000   0.3888889   0.1666667), wk =   0.0027435
        k(   75) = (   0.0000000   0.3888889   0.2222222), wk =   0.0027435
        k(   76) = (   0.0000000   0.3888889   0.2777778), wk =   0.0027435
        k(   77) = (   0.0000000   0.3888889   0.3333333), wk =   0.0027435
        k(   78) = (   0.0000000   0.3888889   0.3888889), wk =   0.0027435
        k(   79) = (   0.0000000   0.3888889   0.4444444), wk =   0.0027435
        k(   80) = (   0.0000000   0.3888889  -0.5000000), wk =   0.0013717
        k(   81) = (   0.0000000   0.4444444   0.0000000), wk =   0.0013717
        k(   82) = (   0.0000000   0.4444444   0.0555556), wk =   0.0027435
        k(   83) = (   0.0000000   0.4444444   0.1111111), wk =   0.0027435
        k(   84) = (   0.0000000   0.4444444   0.1666667), wk =   0.0027435
        k(   85) = (   0.0000000   0.4444444   0.2222222), wk =   0.0027435
        k(   86) = (   0.0000000   0.4444444   0.2777778), wk =   0.0027435
        k(   87) = (   0.0000000   0.4444444   0.3333333), wk =   0.0027435
        k(   88) = (   0.0000000   0.4444444   0.3888889), wk =   0.0027435
        k(   89) = (   0.0000000   0.4444444   0.4444444), wk =   0.0027435
        k(   90) = (   0.0000000   0.4444444  -0.5000000), wk =   0.0013717
        k(   91) = (   0.0000000  -0.5000000   0.0000000), wk =   0.0006859
        k(   92) = (   0.0000000  -0.5000000   0.0555556), wk =   0.0013717
        k(   93) = (   0.0000000  -0.5000000   0.1111111), wk =   0.0013717
        k(   94) = (   0.0000000  -0.5000000   0.1666667), wk =   0.0013717
        k(   95) = (   0.0000000  -0.5000000   0.2222222), wk =   0.0013717
        k(   96) = (   0.0000000  -0.5000000   0.2777778), wk =   0.0013717
        k(   97) = (   0.0000000  -0.5000000   0.3333333), wk =   0.0013717
        k(   98) = (   0.0000000  -0.5000000   0.3888889), wk =   0.0013717
        k(   99) = (   0.0000000  -0.5000000   0.4444444), wk =   0.0013717
        k(  100) = (   0.0000000  -0.5000000  -0.5000000), wk =   0.0006859
        k(  101) = (   0.0555556   0.0555556   0.0000000), wk =   0.0013717
        k(  102) = (   0.0555556   0.0555556   0.0555556), wk =   0.0027435
        k(  103) = (   0.0555556   0.0555556   0.1111111), wk =   0.0027435
        k(  104) = (   0.0555556   0.0555556   0.1666667), wk =   0.0027435
        k(  105) = (   0.0555556   0.0555556   0.2222222), wk =   0.0027435
        k(  106) = (   0.0555556   0.0555556   0.2777778), wk =   0.0027435
        k(  107) = (   0.0555556   0.0555556   0.3333333), wk =   0.0027435
        k(  108) = (   0.0555556   0.0555556   0.3888889), wk =   0.0027435
        k(  109) = (   0.0555556   0.0555556   0.4444444), wk =   0.0027435
        k(  110) = (   0.0555556   0.0555556  -0.5000000), wk =   0.0013717
        k(  111) = (   0.0555556   0.1111111   0.0000000), wk =   0.0027435
        k(  112) = (   0.0555556   0.1111111   0.0555556), wk =   0.0054870
        k(  113) = (   0.0555556   0.1111111   0.1111111), wk =   0.0054870
        k(  114) = (   0.0555556   0.1111111   0.1666667), wk =   0.0054870
        k(  115) = (   0.0555556   0.1111111   0.2222222), wk =   0.0054870
        k(  116) = (   0.0555556   0.1111111   0.2777778), wk =   0.0054870
        k(  117) = (   0.0555556   0.1111111   0.3333333), wk =   0.0054870
        k(  118) = (   0.0555556   0.1111111   0.3888889), wk =   0.0054870
        k(  119) = (   0.0555556   0.1111111   0.4444444), wk =   0.0054870
        k(  120) = (   0.0555556   0.1111111  -0.5000000), wk =   0.0027435
        k(  121) = (   0.0555556   0.1666667   0.0000000), wk =   0.0027435
        k(  122) = (   0.0555556   0.1666667   0.0555556), wk =   0.0054870
        k(  123) = (   0.0555556   0.1666667   0.1111111), wk =   0.0054870
        k(  124) = (   0.0555556   0.1666667   0.1666667), wk =   0.0054870
        k(  125) = (   0.0555556   0.1666667   0.2222222), wk =   0.0054870
        k(  126) = (   0.0555556   0.1666667   0.2777778), wk =   0.0054870
        k(  127) = (   0.0555556   0.1666667   0.3333333), wk =   0.0054870
        k(  128) = (   0.0555556   0.1666667   0.3888889), wk =   0.0054870
        k(  129) = (   0.0555556   0.1666667   0.4444444), wk =   0.0054870
        k(  130) = (   0.0555556   0.1666667  -0.5000000), wk =   0.0027435
        k(  131) = (   0.0555556   0.2222222   0.0000000), wk =   0.0027435
        k(  132) = (   0.0555556   0.2222222   0.0555556), wk =   0.0054870
        k(  133) = (   0.0555556   0.2222222   0.1111111), wk =   0.0054870
        k(  134) = (   0.0555556   0.2222222   0.1666667), wk =   0.0054870
        k(  135) = (   0.0555556   0.2222222   0.2222222), wk =   0.0054870
        k(  136) = (   0.0555556   0.2222222   0.2777778), wk =   0.0054870
        k(  137) = (   0.0555556   0.2222222   0.3333333), wk =   0.0054870
        k(  138) = (   0.0555556   0.2222222   0.3888889), wk =   0.0054870
        k(  139) = (   0.0555556   0.2222222   0.4444444), wk =   0.0054870
        k(  140) = (   0.0555556   0.2222222  -0.5000000), wk =   0.0027435
        k(  141) = (   0.0555556   0.2777778   0.0000000), wk =   0.0027435
        k(  142) = (   0.0555556   0.2777778   0.0555556), wk =   0.0054870
        k(  143) = (   0.0555556   0.2777778   0.1111111), wk =   0.0054870
        k(  144) = (   0.0555556   0.2777778   0.1666667), wk =   0.0054870
        k(  145) = (   0.0555556   0.2777778   0.2222222), wk =   0.0054870
        k(  146) = (   0.0555556   0.2777778   0.2777778), wk =   0.0054870
        k(  147) = (   0.0555556   0.2777778   0.3333333), wk =   0.0054870
        k(  148) = (   0.0555556   0.2777778   0.3888889), wk =   0.0054870
        k(  149) = (   0.0555556   0.2777778   0.4444444), wk =   0.0054870
        k(  150) = (   0.0555556   0.2777778  -0.5000000), wk =   0.0027435
        k(  151) = (   0.0555556   0.3333333   0.0000000), wk =   0.0027435
        k(  152) = (   0.0555556   0.3333333   0.0555556), wk =   0.0054870
        k(  153) = (   0.0555556   0.3333333   0.1111111), wk =   0.0054870
        k(  154) = (   0.0555556   0.3333333   0.1666667), wk =   0.0054870
        k(  155) = (   0.0555556   0.3333333   0.2222222), wk =   0.0054870
        k(  156) = (   0.0555556   0.3333333   0.2777778), wk =   0.0054870
        k(  157) = (   0.0555556   0.3333333   0.3333333), wk =   0.0054870
        k(  158) = (   0.0555556   0.3333333   0.3888889), wk =   0.0054870
        k(  159) = (   0.0555556   0.3333333   0.4444444), wk =   0.0054870
        k(  160) = (   0.0555556   0.3333333  -0.5000000), wk =   0.0027435
        k(  161) = (   0.0555556   0.3888889   0.0000000), wk =   0.0027435
        k(  162) = (   0.0555556   0.3888889   0.0555556), wk =   0.0054870
        k(  163) = (   0.0555556   0.3888889   0.1111111), wk =   0.0054870
        k(  164) = (   0.0555556   0.3888889   0.1666667), wk =   0.0054870
        k(  165) = (   0.0555556   0.3888889   0.2222222), wk =   0.0054870
        k(  166) = (   0.0555556   0.3888889   0.2777778), wk =   0.0054870
        k(  167) = (   0.0555556   0.3888889   0.3333333), wk =   0.0054870
        k(  168) = (   0.0555556   0.3888889   0.3888889), wk =   0.0054870
        k(  169) = (   0.0555556   0.3888889   0.4444444), wk =   0.0054870
        k(  170) = (   0.0555556   0.3888889  -0.5000000), wk =   0.0027435
        k(  171) = (   0.0555556   0.4444444   0.0000000), wk =   0.0027435
        k(  172) = (   0.0555556   0.4444444   0.0555556), wk =   0.0054870
        k(  173) = (   0.0555556   0.4444444   0.1111111), wk =   0.0054870
        k(  174) = (   0.0555556   0.4444444   0.1666667), wk =   0.0054870
        k(  175) = (   0.0555556   0.4444444   0.2222222), wk =   0.0054870
        k(  176) = (   0.0555556   0.4444444   0.2777778), wk =   0.0054870
        k(  177) = (   0.0555556   0.4444444   0.3333333), wk =   0.0054870
        k(  178) = (   0.0555556   0.4444444   0.3888889), wk =   0.0054870
        k(  179) = (   0.0555556   0.4444444   0.4444444), wk =   0.0054870
        k(  180) = (   0.0555556   0.4444444  -0.5000000), wk =   0.0027435
        k(  181) = (   0.0555556  -0.5000000   0.0000000), wk =   0.0013717
        k(  182) = (   0.0555556  -0.5000000   0.0555556), wk =   0.0027435
        k(  183) = (   0.0555556  -0.5000000   0.1111111), wk =   0.0027435
        k(  184) = (   0.0555556  -0.5000000   0.1666667), wk =   0.0027435
        k(  185) = (   0.0555556  -0.5000000   0.2222222), wk =   0.0027435
        k(  186) = (   0.0555556  -0.5000000   0.2777778), wk =   0.0027435
        k(  187) = (   0.0555556  -0.5000000   0.3333333), wk =   0.0027435
        k(  188) = (   0.0555556  -0.5000000   0.3888889), wk =   0.0027435
        k(  189) = (   0.0555556  -0.5000000   0.4444444), wk =   0.0027435
        k(  190) = (   0.0555556  -0.5000000  -0.5000000), wk =   0.0013717
        k(  191) = (   0.1111111   0.1111111   0.0000000), wk =   0.0013717
        k(  192) = (   0.1111111   0.1111111   0.0555556), wk =   0.0027435
        k(  193) = (   0.1111111   0.1111111   0.1111111), wk =   0.0027435
        k(  194) = (   0.1111111   0.1111111   0.1666667), wk =   0.0027435
        k(  195) = (   0.1111111   0.1111111   0.2222222), wk =   0.0027435
        k(  196) = (   0.1111111   0.1111111   0.2777778), wk =   0.0027435
        k(  197) = (   0.1111111   0.1111111   0.3333333), wk =   0.0027435
        k(  198) = (   0.1111111   0.1111111   0.3888889), wk =   0.0027435
        k(  199) = (   0.1111111   0.1111111   0.4444444), wk =   0.0027435
        k(  200) = (   0.1111111   0.1111111  -0.5000000), wk =   0.0013717
        k(  201) = (   0.1111111   0.1666667   0.0000000), wk =   0.0027435
        k(  202) = (   0.1111111   0.1666667   0.0555556), wk =   0.0054870
        k(  203) = (   0.1111111   0.1666667   0.1111111), wk =   0.0054870
        k(  204) = (   0.1111111   0.1666667   0.1666667), wk =   0.0054870
        k(  205) = (   0.1111111   0.1666667   0.2222222), wk =   0.0054870
        k(  206) = (   0.1111111   0.1666667   0.2777778), wk =   0.0054870
        k(  207) = (   0.1111111   0.1666667   0.3333333), wk =   0.0054870
        k(  208) = (   0.1111111   0.1666667   0.3888889), wk =   0.0054870
        k(  209) = (   0.1111111   0.1666667   0.4444444), wk =   0.0054870
        k(  210) = (   0.1111111   0.1666667  -0.5000000), wk =   0.0027435
        k(  211) = (   0.1111111   0.2222222   0.0000000), wk =   0.0027435
        k(  212) = (   0.1111111   0.2222222   0.0555556), wk =   0.0054870
        k(  213) = (   0.1111111   0.2222222   0.1111111), wk =   0.0054870
        k(  214) = (   0.1111111   0.2222222   0.1666667), wk =   0.0054870
        k(  215) = (   0.1111111   0.2222222   0.2222222), wk =   0.0054870
        k(  216) = (   0.1111111   0.2222222   0.2777778), wk =   0.0054870
        k(  217) = (   0.1111111   0.2222222   0.3333333), wk =   0.0054870
        k(  218) = (   0.1111111   0.2222222   0.3888889), wk =   0.0054870
        k(  219) = (   0.1111111   0.2222222   0.4444444), wk =   0.0054870
        k(  220) = (   0.1111111   0.2222222  -0.5000000), wk =   0.0027435
        k(  221) = (   0.1111111   0.2777778   0.0000000), wk =   0.0027435
        k(  222) = (   0.1111111   0.2777778   0.0555556), wk =   0.0054870
        k(  223) = (   0.1111111   0.2777778   0.1111111), wk =   0.0054870
        k(  224) = (   0.1111111   0.2777778   0.1666667), wk =   0.0054870
        k(  225) = (   0.1111111   0.2777778   0.2222222), wk =   0.0054870
        k(  226) = (   0.1111111   0.2777778   0.2777778), wk =   0.0054870
        k(  227) = (   0.1111111   0.2777778   0.3333333), wk =   0.0054870
        k(  228) = (   0.1111111   0.2777778   0.3888889), wk =   0.0054870
        k(  229) = (   0.1111111   0.2777778   0.4444444), wk =   0.0054870
        k(  230) = (   0.1111111   0.2777778  -0.5000000), wk =   0.0027435
        k(  231) = (   0.1111111   0.3333333   0.0000000), wk =   0.0027435
        k(  232) = (   0.1111111   0.3333333   0.0555556), wk =   0.0054870
        k(  233) = (   0.1111111   0.3333333   0.1111111), wk =   0.0054870
        k(  234) = (   0.1111111   0.3333333   0.1666667), wk =   0.0054870
        k(  235) = (   0.1111111   0.3333333   0.2222222), wk =   0.0054870
        k(  236) = (   0.1111111   0.3333333   0.2777778), wk =   0.0054870
        k(  237) = (   0.1111111   0.3333333   0.3333333), wk =   0.0054870
        k(  238) = (   0.1111111   0.3333333   0.3888889), wk =   0.0054870
        k(  239) = (   0.1111111   0.3333333   0.4444444), wk =   0.0054870
        k(  240) = (   0.1111111   0.3333333  -0.5000000), wk =   0.0027435
        k(  241) = (   0.1111111   0.3888889   0.0000000), wk =   0.0027435
        k(  242) = (   0.1111111   0.3888889   0.0555556), wk =   0.0054870
        k(  243) = (   0.1111111   0.3888889   0.1111111), wk =   0.0054870
        k(  244) = (   0.1111111   0.3888889   0.1666667), wk =   0.0054870
        k(  245) = (   0.1111111   0.3888889   0.2222222), wk =   0.0054870
        k(  246) = (   0.1111111   0.3888889   0.2777778), wk =   0.0054870
        k(  247) = (   0.1111111   0.3888889   0.3333333), wk =   0.0054870
        k(  248) = (   0.1111111   0.3888889   0.3888889), wk =   0.0054870
        k(  249) = (   0.1111111   0.3888889   0.4444444), wk =   0.0054870
        k(  250) = (   0.1111111   0.3888889  -0.5000000), wk =   0.0027435
        k(  251) = (   0.1111111   0.4444444   0.0000000), wk =   0.0027435
        k(  252) = (   0.1111111   0.4444444   0.0555556), wk =   0.0054870
        k(  253) = (   0.1111111   0.4444444   0.1111111), wk =   0.0054870
        k(  254) = (   0.1111111   0.4444444   0.1666667), wk =   0.0054870
        k(  255) = (   0.1111111   0.4444444   0.2222222), wk =   0.0054870
        k(  256) = (   0.1111111   0.4444444   0.2777778), wk =   0.0054870
        k(  257) = (   0.1111111   0.4444444   0.3333333), wk =   0.0054870
        k(  258) = (   0.1111111   0.4444444   0.3888889), wk =   0.0054870
        k(  259) = (   0.1111111   0.4444444   0.4444444), wk =   0.0054870
        k(  260) = (   0.1111111   0.4444444  -0.5000000), wk =   0.0027435
        k(  261) = (   0.1111111  -0.5000000   0.0000000), wk =   0.0013717
        k(  262) = (   0.1111111  -0.5000000   0.0555556), wk =   0.0027435
        k(  263) = (   0.1111111  -0.5000000   0.1111111), wk =   0.0027435
        k(  264) = (   0.1111111  -0.5000000   0.1666667), wk =   0.0027435
        k(  265) = (   0.1111111  -0.5000000   0.2222222), wk =   0.0027435
        k(  266) = (   0.1111111  -0.5000000   0.2777778), wk =   0.0027435
        k(  267) = (   0.1111111  -0.5000000   0.3333333), wk =   0.0027435
        k(  268) = (   0.1111111  -0.5000000   0.3888889), wk =   0.0027435
        k(  269) = (   0.1111111  -0.5000000   0.4444444), wk =   0.0027435
        k(  270) = (   0.1111111  -0.5000000  -0.5000000), wk =   0.0013717
        k(  271) = (   0.1666667   0.1666667   0.0000000), wk =   0.0013717
        k(  272) = (   0.1666667   0.1666667   0.0555556), wk =   0.0027435
        k(  273) = (   0.1666667   0.1666667   0.1111111), wk =   0.0027435
        k(  274) = (   0.1666667   0.1666667   0.1666667), wk =   0.0027435
        k(  275) = (   0.1666667   0.1666667   0.2222222), wk =   0.0027435
        k(  276) = (   0.1666667   0.1666667   0.2777778), wk =   0.0027435
        k(  277) = (   0.1666667   0.1666667   0.3333333), wk =   0.0027435
        k(  278) = (   0.1666667   0.1666667   0.3888889), wk =   0.0027435
        k(  279) = (   0.1666667   0.1666667   0.4444444), wk =   0.0027435
        k(  280) = (   0.1666667   0.1666667  -0.5000000), wk =   0.0013717
        k(  281) = (   0.1666667   0.2222222   0.0000000), wk =   0.0027435
        k(  282) = (   0.1666667   0.2222222   0.0555556), wk =   0.0054870
        k(  283) = (   0.1666667   0.2222222   0.1111111), wk =   0.0054870
        k(  284) = (   0.1666667   0.2222222   0.1666667), wk =   0.0054870
        k(  285) = (   0.1666667   0.2222222   0.2222222), wk =   0.0054870
        k(  286) = (   0.1666667   0.2222222   0.2777778), wk =   0.0054870
        k(  287) = (   0.1666667   0.2222222   0.3333333), wk =   0.0054870
        k(  288) = (   0.1666667   0.2222222   0.3888889), wk =   0.0054870
        k(  289) = (   0.1666667   0.2222222   0.4444444), wk =   0.0054870
        k(  290) = (   0.1666667   0.2222222  -0.5000000), wk =   0.0027435
        k(  291) = (   0.1666667   0.2777778   0.0000000), wk =   0.0027435
        k(  292) = (   0.1666667   0.2777778   0.0555556), wk =   0.0054870
        k(  293) = (   0.1666667   0.2777778   0.1111111), wk =   0.0054870
        k(  294) = (   0.1666667   0.2777778   0.1666667), wk =   0.0054870
        k(  295) = (   0.1666667   0.2777778   0.2222222), wk =   0.0054870
        k(  296) = (   0.1666667   0.2777778   0.2777778), wk =   0.0054870
        k(  297) = (   0.1666667   0.2777778   0.3333333), wk =   0.0054870
        k(  298) = (   0.1666667   0.2777778   0.3888889), wk =   0.0054870
        k(  299) = (   0.1666667   0.2777778   0.4444444), wk =   0.0054870
        k(  300) = (   0.1666667   0.2777778  -0.5000000), wk =   0.0027435
        k(  301) = (   0.1666667   0.3333333   0.0000000), wk =   0.0027435
        k(  302) = (   0.1666667   0.3333333   0.0555556), wk =   0.0054870
        k(  303) = (   0.1666667   0.3333333   0.1111111), wk =   0.0054870
        k(  304) = (   0.1666667   0.3333333   0.1666667), wk =   0.0054870
        k(  305) = (   0.1666667   0.3333333   0.2222222), wk =   0.0054870
        k(  306) = (   0.1666667   0.3333333   0.2777778), wk =   0.0054870
        k(  307) = (   0.1666667   0.3333333   0.3333333), wk =   0.0054870
        k(  308) = (   0.1666667   0.3333333   0.3888889), wk =   0.0054870
        k(  309) = (   0.1666667   0.3333333   0.4444444), wk =   0.0054870
        k(  310) = (   0.1666667   0.3333333  -0.5000000), wk =   0.0027435
        k(  311) = (   0.1666667   0.3888889   0.0000000), wk =   0.0027435
        k(  312) = (   0.1666667   0.3888889   0.0555556), wk =   0.0054870
        k(  313) = (   0.1666667   0.3888889   0.1111111), wk =   0.0054870
        k(  314) = (   0.1666667   0.3888889   0.1666667), wk =   0.0054870
        k(  315) = (   0.1666667   0.3888889   0.2222222), wk =   0.0054870
        k(  316) = (   0.1666667   0.3888889   0.2777778), wk =   0.0054870
        k(  317) = (   0.1666667   0.3888889   0.3333333), wk =   0.0054870
        k(  318) = (   0.1666667   0.3888889   0.3888889), wk =   0.0054870
        k(  319) = (   0.1666667   0.3888889   0.4444444), wk =   0.0054870
        k(  320) = (   0.1666667   0.3888889  -0.5000000), wk =   0.0027435
        k(  321) = (   0.1666667   0.4444444   0.0000000), wk =   0.0027435
        k(  322) = (   0.1666667   0.4444444   0.0555556), wk =   0.0054870
        k(  323) = (   0.1666667   0.4444444   0.1111111), wk =   0.0054870
        k(  324) = (   0.1666667   0.4444444   0.1666667), wk =   0.0054870
        k(  325) = (   0.1666667   0.4444444   0.2222222), wk =   0.0054870
        k(  326) = (   0.1666667   0.4444444   0.2777778), wk =   0.0054870
        k(  327) = (   0.1666667   0.4444444   0.3333333), wk =   0.0054870
        k(  328) = (   0.1666667   0.4444444   0.3888889), wk =   0.0054870
        k(  329) = (   0.1666667   0.4444444   0.4444444), wk =   0.0054870
        k(  330) = (   0.1666667   0.4444444  -0.5000000), wk =   0.0027435
        k(  331) = (   0.1666667  -0.5000000   0.0000000), wk =   0.0013717
        k(  332) = (   0.1666667  -0.5000000   0.0555556), wk =   0.0027435
        k(  333) = (   0.1666667  -0.5000000   0.1111111), wk =   0.0027435
        k(  334) = (   0.1666667  -0.5000000   0.1666667), wk =   0.0027435
        k(  335) = (   0.1666667  -0.5000000   0.2222222), wk =   0.0027435
        k(  336) = (   0.1666667  -0.5000000   0.2777778), wk =   0.0027435
        k(  337) = (   0.1666667  -0.5000000   0.3333333), wk =   0.0027435
        k(  338) = (   0.1666667  -0.5000000   0.3888889), wk =   0.0027435
        k(  339) = (   0.1666667  -0.5000000   0.4444444), wk =   0.0027435
        k(  340) = (   0.1666667  -0.5000000  -0.5000000), wk =   0.0013717
        k(  341) = (   0.2222222   0.2222222   0.0000000), wk =   0.0013717
        k(  342) = (   0.2222222   0.2222222   0.0555556), wk =   0.0027435
        k(  343) = (   0.2222222   0.2222222   0.1111111), wk =   0.0027435
        k(  344) = (   0.2222222   0.2222222   0.1666667), wk =   0.0027435
        k(  345) = (   0.2222222   0.2222222   0.2222222), wk =   0.0027435
        k(  346) = (   0.2222222   0.2222222   0.2777778), wk =   0.0027435
        k(  347) = (   0.2222222   0.2222222   0.3333333), wk =   0.0027435
        k(  348) = (   0.2222222   0.2222222   0.3888889), wk =   0.0027435
        k(  349) = (   0.2222222   0.2222222   0.4444444), wk =   0.0027435
        k(  350) = (   0.2222222   0.2222222  -0.5000000), wk =   0.0013717
        k(  351) = (   0.2222222   0.2777778   0.0000000), wk =   0.0027435
        k(  352) = (   0.2222222   0.2777778   0.0555556), wk =   0.0054870
        k(  353) = (   0.2222222   0.2777778   0.1111111), wk =   0.0054870
        k(  354) = (   0.2222222   0.2777778   0.1666667), wk =   0.0054870
        k(  355) = (   0.2222222   0.2777778   0.2222222), wk =   0.0054870
        k(  356) = (   0.2222222   0.2777778   0.2777778), wk =   0.0054870
        k(  357) = (   0.2222222   0.2777778   0.3333333), wk =   0.0054870
        k(  358) = (   0.2222222   0.2777778   0.3888889), wk =   0.0054870
[...]
    12.0237  12.0581

     occupation numbers 
     1.0000   1.0000   1.0000   1.0000   0.6698   0.0000   0.0000   0.0000
     0.0000   0.0000

          k = 0.3889 0.3889 0.0582 (   904 PWs)   bands (ev):

    -0.3407   1.6272   1.6272   3.5666   7.9266   9.7828   9.7828  10.6800
    11.6322  12.5027

     occupation numbers 
     1.0000   1.0000   1.0000   1.0000   1.0001   0.0000   0.0000   0.0000
     0.0000   0.0000

          k = 0.3889 0.3889 0.1165 (   902 PWs)   bands (ev):

    -0.2499   1.7167   1.7167   3.6536   7.1204   8.9891   8.9891  10.8493
    11.6384  13.4269

     occupation numbers 
     1.0000   1.0000   1.0000   1.0000   1.0000   0.0000   0.0000   0.0000
     0.0000   0.0000

          k = 0.3889 0.3889 0.1747 (   893 PWs)   bands (ev):

    -0.0987   1.8657   1.8657   3.7972   6.2784   8.1557   8.1557  10.0255
    12.7340  14.4470

     occupation numbers 
     1.0000   1.0000   1.0000   1.0000   1.0000   1.0462   1.0462   0.0000
     0.0000   0.0000

          k = 0.3889 0.3889 0.2330 (   894 PWs)   bands (ev):

     0.1127   2.0738   2.0738   3.9929   5.4684   7.3464   7.3464   9.2247
    13.9015  15.2394

     occupation numbers 
     1.0000   1.0000   1.0000   1.0000   1.0000   1.0000   1.0000   0.0000
     0.0000   0.0000

          k = 0.3889 0.3889 0.2912 (   902 PWs)   bands (ev):

     0.3840   2.3407   2.3407   4.1991   4.7491   6.5794   6.5794   8.4651
    15.1196  15.5875

     occupation numbers 
     1.0000   1.0000   1.0000   1.0000   1.0000   1.0000   1.0000   0.2076
     0.0000   0.0000

          k = 0.3889 0.3889 0.3495 (   898 PWs)   bands (ev):

     0.7149   2.6653   2.6653   3.8772   4.6657   5.8622   5.8622   7.7535
    15.9017  15.9017

     occupation numbers 
     1.0000   1.0000   1.0000   1.0000   1.0000   1.0000   1.0000   1.0000
     0.0000   0.0000

          k = 0.3889 0.3889 0.4077 (   903 PWs)   bands (ev):

     1.1048   3.0456   3.0456   3.2329   5.0154   5.2000   5.2000   7.0938
    16.2494  16.2495

     occupation numbers 
     1.0000   1.0000   1.0000   1.0000   1.0000   1.0000   1.0000   1.0000
     0.0000   0.0000

          k = 0.3889 0.3889 0.4660 (   905 PWs)   bands (ev):

     1.5530   2.6199   3.4727   3.4727   4.6032   4.6032   5.4461   6.4881
    16.6274  16.6276

     occupation numbers 
     1.0000   1.0000   1.0000   1.0000   1.0000   1.0000   1.0000   1.0000
     0.0000   0.0000

          k = 0.3889 0.3889-0.5242 (   910 PWs)   bands (ev):

     2.0586   2.0586   3.8133   3.8133   4.2059   4.2059   5.9382   5.9382
    17.2781  17.2791

     occupation numbers 
     1.0000   1.0000   1.0000   1.0000   1.0000   1.0000   1.0000   1.0000
     0.0000   0.0000

          k = 0.3889 0.4444 0.0000 (   905 PWs)   bands (ev):

     0.0416   1.0265   2.0043   2.9752   8.7553   9.6786  10.5777  10.6009
    11.5003  11.5217

     occupation numbers 
     1.0000   1.0000   1.0000   1.0000   0.0000   0.0000   0.0000   0.0000
     0.0000   0.0000

          k = 0.3889 0.4444 0.0582 (   906 PWs)   bands (ev):

     0.0718   1.0565   2.0340   3.0046   8.3143   9.2428  10.1697  11.0689
    11.0947  11.9839

     occupation numbers 
     1.0000   1.0000   1.0000   1.0000   0.9374   0.0000   0.0000   0.0000
     0.0000   0.0000

          k = 0.3889 0.4444 0.1165 (   902 PWs)   bands (ev):

     0.1623   1.1464   2.1232   3.0927   7.5107   8.4459   9.3788  10.3094
    12.0226  12.9230

     occupation numbers 
     1.0000   1.0000   1.0000   1.0000   1.0000   0.2817   0.0000   0.0000
     0.0000   0.0000

          k = 0.3889 0.4444 0.1747 (   898 PWs)   bands (ev):

     0.3131   1.2960   2.2715   3.2388   6.6692   7.6093   8.5473   9.4828
    13.1132  13.9888

     occupation numbers 
     1.0000   1.0000   1.0000   1.0000   1.0000   1.0000   0.0371   0.0000
     0.0000   0.0000

          k = 0.3889 0.4444 0.2330 (   894 PWs)   bands (ev):

     0.5239   1.5053   2.4787   3.4417   5.8550   6.7974   7.7397   8.6796
    14.2734  15.0837

     occupation numbers 
     1.0000   1.0000   1.0000   1.0000   1.0000   1.0000   1.0000   0.0005
     0.0000   0.0000

          k = 0.3889 0.4444 0.2912 (   898 PWs)   bands (ev):

     0.7944   1.7736   2.7439   3.6959   5.0906   6.0285   6.9738   7.9175
    15.4783  15.8693

     occupation numbers 
     1.0000   1.0000   1.0000   1.0000   1.0000   1.0000   1.0000   1.0000
     0.0000   0.0000

          k = 0.3889 0.4444 0.3495 (   895 PWs)   bands (ev):

     1.1242   2.1006   3.0653   3.9480   4.4361   5.3111   6.2571   7.2038
    16.2351  16.6704

     occupation numbers 
     1.0000   1.0000   1.0000   1.0000   1.0000   1.0000   1.0000   1.0000
     0.0000   0.0000

          k = 0.3889 0.4444 0.4077 (   907 PWs)   bands (ev):

     1.5128   2.4850   3.4356   3.6117   4.4807   4.6555   5.5935   6.5423
    16.5929  17.2447

     occupation numbers 
     1.0000   1.0000   1.0000   1.0000   1.0000   1.0000   1.0000   1.0000
     0.0000   0.0000

          k = 0.3889 0.4444 0.4660 (   911 PWs)   bands (ev):

     1.9593   2.9246   3.0184   3.7578   4.1604   4.8948   4.9874   5.9352
    16.9859  17.6475

     occupation numbers 
     1.0000   1.0000   1.0000   1.0000   1.0000   1.0000   1.0000   1.0000
     0.0000   0.0000

          k = 0.3889 0.4444-0.5242 (   916 PWs)   bands (ev):

     2.4623   2.4623   3.4087   3.4087   4.4497   4.4497   5.3849   5.3849
    17.4073  17.4073

     occupation numbers 
     1.0000   1.0000   1.0000   1.0000   1.0000   1.0000   1.0000   1.0000
     0.0000   0.0000

          k = 0.3889-0.5000 0.0000 (   904 PWs)   bands (ev):

     0.5076   0.5076   2.4638   2.4638   9.1914   9.1914  11.0168  11.0169
    11.0359  11.0359

     occupation numbers 
     1.0000   1.0000   1.0000   1.0000   0.0000   0.0000   0.0000   0.0000
     0.0000   0.0000

          k = 0.3889-0.5000 0.0582 (   900 PWs)   bands (ev):

     0.5377   0.5377   2.4934   2.4934   8.7531   8.7532  10.6071  10.6071
    11.5044  11.5044

     occupation numbers 
     1.0000   1.0000   1.0000   1.0000   0.0000   0.0000   0.0000   0.0000
     0.0000   0.0000

          k = 0.3889-0.5000 0.1165 (   902 PWs)   bands (ev):

     0.6279   0.6280   2.5821   2.5821   7.9528   7.9528   9.8190   9.8190
    12.4520  12.4520

     occupation numbers 
     1.0000   1.0000   1.0000   1.0000   1.0002   1.0002   0.0000   0.0000
     0.0000   0.0000

          k = 0.3889-0.5000 0.1747 (   896 PWs)   bands (ev):

     0.7782   0.7782   2.7296   2.7296   7.1134   7.1134   8.9899   8.9899
    13.5339  13.5339

     occupation numbers 
     1.0000   1.0000   1.0000   1.0000   1.0000   1.0000   0.0000   0.0000
     0.0000   0.0000

          k = 0.3889-0.5000 0.2330 (   890 PWs)   bands (ev):

     0.9883   0.9883   2.9353   2.9353   6.2996   6.2996   8.1843   8.1843
    14.6784  14.6784

     occupation numbers 
     1.0000   1.0000   1.0000   1.0000   1.0000   1.0000   1.0657   1.0657
     0.0000   0.0000

          k = 0.3889-0.5000 0.2912 (   894 PWs)   bands (ev):

     1.2578   1.2579   3.1975   3.1975   5.5304   5.5304   7.4201   7.4201
    15.8293  15.8294

     occupation numbers 
     1.0000   1.0000   1.0000   1.0000   1.0000   1.0000   1.0000   1.0000
     0.0000   0.0000

          k = 0.3889-0.5000 0.3495 (   898 PWs)   bands (ev):

     1.5864   1.5864   3.5100   3.5101   4.8185   4.8186   6.7047   6.7047
    16.5620  16.5621

     occupation numbers 
     1.0000   1.0000   1.0000   1.0000   1.0000   1.0000   1.0000   1.0000
     0.0000   0.0000

          k = 0.3889-0.5000 0.4077 (   906 PWs)   bands (ev):

     1.9733   1.9733   3.8017   3.8019   4.2382   4.2383   6.0417   6.0417
    16.9444  16.9445

     occupation numbers 
     1.0000   1.0000   1.0000   1.0000   1.0000   1.0000   1.0000   1.0000
     0.0000   0.0000

          k = 0.3889-0.5000 0.4660 (   910 PWs)   bands (ev):

     2.4173   2.4173   3.4552   3.4552   4.4087   4.4088   5.4341   5.4341
    17.3434  17.3436

     occupation numbers 
     1.0000   1.0000   1.0000   1.0000   1.0000   1.0000   1.0000   1.0000
     0.0000   0.0000

          k = 0.3889-0.5000-0.5242 (   904 PWs)   bands (ev):

     2.9154   2.9154   2.9156   2.9156   4.8853   4.8854   4.8855   4.8856
    17.7777  17.7779

     occupation numbers 
     1.0000   1.0000   1.0000   1.0000   1.0000   1.0000   1.0000   1.0000
     0.0000   0.0000

          k = 0.4444 0.4444 0.0000 (   910 PWs)   bands (ev):

     0.4530   1.4351   1.4351   2.4103   9.1401  10.0629  10.0629  10.9711
    10.9846  11.8962

     occupation numbers 
     1.0000   1.0000   1.0000   1.0000   0.0000   0.0000   0.0000   0.0000
     0.0000   0.0000

          k = 0.4444 0.4444 0.0582 (   906 PWs)   bands (ev):

     0.4831   1.4650   1.4650   2.4399   8.7019   9.6300   9.6300  10.5563
    11.4591  12.3774

     occupation numbers 
     1.0000   1.0000   1.0000   1.0000   0.0002   0.0000   0.0000   0.0000
     0.0000   0.0000

          k = 0.4444 0.4444 0.1165 (   898 PWs)   bands (ev):

     0.5734   1.5546   1.5546   2.5287   7.9012   8.8360   8.8360   9.7683
    12.4090  13.3156

     occupation numbers 
     1.0000   1.0000   1.0000   1.0000   1.0000   0.0000   0.0000   0.0000
     0.0000   0.0000

          k = 0.4444 0.4444 0.1747 (   894 PWs)   bands (ev):

     0.7237   1.7038   1.7038   2.6762   7.0615   8.0015   8.0015   8.9389
    13.4960  14.3867

     occupation numbers 
     1.0000   1.0000   1.0000   1.0000   1.0000   1.0010   1.0010   0.0000
     0.0000   0.0000

          k = 0.4444 0.4444 0.2330 (   896 PWs)   bands (ev):

     0.9338   1.9122   1.9122   2.8820   6.2472   7.1911   7.1911   8.1330
    14.6529  15.5170

     occupation numbers 
     1.0000   1.0000   1.0000   1.0000   1.0000   1.0000   1.0000   1.0320
     0.0000   0.0000

          k = 0.4444 0.4444 0.2912 (   898 PWs)   bands (ev):

     1.2035   2.1794   2.1794   3.1444   5.4776   6.4230   6.4230   7.3685
    15.8563  16.6551

     occupation numbers 
     1.0000   1.0000   1.0000   1.0000   1.0000   1.0000   1.0000   1.0000
     0.0000   0.0000

          k = 0.4444 0.4444 0.3495 (   898 PWs)   bands (ev):

     1.5322   2.5045   2.5045   3.4571   4.7653   5.7047   5.7047   6.6528
    17.0886  17.4029

     occupation numbers 
     1.0000   1.0000   1.0000   1.0000   1.0000   1.0000   1.0000   1.0000
     0.0000   0.0000

          k = 0.4444 0.4444 0.4077 (   901 PWs)   bands (ev):

     1.9193   2.8854   2.8854   3.7494   4.1844   5.0415   5.0415   5.9895
    17.7700  17.7703

     occupation numbers 
     1.0000   1.0000   1.0000   1.0000   1.0000   1.0000   1.0000   1.0000
     0.0000   0.0000

          k = 0.4444 0.4444 0.4660 (   910 PWs)   bands (ev):

     2.3635   3.3135   3.3135   3.4020   4.3556   4.4435   4.4435   5.3816
    18.1498  18.1499

     occupation numbers 
     1.0000   1.0000   1.0000   1.0000   1.0000   1.0000   1.0000   1.0000
     0.0000   0.0000

          k = 0.4444 0.4444-0.5242 (   912 PWs)   bands (ev):

     2.8619   2.8619   3.6562   3.6562   4.0440   4.0440   4.8327   4.8327
    18.6706  18.6711

     occupation numbers 
     1.0000   1.0000   1.0000   1.0000   1.0000   1.0000   1.0000   1.0000
     0.0000   0.0000

          k = 0.4444-0.5000 0.0000 (   906 PWs)   bands (ev):

     0.9177   0.9177   1.8966   1.8966   9.5759   9.5760  10.4983  10.4983
    11.4112  11.4113

     occupation numbers 
     1.0000   1.0000   1.0000   1.0000   0.0000   0.0000   0.0000   0.0000
     0.0000   0.0000

          k = 0.4444-0.5000 0.0582 (   906 PWs)   bands (ev):

     0.9477   0.9477   1.9264   1.9264   9.1406   9.1406  10.0679  10.0680
    11.8958  11.8958

     occupation numbers 
     1.0000   1.0000   1.0000   1.0000   0.0000   0.0000   0.0000   0.0000
     0.0000   0.0000

          k = 0.4444-0.5000 0.1165 (   896 PWs)   bands (ev):

     1.0377   1.0377   2.0156   2.0156   8.3432   8.3432   9.2769   9.2770
    12.8405  12.8406

     occupation numbers 
     1.0000   1.0000   1.0000   1.0000   0.8121   0.8120   0.0000   0.0000
     0.0000   0.0000

          k = 0.4444-0.5000 0.1747 (   894 PWs)   bands (ev):

     1.1875   1.1875   2.1641   2.1641   7.5059   7.5059   8.4449   8.4449
    13.9213  13.9214

     occupation numbers 
     1.0000   1.0000   1.0000   1.0000   1.0000   1.0000   0.2859   0.2858
     0.0000   0.0000

          k = 0.4444-0.5000 0.2330 (   896 PWs)   bands (ev):

     1.3969   1.3969   2.3715   2.3715   6.6932   6.6932   7.6365   7.6366
    15.0691  15.0692

     occupation numbers 
     1.0000   1.0000   1.0000   1.0000   1.0000   1.0000   1.0000   1.0000
     0.0000   0.0000

          k = 0.4444-0.5000 0.2912 (   900 PWs)   bands (ev):

     1.6655   1.6655   2.6369   2.6370   5.9235   5.9235   6.8700   6.8700
    16.2566  16.2568

     occupation numbers 
     1.0000   1.0000   1.0000   1.0000   1.0000   1.0000   1.0000   1.0000
     0.0000   0.0000

          k = 0.4444-0.5000 0.3495 (   902 PWs)   bands (ev):

     1.9927   1.9927   2.9587   2.9587   5.2053   5.2054   6.1526   6.1526
    17.4341  17.4342

     occupation numbers 
     1.0000   1.0000   1.0000   1.0000   1.0000   1.0000   1.0000   1.0000
     0.0000   0.0000

          k = 0.4444-0.5000 0.4077 (   904 PWs)   bands (ev):

     2.3775   2.3776   3.3295   3.3296   4.5489   4.5490   5.4885   5.4885
    18.0180  18.0180

     occupation numbers 
     1.0000   1.0000   1.0000   1.0000   1.0000   1.0000   1.0000   1.0000
     0.0000   0.0000

          k = 0.4444-0.5000 0.4660 (   904 PWs)   bands (ev):

     2.8175   2.8175   3.6530   3.6531   4.0523   4.0525   4.8816   4.8817
    18.4122  18.4123

     occupation numbers 
     1.0000   1.0000   1.0000   1.0000   1.0000   1.0000   1.0000   1.0000
     0.0000   0.0000

          k = 0.4444-0.5000-0.5242 (   908 PWs)   bands (ev):

     3.3023   3.3023   3.3024   3.3025   4.3431   4.3432   4.3433   4.3433
    18.8375  18.8378

     occupation numbers 
     1.0000   1.0000   1.0000   1.0000   1.0000   1.0000   1.0000   1.0000
     0.0000   0.0000

          k =-0.5000-0.5000 0.0000 (   896 PWs)   bands (ev):

     1.3809   1.3810   1.3810   1.3810  10.0116  10.0116  10.0116  10.0117
    11.8514  11.8514

     occupation numbers 
     1.0000   1.0000   1.0000   1.0000   0.0000   0.0000   0.0000   0.0000
     0.0000   0.0000

          k =-0.5000-0.5000 0.0582 (   912 PWs)   bands (ev):

     1.4108   1.4108   1.4108   1.4109   9.5789   9.5790   9.5790   9.5790
    12.3329  12.3329

     occupation numbers 
     1.0000   1.0000   1.0000   1.0000   0.0000   0.0000   0.0000   0.0000
     0.0000   0.0000

          k =-0.5000-0.5000 0.1165 (   888 PWs)   bands (ev):

     1.5005   1.5005   1.5005   1.5005   8.7848   8.7848   8.7848   8.7848
    13.2731  13.2731

     occupation numbers 
     1.0000   1.0000   1.0000   1.0000   0.0000   0.0000   0.0000   0.0000
     0.0000   0.0000

          k =-0.5000-0.5000 0.1747 (   896 PWs)   bands (ev):

     1.6497   1.6497   1.6497   1.6497   7.9499   7.9499   7.9499   7.9500
    14.3489  14.3489

     occupation numbers 
     1.0000   1.0000   1.0000   1.0000   1.0002   1.0002   1.0002   1.0002
     0.0000   0.0000

          k =-0.5000-0.5000 0.2330 (   896 PWs)   bands (ev):

     1.8582   1.8582   1.8582   1.8583   7.1392   7.1392   7.1392   7.1392
    15.4907  15.4908

     occupation numbers 
     1.0000   1.0000   1.0000   1.0000   1.0000   1.0000   1.0000   1.0000
     0.0000   0.0000

          k =-0.5000-0.5000 0.2912 (   892 PWs)   bands (ev):

     2.1256   2.1256   2.1256   2.1256   6.3707   6.3707   6.3707   6.3707
    16.6711  16.6711

     occupation numbers 
     1.0000   1.0000   1.0000   1.0000   1.0000   1.0000   1.0000   1.0000
     0.0000   0.0000

          k =-0.5000-0.5000 0.3495 (   904 PWs)   bands (ev):

     2.4508   2.4508   2.4508   2.4509   5.6521   5.6521   5.6521   5.6521
    17.8619  17.8619

     occupation numbers 
     1.0000   1.0000   1.0000   1.0000   1.0000   1.0000   1.0000   1.0000
     0.0000   0.0000

          k =-0.5000-0.5000 0.4077 (   908 PWs)   bands (ev):

     2.8319   2.8319   2.8319   2.8320   4.9885   4.9885   4.9885   4.9885
    18.7775  18.7778

     occupation numbers 
     1.0000   1.0000   1.0000   1.0000   1.0000   1.0000   1.0000   1.0000
     0.0000   0.0000

          k =-0.5000-0.5000 0.4660 (   912 PWs)   bands (ev):

     3.2603   3.2603   3.2603   3.2604   4.3901   4.3901   4.3901   4.3902
    19.1698  19.1700

     occupation numbers 
     1.0000   1.0000   1.0000   1.0000   1.0000   1.0000   1.0000   1.0000
     0.0000   0.0000

          k =-0.5000-0.5000-0.5242 (   920 PWs)   bands (ev):

     3.6037   3.6038   3.6038   3.6040   3.9897   3.9899   3.9899   3.9900
    19.6532  19.6534

     occupation numbers 
     1.0000   1.0000   1.0000   1.0000   1.0000   1.0000   1.0000   1.0000
     0.0000   0.0000

     the Fermi energy is     8.4202 ev

!    total energy              =     -26.82639566 Ry
     Harris-Foulkes estimate   =     -26.82639567 Ry
     estimated scf accuracy    <       0.00000003 Ry

     The total energy is the sum of the following terms:

     one-electron contribution =      12.39018086 Ry
     hartree contribution      =       0.03479009 Ry
     xc contribution           =     -17.28246510 Ry
     ewald contribution        =     -21.96884514 Ry
     smearing contrib. (-TS)   =      -0.00005637 Ry

     convergence has been achieved in   5 iterations
 
     init_run     :    230.08s CPU     50.93s WALL (       1 calls)
     electrons    :   4354.39s CPU    695.16s WALL (       1 calls)

     Called by init_run:
     wfcinit      :    229.72s CPU     50.16s WALL (       1 calls)
     wfcinit:atom :      0.62s CPU      0.12s WALL (     550 calls)
     wfcinit:wfcr :    226.25s CPU     49.49s WALL (     550 calls)
     potinit      :      0.07s CPU      0.05s WALL (       1 calls)

     Called by electrons:
     c_bands      :   4122.24s CPU    657.96s WALL (       6 calls)
     sum_band     :    229.59s CPU     36.80s WALL (       6 calls)
     v_of_rho     :      1.07s CPU      0.18s WALL (       6 calls)
     v_h          :      0.01s CPU      0.00s WALL (       6 calls)
     v_xc         :      1.06s CPU      0.18s WALL (       6 calls)
     newd         :      1.08s CPU      0.19s WALL (       6 calls)
     mix_rho      :      0.24s CPU      0.04s WALL (       6 calls)

     Called by c_bands:
     init_us_2    :     15.23s CPU      2.26s WALL (    7150 calls)
     cegterg      :   4084.53s CPU    652.74s WALL (    3300 calls)

     Called by sum_band:
     sum_band:bec :      0.68s CPU      0.10s WALL (    3300 calls)
     addusdens    :      0.68s CPU      0.12s WALL (       6 calls)

     Called by *egterg:
     h_psi        :   2741.63s CPU    449.62s WALL (   11551 calls)
     s_psi        :    314.15s CPU     48.27s WALL (   11551 calls)
     g_psi        :      3.01s CPU      0.40s WALL (    7701 calls)
     cdiaghg      :    126.85s CPU     20.13s WALL (   10451 calls)
     cegterg:over :    386.10s CPU     70.67s WALL (    7701 calls)
     cegterg:upda :    427.08s CPU     63.06s WALL (    7701 calls)
     cegterg:last :     96.71s CPU     14.85s WALL (    3303 calls)

     Called by h_psi:
     h_psi:pot    :   2737.53s CPU    449.05s WALL (   11551 calls)
     h_psi:calbec :    396.75s CPU     58.76s WALL (   11551 calls)
     vloc_psi     :   1997.58s CPU    338.57s WALL (   11551 calls)
     add_vuspsi   :    340.60s CPU     51.40s WALL (   11551 calls)

     General routines
     calbec       :    559.77s CPU     85.52s WALL (   14851 calls)
     fft          :      1.37s CPU      0.25s WALL (      80 calls)
     fftw         :   1993.28s CPU    338.48s WALL (  216270 calls)
 
     Parallel routines
 
     PWSCF        :     1h16m CPU        0h12m WALL

 
   This run was terminated on:  17:15:27  24Jan2019            

=------------------------------------------------------------------------------=
   JOB DONE.
=------------------------------------------------------------------------------=
