
     Program PWSCF v.6.2 (svn rev. 14038) starts on 30Jan2019 at 19: 9:12 

     This program is part of the open-source Quantum ESPRESSO suite
     for quantum simulation of materials; please cite
         "P. Giannozzi et al., J. Phys.:Condens. Matter 21 395502 (2009);
         "P. Giannozzi et al., J. Phys.:Condens. Matter 29 465901 (2017);
          URL http://www.quantum-espresso.org", 
     in publications or presentations arising from this work. More details at
     http://www.quantum-espresso.org/quote

     Parallel version (MPI), running on     1 processors

     MPI processes distributed on     1 nodes
     Reading input from ./Alkpoint20.in
Warning: card &IONS ignored
Warning: card / ignored
Warning: card &CELL ignored
Warning: card / ignored

     Current dimensions of program PWSCF are:
     Max number of different atomic species (ntypx) = 10
     Max number of k-points (npk) =  40000
     Max angular momentum in pseudopotentials (lmaxx) =  3
     Message from routine iosys:
     minimal I/O required, wf_collect reset to FALSE

     Subspace diagonalization in iterative solution of the eigenvalue problem:
     a serial algorithm will be used

 
     G-vector sticks info
     --------------------
     sticks:   dense  smooth     PW     G-vecs:    dense   smooth      PW
     Sum         283     283    129                 3103     3103     887
 


     bravais-lattice index     =            0
     lattice parameter (alat)  =       5.2705  a.u.
     unit-cell volume          =     112.7033 (a.u.)^3
     number of atoms/cell      =            1
     number of atomic types    =            1
     number of electrons       =         3.00
     number of Kohn-Sham states=            6
     kinetic-energy cutoff     =      35.0000  Ry
     charge density cutoff     =     140.0000  Ry
     convergence threshold     =      1.0E-06
     mixing beta               =       0.7000
     number of iterations used =            8  plain     mixing
     Exchange-correlation      = SLA  PW   PBE  PBE ( 1  4  3  4 0 0)

     celldm(1)=   5.270512  celldm(2)=   0.000000  celldm(3)=   0.000000
     celldm(4)=   0.000000  celldm(5)=   0.000000  celldm(6)=   0.000000

     crystal axes: (cart. coord. in units of alat)
               a(1) = (   0.577350   0.577350   0.577350 )  
               a(2) = (   0.577350  -0.577350  -0.577350 )  
               a(3) = (  -0.577350   0.577350  -0.577350 )  

     reciprocal axes: (cart. coord. in units 2 pi/alat)
               b(1) = (  0.866025  0.866025  0.000000 )  
               b(2) = (  0.866025  0.000000 -0.866025 )  
               b(3) = (  0.000000  0.866025 -0.866025 )  


     PseudoPot. # 1 for Al read from file:
     ./al_pbe_v1.uspp.F.UPF
     MD5 check sum: 0a6289f5291fc8f409219462bc851e1f
     Pseudo is Ultrasoft + core correction, Zval =  3.0
     Generated by new atomic code, or converted to UPF format
     Using radial grid of  893 points,  3 beta functions with: 
                l(1) =   0
                l(2) =   1
                l(3) =   2
     Q(r) pseudized with  8 coefficients,  rinner =    0.900   0.900   0.900
                                                       0.900   0.900

     atomic species   valence    mass     pseudopotential
        Al             3.00    26.98150     Al( 1.00)

     48 Sym. Ops., with inversion, found


                                    s                        frac. trans.

      isym =  1     identity                                     

 cryst.   s( 1) = (     1          0          0      )
                  (     0          1          0      )
                  (     0          0          1      )

 cart.    s( 1) = (  1.0000000  0.0000000  0.0000000 )
                  (  0.0000000  1.0000000  0.0000000 )
                  (  0.0000000  0.0000000  1.0000000 )


      isym =  2     180 deg rotation - cart. axis [0,0,1]        

 cryst.   s( 2) = (    -1         -1         -1      )
                  (     0          0          1      )
                  (     0          1          0      )

 cart.    s( 2) = ( -1.0000000  0.0000000  0.0000000 )
                  (  0.0000000 -1.0000000  0.0000000 )
                  (  0.0000000  0.0000000  1.0000000 )


      isym =  3     180 deg rotation - cart. axis [0,1,0]        

 cryst.   s( 3) = (     0          0          1      )
                  (    -1         -1         -1      )
                  (     1          0          0      )

 cart.    s( 3) = ( -1.0000000  0.0000000  0.0000000 )
                  (  0.0000000  1.0000000  0.0000000 )
                  (  0.0000000  0.0000000 -1.0000000 )


      isym =  4     180 deg rotation - cart. axis [1,0,0]        

 cryst.   s( 4) = (     0          1          0      )
                  (     1          0          0      )
                  (    -1         -1         -1      )

 cart.    s( 4) = (  1.0000000  0.0000000  0.0000000 )
                  (  0.0000000 -1.0000000  0.0000000 )
                  (  0.0000000  0.0000000 -1.0000000 )


      isym =  5     180 deg rotation - cart. axis [1,1,0]        

 cryst.   s( 5) = (     1          1          1      )
                  (     0         -1          0      )
                  (     0          0         -1      )

 cart.    s( 5) = (  0.0000000  1.0000000  0.0000000 )
                  (  1.0000000  0.0000000  0.0000000 )
                  (  0.0000000  0.0000000 -1.0000000 )


      isym =  6     180 deg rotation - cart. axis [1,-1,0]       

 cryst.   s( 6) = (    -1          0          0      )
                  (     0          0         -1      )
                  (     0         -1          0      )

 cart.    s( 6) = (  0.0000000 -1.0000000  0.0000000 )
                  ( -1.0000000  0.0000000  0.0000000 )
                  (  0.0000000  0.0000000 -1.0000000 )


      isym =  7      90 deg rotation - cart. axis [0,0,-1]       

 cryst.   s( 7) = (     0          0         -1      )
                  (    -1          0          0      )
                  (     1          1          1      )

 cart.    s( 7) = (  0.0000000  1.0000000  0.0000000 )
                  ( -1.0000000  0.0000000  0.0000000 )
                  (  0.0000000  0.0000000  1.0000000 )


      isym =  8      90 deg rotation - cart. axis [0,0,1]        

 cryst.   s( 8) = (     0         -1          0      )
                  (     1          1          1      )
                  (    -1          0          0      )

 cart.    s( 8) = (  0.0000000 -1.0000000  0.0000000 )
                  (  1.0000000  0.0000000  0.0000000 )
                  (  0.0000000  0.0000000  1.0000000 )


      isym =  9     180 deg rotation - cart. axis [1,0,1]        

 cryst.   s( 9) = (     0          0         -1      )
                  (     0         -1          0      )
                  (    -1          0          0      )

 cart.    s( 9) = (  0.0000000  0.0000000  1.0000000 )
                  (  0.0000000 -1.0000000  0.0000000 )
                  (  1.0000000  0.0000000  0.0000000 )


      isym = 10     180 deg rotation - cart. axis [-1,0,1]       

 cryst.   s(10) = (    -1          0          0      )
                  (     1          1          1      )
                  (     0          0         -1      )

 cart.    s(10) = (  0.0000000  0.0000000 -1.0000000 )
                  (  0.0000000 -1.0000000  0.0000000 )
                  ( -1.0000000  0.0000000  0.0000000 )


      isym = 11      90 deg rotation - cart. axis [0,1,0]        

 cryst.   s(11) = (     1          1          1      )
                  (    -1          0          0      )
                  (     0         -1          0      )

 cart.    s(11) = (  0.0000000  0.0000000  1.0000000 )
                  (  0.0000000  1.0000000  0.0000000 )
                  ( -1.0000000  0.0000000  0.0000000 )


      isym = 12      90 deg rotation - cart. axis [0,-1,0]       

 cryst.   s(12) = (     0         -1          0      )
                  (     0          0         -1      )
                  (     1          1          1      )

 cart.    s(12) = (  0.0000000  0.0000000 -1.0000000 )
                  (  0.0000000  1.0000000  0.0000000 )
                  (  1.0000000  0.0000000  0.0000000 )


      isym = 13     180 deg rotation - cart. axis [0,1,1]        

 cryst.   s(13) = (     0         -1          0      )
                  (    -1          0          0      )
                  (     0          0         -1      )

 cart.    s(13) = ( -1.0000000  0.0000000  0.0000000 )
                  (  0.0000000  0.0000000  1.0000000 )
                  (  0.0000000  1.0000000  0.0000000 )


      isym = 14     180 deg rotation - cart. axis [0,1,-1]       

 cryst.   s(14) = (    -1          0          0      )
                  (     0         -1          0      )
                  (     1          1          1      )

 cart.    s(14) = ( -1.0000000  0.0000000  0.0000000 )
                  (  0.0000000  0.0000000 -1.0000000 )
                  (  0.0000000 -1.0000000  0.0000000 )


      isym = 15      90 deg rotation - cart. axis [-1,0,0]       

 cryst.   s(15) = (     1          1          1      )
                  (     0          0         -1      )
                  (    -1          0          0      )

 cart.    s(15) = (  1.0000000  0.0000000  0.0000000 )
                  (  0.0000000  0.0000000  1.0000000 )
                  (  0.0000000 -1.0000000  0.0000000 )


      isym = 16      90 deg rotation - cart. axis [1,0,0]        

 cryst.   s(16) = (     0          0         -1      )
                  (     1          1          1      )
                  (     0         -1          0      )

 cart.    s(16) = (  1.0000000  0.0000000  0.0000000 )
                  (  0.0000000  0.0000000 -1.0000000 )
                  (  0.0000000  1.0000000  0.0000000 )


      isym = 17     120 deg rotation - cart. axis [-1,-1,-1]     

 cryst.   s(17) = (     1          0          0      )
                  (    -1         -1         -1      )
                  (     0          1          0      )

 cart.    s(17) = (  0.0000000  1.0000000  0.0000000 )
                  (  0.0000000  0.0000000  1.0000000 )
                  (  1.0000000  0.0000000  0.0000000 )


      isym = 18     120 deg rotation - cart. axis [-1,1,1]       

 cryst.   s(18) = (     0          0          1      )
                  (     0          1          0      )
                  (    -1         -1         -1      )

 cart.    s(18) = (  0.0000000 -1.0000000  0.0000000 )
                  (  0.0000000  0.0000000  1.0000000 )
                  ( -1.0000000  0.0000000  0.0000000 )


      isym = 19     120 deg rotation - cart. axis [1,1,-1]       

 cryst.   s(19) = (     0          1          0      )
                  (     0          0          1      )
                  (     1          0          0      )

 cart.    s(19) = (  0.0000000  1.0000000  0.0000000 )
                  (  0.0000000  0.0000000 -1.0000000 )
                  ( -1.0000000  0.0000000  0.0000000 )


      isym = 20     120 deg rotation - cart. axis [1,-1,1]       

 cryst.   s(20) = (    -1         -1         -1      )
                  (     1          0          0      )
                  (     0          0          1      )

 cart.    s(20) = (  0.0000000 -1.0000000  0.0000000 )
                  (  0.0000000  0.0000000 -1.0000000 )
                  (  1.0000000  0.0000000  0.0000000 )


      isym = 21     120 deg rotation - cart. axis [1,1,1]        

 cryst.   s(21) = (     1          0          0      )
                  (     0          0          1      )
                  (    -1         -1         -1      )

 cart.    s(21) = (  0.0000000  0.0000000  1.0000000 )
                  (  1.0000000  0.0000000  0.0000000 )
                  (  0.0000000  1.0000000  0.0000000 )


      isym = 22     120 deg rotation - cart. axis [-1,1,-1]      

 cryst.   s(22) = (     0          1          0      )
                  (    -1         -1         -1      )
                  (     0          0          1      )

 cart.    s(22) = (  0.0000000  0.0000000  1.0000000 )
                  ( -1.0000000  0.0000000  0.0000000 )
                  (  0.0000000 -1.0000000  0.0000000 )


      isym = 23     120 deg rotation - cart. axis [1,-1,-1]      

 cryst.   s(23) = (    -1         -1         -1      )
                  (     0          1          0      )
                  (     1          0          0      )

 cart.    s(23) = (  0.0000000  0.0000000 -1.0000000 )
                  ( -1.0000000  0.0000000  0.0000000 )
                  (  0.0000000  1.0000000  0.0000000 )


      isym = 24     120 deg rotation - cart. axis [-1,-1,1]      

 cryst.   s(24) = (     0          0          1      )
                  (     1          0          0      )
                  (     0          1          0      )

 cart.    s(24) = (  0.0000000  0.0000000 -1.0000000 )
                  (  1.0000000  0.0000000  0.0000000 )
                  (  0.0000000 -1.0000000  0.0000000 )


      isym = 25     inversion                                    

 cryst.   s(25) = (    -1          0          0      )
                  (     0         -1          0      )
                  (     0          0         -1      )

 cart.    s(25) = ( -1.0000000  0.0000000  0.0000000 )
                  (  0.0000000 -1.0000000  0.0000000 )
                  (  0.0000000  0.0000000 -1.0000000 )


      isym = 26     inv. 180 deg rotation - cart. axis [0,0,1]   

 cryst.   s(26) = (     1          1          1      )
                  (     0          0         -1      )
                  (     0         -1          0      )

 cart.    s(26) = (  1.0000000  0.0000000  0.0000000 )
                  (  0.0000000  1.0000000  0.0000000 )
                  (  0.0000000  0.0000000 -1.0000000 )


      isym = 27     inv. 180 deg rotation - cart. axis [0,1,0]   

 cryst.   s(27) = (     0          0         -1      )
                  (     1          1          1      )
                  (    -1          0          0      )

 cart.    s(27) = (  1.0000000  0.0000000  0.0000000 )
                  (  0.0000000 -1.0000000  0.0000000 )
                  (  0.0000000  0.0000000  1.0000000 )


      isym = 28     inv. 180 deg rotation - cart. axis [1,0,0]   

 cryst.   s(28) = (     0         -1          0      )
                  (    -1          0          0      )
                  (     1          1          1      )

 cart.    s(28) = ( -1.0000000  0.0000000  0.0000000 )
                  (  0.0000000  1.0000000  0.0000000 )
                  (  0.0000000  0.0000000  1.0000000 )


      isym = 29     inv. 180 deg rotation - cart. axis [1,1,0]   

 cryst.   s(29) = (    -1         -1         -1      )
                  (     0          1          0      )
                  (     0          0          1      )

 cart.    s(29) = (  0.0000000 -1.0000000  0.0000000 )
                  ( -1.0000000  0.0000000  0.0000000 )
                  (  0.0000000  0.0000000  1.0000000 )


      isym = 30     inv. 180 deg rotation - cart. axis [1,-1,0]  

 cryst.   s(30) = (     1          0          0      )
                  (     0          0          1      )
                  (     0          1          0      )

 cart.    s(30) = (  0.0000000  1.0000000  0.0000000 )
                  (  1.0000000  0.0000000  0.0000000 )
                  (  0.0000000  0.0000000  1.0000000 )


      isym = 31     inv.  90 deg rotation - cart. axis [0,0,-1]  

 cryst.   s(31) = (     0          0          1      )
                  (     1          0          0      )
                  (    -1         -1         -1      )

 cart.    s(31) = (  0.0000000 -1.0000000  0.0000000 )
                  (  1.0000000  0.0000000  0.0000000 )
                  (  0.0000000  0.0000000 -1.0000000 )


      isym = 32     inv.  90 deg rotation - cart. axis [0,0,1]   

 cryst.   s(32) = (     0          1          0      )
                  (    -1         -1         -1      )
                  (     1          0          0      )

 cart.    s(32) = (  0.0000000  1.0000000  0.0000000 )
                  ( -1.0000000  0.0000000  0.0000000 )
                  (  0.0000000  0.0000000 -1.0000000 )


      isym = 33     inv. 180 deg rotation - cart. axis [1,0,1]   

 cryst.   s(33) = (     0          0          1      )
                  (     0          1          0      )
                  (     1          0          0      )

 cart.    s(33) = (  0.0000000  0.0000000 -1.0000000 )
                  (  0.0000000  1.0000000  0.0000000 )
                  ( -1.0000000  0.0000000  0.0000000 )


      isym = 34     inv. 180 deg rotation - cart. axis [-1,0,1]  

 cryst.   s(34) = (     1          0          0      )
                  (    -1         -1         -1      )
                  (     0          0          1      )

 cart.    s(34) = (  0.0000000  0.0000000  1.0000000 )
                  (  0.0000000  1.0000000  0.0000000 )
                  (  1.0000000  0.0000000  0.0000000 )


      isym = 35     inv.  90 deg rotation - cart. axis [0,1,0]   

 cryst.   s(35) = (    -1         -1         -1      )
                  (     1          0          0      )
                  (     0          1          0      )

 cart.    s(35) = (  0.0000000  0.0000000 -1.0000000 )
                  (  0.0000000 -1.0000000  0.0000000 )
                  (  1.0000000  0.0000000  0.0000000 )


      isym = 36     inv.  90 deg rotation - cart. axis [0,-1,0]  

 cryst.   s(36) = (     0          1          0      )
                  (     0          0          1      )
                  (    -1         -1         -1      )

 cart.    s(36) = (  0.0000000  0.0000000  1.0000000 )
                  (  0.0000000 -1.0000000  0.0000000 )
                  ( -1.0000000  0.0000000  0.0000000 )


      isym = 37     inv. 180 deg rotation - cart. axis [0,1,1]   

 cryst.   s(37) = (     0          1          0      )
                  (     1          0          0      )
                  (     0          0          1      )

 cart.    s(37) = (  1.0000000  0.0000000  0.0000000 )
                  (  0.0000000  0.0000000 -1.0000000 )
                  (  0.0000000 -1.0000000  0.0000000 )


      isym = 38     inv. 180 deg rotation - cart. axis [0,1,-1]  

 cryst.   s(38) = (     1          0          0      )
                  (     0          1          0      )
                  (    -1         -1         -1      )

 cart.    s(38) = (  1.0000000  0.0000000  0.0000000 )
                  (  0.0000000  0.0000000  1.0000000 )
                  (  0.0000000  1.0000000  0.0000000 )


      isym = 39     inv.  90 deg rotation - cart. axis [-1,0,0]  

 cryst.   s(39) = (    -1         -1         -1      )
                  (     0          0          1      )
                  (     1          0          0      )

 cart.    s(39) = ( -1.0000000  0.0000000  0.0000000 )
                  (  0.0000000  0.0000000 -1.0000000 )
                  (  0.0000000  1.0000000  0.0000000 )


      isym = 40     inv.  90 deg rotation - cart. axis [1,0,0]   

 cryst.   s(40) = (     0          0          1      )
                  (    -1         -1         -1      )
                  (     0          1          0      )

 cart.    s(40) = ( -1.0000000  0.0000000  0.0000000 )
                  (  0.0000000  0.0000000  1.0000000 )
                  (  0.0000000 -1.0000000  0.0000000 )


      isym = 41     inv. 120 deg rotation - cart. axis [-1,-1,-1]

 cryst.   s(41) = (    -1          0          0      )
                  (     1          1          1      )
                  (     0         -1          0      )

 cart.    s(41) = (  0.0000000 -1.0000000  0.0000000 )
                  (  0.0000000  0.0000000 -1.0000000 )
                  ( -1.0000000  0.0000000  0.0000000 )


      isym = 42     inv. 120 deg rotation - cart. axis [-1,1,1]  

 cryst.   s(42) = (     0          0         -1      )
                  (     0         -1          0      )
                  (     1          1          1      )

 cart.    s(42) = (  0.0000000  1.0000000  0.0000000 )
                  (  0.0000000  0.0000000 -1.0000000 )
                  (  1.0000000  0.0000000  0.0000000 )


      isym = 43     inv. 120 deg rotation - cart. axis [1,1,-1]  

 cryst.   s(43) = (     0         -1          0      )
                  (     0          0         -1      )
                  (    -1          0          0      )

 cart.    s(43) = (  0.0000000 -1.0000000  0.0000000 )
                  (  0.0000000  0.0000000  1.0000000 )
                  (  1.0000000  0.0000000  0.0000000 )


      isym = 44     inv. 120 deg rotation - cart. axis [1,-1,1]  

 cryst.   s(44) = (     1          1          1      )
                  (    -1          0          0      )
                  (     0          0         -1      )

 cart.    s(44) = (  0.0000000  1.0000000  0.0000000 )
                  (  0.0000000  0.0000000  1.0000000 )
                  ( -1.0000000  0.0000000  0.0000000 )


      isym = 45     inv. 120 deg rotation - cart. axis [1,1,1]   

 cryst.   s(45) = (    -1          0          0      )
                  (     0          0         -1      )
                  (     1          1          1      )

 cart.    s(45) = (  0.0000000  0.0000000 -1.0000000 )
                  ( -1.0000000  0.0000000  0.0000000 )
                  (  0.0000000 -1.0000000  0.0000000 )


      isym = 46     inv. 120 deg rotation - cart. axis [-1,1,-1] 

 cryst.   s(46) = (     0         -1          0      )
                  (     1          1          1      )
                  (     0          0         -1      )

 cart.    s(46) = (  0.0000000  0.0000000 -1.0000000 )
                  (  1.0000000  0.0000000  0.0000000 )
                  (  0.0000000  1.0000000  0.0000000 )


      isym = 47     inv. 120 deg rotation - cart. axis [1,-1,-1] 

 cryst.   s(47) = (     1          1          1      )
                  (     0         -1          0      )
                  (    -1          0          0      )

 cart.    s(47) = (  0.0000000  0.0000000  1.0000000 )
                  (  1.0000000  0.0000000  0.0000000 )
                  (  0.0000000 -1.0000000  0.0000000 )


      isym = 48     inv. 120 deg rotation - cart. axis [-1,-1,1] 

 cryst.   s(48) = (     0          0         -1      )
                  (    -1          0          0      )
                  (     0         -1          0      )

 cart.    s(48) = (  0.0000000  0.0000000  1.0000000 )
                  ( -1.0000000  0.0000000  0.0000000 )
                  (  0.0000000  1.0000000  0.0000000 )


   Cartesian axes

     site n.     atom                  positions (alat units)
         1           Al  tau(   1) = (   0.0000000   0.0000000   0.0000000  )

   Crystallographic axes

     site n.     atom                  positions (cryst. coord.)
         1           Al  tau(   1) = (  0.0000000  0.0000000  0.0000000  )

     number of k points=   256  Marzari-Vanderbilt smearing, width (Ry)=  0.0100
                       cart. coord. in units 2pi/alat
        k(    1) = (   0.0000000   0.0000000   0.0000000), wk =   0.0002500
        k(    2) = (   0.0000000   0.0433013  -0.0433013), wk =   0.0030000
        k(    3) = (   0.0000000   0.0866025  -0.0866025), wk =   0.0030000
        k(    4) = (   0.0000000   0.1299038  -0.1299038), wk =   0.0030000
        k(    5) = (   0.0000000   0.1732051  -0.1732051), wk =   0.0030000
        k(    6) = (   0.0000000   0.2165064  -0.2165064), wk =   0.0030000
        k(    7) = (   0.0000000   0.2598076  -0.2598076), wk =   0.0030000
        k(    8) = (   0.0000000   0.3031089  -0.3031089), wk =   0.0030000
        k(    9) = (   0.0000000   0.3464102  -0.3464102), wk =   0.0030000
        k(   10) = (   0.0000000   0.3897114  -0.3897114), wk =   0.0030000
        k(   11) = (   0.0000000  -0.4330127   0.4330127), wk =   0.0015000
        k(   12) = (   0.0433013   0.0433013  -0.0866025), wk =   0.0060000
        k(   13) = (   0.0433013   0.0866025  -0.1299038), wk =   0.0120000
        k(   14) = (   0.0433013   0.1299038  -0.1732051), wk =   0.0120000
        k(   15) = (   0.0433013   0.1732051  -0.2165064), wk =   0.0120000
        k(   16) = (   0.0433013   0.2165064  -0.2598076), wk =   0.0120000
        k(   17) = (   0.0433013   0.2598076  -0.3031089), wk =   0.0120000
        k(   18) = (   0.0433013   0.3031089  -0.3464102), wk =   0.0120000
        k(   19) = (   0.0433013   0.3464102  -0.3897114), wk =   0.0120000
        k(   20) = (   0.0433013   0.3897114  -0.4330127), wk =   0.0120000
        k(   21) = (   0.0866025   0.0866025  -0.1732051), wk =   0.0060000
        k(   22) = (   0.0866025   0.1299038  -0.2165064), wk =   0.0120000
        k(   23) = (   0.0866025   0.1732051  -0.2598076), wk =   0.0120000
        k(   24) = (   0.0866025   0.2165064  -0.3031089), wk =   0.0120000
        k(   25) = (   0.0866025   0.2598076  -0.3464102), wk =   0.0120000
        k(   26) = (   0.0866025   0.3031089  -0.3897114), wk =   0.0120000
        k(   27) = (   0.0866025   0.3464102  -0.4330127), wk =   0.0120000
        k(   28) = (   0.0866025   0.3897114  -0.4763140), wk =   0.0060000
        k(   29) = (   0.1299038   0.1299038  -0.2598076), wk =   0.0060000
        k(   30) = (   0.1299038   0.1732051  -0.3031089), wk =   0.0120000
        k(   31) = (   0.1299038   0.2165064  -0.3464102), wk =   0.0120000
        k(   32) = (   0.1299038   0.2598076  -0.3897114), wk =   0.0120000
        k(   33) = (   0.1299038   0.3031089  -0.4330127), wk =   0.0120000
        k(   34) = (   0.1299038   0.3464102  -0.4763140), wk =   0.0120000
        k(   35) = (   0.1732051   0.1732051  -0.3464102), wk =   0.0060000
        k(   36) = (   0.1732051   0.2165064  -0.3897114), wk =   0.0120000
        k(   37) = (   0.1732051   0.2598076  -0.4330127), wk =   0.0120000
        k(   38) = (   0.1732051   0.3031089  -0.4763140), wk =   0.0120000
        k(   39) = (   0.1732051   0.3464102  -0.5196152), wk =   0.0060000
        k(   40) = (   0.2165064   0.2165064  -0.4330127), wk =   0.0060000
        k(   41) = (   0.2165064   0.2598076  -0.4763140), wk =   0.0120000
        k(   42) = (   0.2165064   0.3031089  -0.5196152), wk =   0.0120000
        k(   43) = (   0.2598076   0.2598076  -0.5196152), wk =   0.0060000
        k(   44) = (   0.2598076   0.3031089  -0.5629165), wk =   0.0060000
        k(   45) = (   0.0866025   0.0866025  -0.0866025), wk =   0.0020000
        k(   46) = (   0.0866025   0.1299038  -0.1299038), wk =   0.0060000
        k(   47) = (   0.0866025   0.1732051  -0.1732051), wk =   0.0060000
        k(   48) = (   0.0866025   0.2165064  -0.2165064), wk =   0.0060000
        k(   49) = (   0.0866025   0.2598076  -0.2598076), wk =   0.0060000
        k(   50) = (   0.0866025   0.3031089  -0.3031089), wk =   0.0060000
        k(   51) = (   0.0866025   0.3464102  -0.3464102), wk =   0.0060000
        k(   52) = (   0.0866025   0.3897114  -0.3897114), wk =   0.0060000
        k(   53) = (   0.0866025   0.4330127  -0.4330127), wk =   0.0030000
        k(   54) = (   0.0866025  -0.0000000   0.0000000), wk =   0.0015000
        k(   55) = (   0.1299038   0.1299038  -0.1732051), wk =   0.0060000
        k(   56) = (   0.1299038   0.1732051  -0.2165064), wk =   0.0120000
        k(   57) = (   0.1299038   0.2165064  -0.2598076), wk =   0.0120000
        k(   58) = (   0.1299038   0.2598076  -0.3031089), wk =   0.0120000
        k(   59) = (   0.1299038   0.3031089  -0.3464102), wk =   0.0120000
        k(   60) = (   0.1299038   0.3464102  -0.3897114), wk =   0.0120000
        k(   61) = (   0.1299038   0.3897114  -0.4330127), wk =   0.0120000
        k(   62) = (   0.1299038  -0.0433013  -0.0000000), wk =   0.0060000
        k(   63) = (   0.1732051   0.1732051  -0.2598076), wk =   0.0060000
        k(   64) = (   0.1732051   0.2165064  -0.3031089), wk =   0.0120000
        k(   65) = (   0.1732051   0.2598076  -0.3464102), wk =   0.0120000
        k(   66) = (   0.1732051   0.3031089  -0.3897114), wk =   0.0120000
        k(   67) = (   0.1732051   0.3464102  -0.4330127), wk =   0.0120000
        k(   68) = (   0.1732051   0.3897114  -0.4763140), wk =   0.0060000
        k(   69) = (   0.1732051  -0.0866025   0.0000000), wk =   0.0060000
        k(   70) = (   0.1732051  -0.0433013  -0.0433013), wk =   0.0060000
        k(   71) = (   0.2165064   0.2165064  -0.3464102), wk =   0.0060000
        k(   72) = (   0.2165064   0.2598076  -0.3897114), wk =   0.0120000
        k(   73) = (   0.2165064   0.3031089  -0.4330127), wk =   0.0120000
        k(   74) = (   0.2165064   0.3464102  -0.4763140), wk =   0.0120000
        k(   75) = (   0.2165064  -0.1299038  -0.0000000), wk =   0.0060000
        k(   76) = (   0.2165064  -0.0866025  -0.0433013), wk =   0.0120000
        k(   77) = (   0.2598076   0.2598076  -0.4330127), wk =   0.0060000
        k(   78) = (   0.2598076   0.3031089  -0.4763140), wk =   0.0120000
        k(   79) = (   0.2598076   0.3464102  -0.5196152), wk =   0.0060000
        k(   80) = (   0.2598076  -0.1732051   0.0000000), wk =   0.0060000
        k(   81) = (   0.2598076  -0.1299038  -0.0433013), wk =   0.0120000
        k(   82) = (   0.2598076  -0.0866025  -0.0866025), wk =   0.0060000
        k(   83) = (   0.3031089   0.3031089  -0.5196152), wk =   0.0060000
        k(   84) = (   0.3031089  -0.2165064   0.0000000), wk =   0.0060000
        k(   85) = (   0.3031089  -0.1732051  -0.0433013), wk =   0.0120000
        k(   86) = (   0.3031089  -0.1299038  -0.0866025), wk =   0.0120000
        k(   87) = (   0.3464102  -0.2598076   0.0000000), wk =   0.0060000
        k(   88) = (   0.3464102  -0.2165064  -0.0433013), wk =   0.0120000
        k(   89) = (   0.3464102  -0.1732051  -0.0866025), wk =   0.0120000
        k(   90) = (   0.3464102  -0.1299038  -0.1299038), wk =   0.0060000
        k(   91) = (   0.3897114  -0.3031089   0.0000000), wk =   0.0060000
        k(   92) = (   0.3897114  -0.2598076  -0.0433013), wk =   0.0120000
        k(   93) = (   0.3897114  -0.2165064  -0.0866025), wk =   0.0120000
        k(   94) = (   0.3897114  -0.1732051  -0.1299038), wk =   0.0120000
        k(   95) = (   0.4330127  -0.3464102  -0.0000000), wk =   0.0060000
        k(   96) = (   0.4330127  -0.3031089  -0.0433013), wk =   0.0120000
        k(   97) = (   0.4330127  -0.2598076  -0.0866025), wk =   0.0120000
        k(   98) = (   0.4330127  -0.2165064  -0.1299038), wk =   0.0120000
        k(   99) = (   0.4330127  -0.1732051  -0.1732051), wk =   0.0060000
        k(  100) = (  -0.3897114  -0.3897114   0.8660254), wk =   0.0030000
        k(  101) = (  -0.3897114  -0.3464102   0.8227241), wk =   0.0120000
        k(  102) = (  -0.3897114  -0.3031089   0.7794229), wk =   0.0120000
        k(  103) = (  -0.3897114  -0.2598076   0.7361216), wk =   0.0120000
        k(  104) = (  -0.3897114  -0.2165064   0.6928203), wk =   0.0120000
        k(  105) = (  -0.3464102  -0.3464102   0.7794229), wk =   0.0060000
        k(  106) = (  -0.3464102  -0.3031089   0.7361216), wk =   0.0120000
        k(  107) = (  -0.3464102  -0.2598076   0.6928203), wk =   0.0120000
        k(  108) = (  -0.3464102  -0.2165064   0.6495191), wk =   0.0060000
        k(  109) = (  -0.3031089  -0.3031089   0.6928203), wk =   0.0060000
        k(  110) = (  -0.3031089  -0.2598076   0.6495191), wk =   0.0120000
        k(  111) = (  -0.2598076  -0.2598076   0.6062178), wk =   0.0020000
        k(  112) = (   0.1732051   0.1732051  -0.1732051), wk =   0.0020000
        k(  113) = (   0.1732051   0.2165064  -0.2165064), wk =   0.0060000
        k(  114) = (   0.1732051   0.2598076  -0.2598076), wk =   0.0060000
        k(  115) = (   0.1732051   0.3031089  -0.3031089), wk =   0.0060000
        k(  116) = (   0.1732051   0.3464102  -0.3464102), wk =   0.0060000
        k(  117) = (   0.1732051   0.3897114  -0.3897114), wk =   0.0060000
        k(  118) = (   0.1732051   0.4330127  -0.4330127), wk =   0.0030000
        k(  119) = (   0.1732051   0.0000000  -0.0000000), wk =   0.0015000
        k(  120) = (   0.2165064   0.2165064  -0.2598076), wk =   0.0060000
        k(  121) = (   0.2165064   0.2598076  -0.3031089), wk =   0.0120000
        k(  122) = (   0.2165064   0.3031089  -0.3464102), wk =   0.0120000
        k(  123) = (   0.2165064   0.3464102  -0.3897114), wk =   0.0120000
        k(  124) = (   0.2165064   0.3897114  -0.4330127), wk =   0.0120000
        k(  125) = (   0.2165064  -0.0433013   0.0000000), wk =   0.0060000
        k(  126) = (   0.2598076   0.2598076  -0.3464102), wk =   0.0060000
        k(  127) = (   0.2598076   0.3031089  -0.3897114), wk =   0.0120000
        k(  128) = (   0.2598076   0.3464102  -0.4330127), wk =   0.0120000
        k(  129) = (   0.2598076   0.3897114  -0.4763140), wk =   0.0060000
        k(  130) = (   0.2598076  -0.0866025  -0.0000000), wk =   0.0060000
        k(  131) = (   0.2598076  -0.0433013  -0.0433013), wk =   0.0060000
        k(  132) = (   0.3031089   0.3031089  -0.4330127), wk =   0.0060000
        k(  133) = (   0.3031089   0.3464102  -0.4763140), wk =   0.0120000
        k(  134) = (   0.3031089  -0.1299038   0.0000000), wk =   0.0060000
        k(  135) = (   0.3031089  -0.0866025  -0.0433013), wk =   0.0120000
        k(  136) = (   0.3464102   0.3464102  -0.5196152), wk =   0.0020000
        k(  137) = (   0.3464102  -0.1732051   0.0000000), wk =   0.0060000
        k(  138) = (   0.3464102  -0.1299038  -0.0433013), wk =   0.0120000
        k(  139) = (   0.3464102  -0.0866025  -0.0866025), wk =   0.0060000
        k(  140) = (   0.3897114  -0.2165064   0.0000000), wk =   0.0060000
        k(  141) = (   0.3897114  -0.1732051  -0.0433013), wk =   0.0120000
        k(  142) = (   0.3897114  -0.1299038  -0.0866025), wk =   0.0120000
        k(  143) = (   0.4330127  -0.2598076   0.0000000), wk =   0.0060000
        k(  144) = (   0.4330127  -0.2165064  -0.0433013), wk =   0.0120000
        k(  145) = (   0.4330127  -0.1732051  -0.0866025), wk =   0.0120000
        k(  146) = (   0.4330127  -0.1299038  -0.1299038), wk =   0.0060000
        k(  147) = (   0.4763140  -0.3031089  -0.0000000), wk =   0.0060000
        k(  148) = (   0.4763140  -0.2598076  -0.0433013), wk =   0.0120000
        k(  149) = (   0.4763140  -0.2165064  -0.0866025), wk =   0.0120000
        k(  150) = (   0.4763140  -0.1732051  -0.1299038), wk =   0.0120000
        k(  151) = (  -0.3464102  -0.3464102   0.8660254), wk =   0.0030000
        k(  152) = (  -0.3464102  -0.3031089   0.8227241), wk =   0.0120000
        k(  153) = (  -0.3464102  -0.2598076   0.7794229), wk =   0.0120000
        k(  154) = (  -0.3464102  -0.2165064   0.7361216), wk =   0.0120000
        k(  155) = (  -0.3464102  -0.1732051   0.6928203), wk =   0.0060000
        k(  156) = (  -0.3031089  -0.3031089   0.7794229), wk =   0.0060000
        k(  157) = (  -0.3031089  -0.2598076   0.7361216), wk =   0.0120000
        k(  158) = (  -0.3031089  -0.2165064   0.6928203), wk =   0.0120000
        k(  159) = (  -0.2598076  -0.2598076   0.6928203), wk =   0.0060000
        k(  160) = (  -0.2598076  -0.2165064   0.6495191), wk =   0.0060000
        k(  161) = (   0.2598076   0.2598076  -0.2598076), wk =   0.0020000
        k(  162) = (   0.2598076   0.3031089  -0.3031089), wk =   0.0060000
        k(  163) = (   0.2598076   0.3464102  -0.3464102), wk =   0.0060000
        k(  164) = (   0.2598076   0.3897114  -0.3897114), wk =   0.0060000
        k(  165) = (   0.2598076   0.4330127  -0.4330127), wk =   0.0030000
        k(  166) = (   0.2598076   0.0000000   0.0000000), wk =   0.0015000
        k(  167) = (   0.3031089   0.3031089  -0.3464102), wk =   0.0060000
        k(  168) = (   0.3031089   0.3464102  -0.3897114), wk =   0.0120000
        k(  169) = (   0.3031089   0.3897114  -0.4330127), wk =   0.0120000
        k(  170) = (   0.3031089  -0.0433013  -0.0000000), wk =   0.0060000
        k(  171) = (   0.3464102   0.3464102  -0.4330127), wk =   0.0060000
        k(  172) = (   0.3464102   0.3897114  -0.4763140), wk =   0.0060000
        k(  173) = (   0.3464102  -0.0866025   0.0000000), wk =   0.0060000
        k(  174) = (   0.3464102  -0.0433013  -0.0433013), wk =   0.0060000
        k(  175) = (   0.3897114  -0.1299038   0.0000000), wk =   0.0060000
        k(  176) = (   0.3897114  -0.0866025  -0.0433013), wk =   0.0120000
        k(  177) = (   0.4330127  -0.1732051   0.0000000), wk =   0.0060000
        k(  178) = (   0.4330127  -0.1299038  -0.0433013), wk =   0.0120000
        k(  179) = (   0.4330127  -0.0866025  -0.0866025), wk =   0.0060000
        k(  180) = (   0.4763140  -0.2165064   0.0000000), wk =   0.0060000
        k(  181) = (   0.4763140  -0.1732051  -0.0433013), wk =   0.0120000
        k(  182) = (   0.4763140  -0.1299038  -0.0866025), wk =   0.0120000
        k(  183) = (   0.5196152  -0.2598076  -0.0000000), wk =   0.0060000
        k(  184) = (   0.5196152  -0.2165064  -0.0433013), wk =   0.0120000
        k(  185) = (   0.5196152  -0.1732051  -0.0866025), wk =   0.0120000
        k(  186) = (   0.5196152  -0.1299038  -0.1299038), wk =   0.0060000
        k(  187) = (  -0.3031089  -0.3031089   0.8660254), wk =   0.0030000
        k(  188) = (  -0.3031089  -0.2598076   0.8227241), wk =   0.0120000
        k(  189) = (  -0.3031089  -0.2165064   0.7794229), wk =   0.0120000
        k(  190) = (  -0.3031089  -0.1732051   0.7361216), wk =   0.0120000
        k(  191) = (  -0.2598076  -0.2598076   0.7794229), wk =   0.0060000
        k(  192) = (  -0.2598076  -0.2165064   0.7361216), wk =   0.0120000
        k(  193) = (  -0.2598076  -0.1732051   0.6928203), wk =   0.0060000
        k(  194) = (  -0.2165064  -0.2165064   0.6928203), wk =   0.0060000
        k(  195) = (   0.3464102   0.3464102  -0.3464102), wk =   0.0020000
        k(  196) = (   0.3464102   0.3897114  -0.3897114), wk =   0.0060000
        k(  197) = (   0.3464102   0.4330127  -0.4330127), wk =   0.0030000
        k(  198) = (   0.3464102   0.0000000  -0.0000000), wk =   0.0015000
        k(  199) = (   0.3897114   0.3897114  -0.4330127), wk =   0.0060000
        k(  200) = (   0.3897114  -0.0433013   0.0000000), wk =   0.0060000
        k(  201) = (   0.4330127  -0.0866025   0.0000000), wk =   0.0060000
        k(  202) = (   0.4330127  -0.0433013  -0.0433013), wk =   0.0060000
        k(  203) = (   0.4763140  -0.1299038   0.0000000), wk =   0.0060000
        k(  204) = (   0.4763140  -0.0866025  -0.0433013), wk =   0.0120000
        k(  205) = (   0.5196152  -0.1732051   0.0000000), wk =   0.0060000
        k(  206) = (   0.5196152  -0.1299038  -0.0433013), wk =   0.0120000
        k(  207) = (   0.5196152  -0.0866025  -0.0866025), wk =   0.0060000
        k(  208) = (   0.5629165  -0.2165064  -0.0000000), wk =   0.0060000
        k(  209) = (   0.5629165  -0.1732051  -0.0433013), wk =   0.0120000
        k(  210) = (   0.5629165  -0.1299038  -0.0866025), wk =   0.0120000
        k(  211) = (  -0.2598076  -0.2598076   0.8660254), wk =   0.0030000
        k(  212) = (  -0.2598076  -0.2165064   0.8227241), wk =   0.0120000
        k(  213) = (  -0.2598076  -0.1732051   0.7794229), wk =   0.0120000
        k(  214) = (  -0.2598076  -0.1299038   0.7361216), wk =   0.0060000
        k(  215) = (  -0.2165064  -0.2165064   0.7794229), wk =   0.0060000
        k(  216) = (  -0.2165064  -0.1732051   0.7361216), wk =   0.0120000
        k(  217) = (  -0.1732051  -0.1732051   0.6928203), wk =   0.0020000
        k(  218) = (   0.4330127   0.4330127  -0.4330127), wk =   0.0005000
        k(  219) = (   0.4330127   0.0000000   0.0000000), wk =   0.0015000
        k(  220) = (   0.4763140  -0.0433013   0.0000000), wk =   0.0060000
        k(  221) = (   0.5196152  -0.0866025   0.0000000), wk =   0.0060000
        k(  222) = (   0.5196152  -0.0433013  -0.0433013), wk =   0.0060000
        k(  223) = (   0.5629165  -0.1299038   0.0000000), wk =   0.0060000
        k(  224) = (   0.5629165  -0.0866025  -0.0433013), wk =   0.0120000
        k(  225) = (   0.6062178  -0.1732051  -0.0000000), wk =   0.0060000
        k(  226) = (   0.6062178  -0.1299038  -0.0433013), wk =   0.0120000
        k(  227) = (   0.6062178  -0.0866025  -0.0866025), wk =   0.0060000
        k(  228) = (  -0.2165064  -0.2165064   0.8660254), wk =   0.0030000
        k(  229) = (  -0.2165064  -0.1732051   0.8227241), wk =   0.0120000
        k(  230) = (  -0.2165064  -0.1299038   0.7794229), wk =   0.0120000
        k(  231) = (  -0.1732051  -0.1732051   0.7794229), wk =   0.0060000
        k(  232) = (  -0.1732051  -0.1299038   0.7361216), wk =   0.0060000
        k(  233) = (   0.5196152   0.0000000   0.0000000), wk =   0.0015000
        k(  234) = (   0.5629165  -0.0433013   0.0000000), wk =   0.0060000
        k(  235) = (   0.6062178  -0.0866025   0.0000000), wk =   0.0060000
        k(  236) = (   0.6062178  -0.0433013  -0.0433013), wk =   0.0060000
        k(  237) = (   0.6495191  -0.1299038  -0.0000000), wk =   0.0060000
        k(  238) = (   0.6495191  -0.0866025  -0.0433013), wk =   0.0120000
        k(  239) = (  -0.1732051  -0.1732051   0.8660254), wk =   0.0030000
        k(  240) = (  -0.1732051  -0.1299038   0.8227241), wk =   0.0120000
        k(  241) = (  -0.1732051  -0.0866025   0.7794229), wk =   0.0060000
        k(  242) = (  -0.1299038  -0.1299038   0.7794229), wk =   0.0060000
        k(  243) = (   0.6062178   0.0000000   0.0000000), wk =   0.0015000
        k(  244) = (   0.6495191  -0.0433013   0.0000000), wk =   0.0060000
        k(  245) = (   0.6928203  -0.0866025  -0.0000000), wk =   0.0060000
        k(  246) = (   0.6928203  -0.0433013  -0.0433013), wk =   0.0060000
        k(  247) = (  -0.1299038  -0.1299038   0.8660254), wk =   0.0030000
        k(  248) = (  -0.1299038  -0.0866025   0.8227241), wk =   0.0120000
        k(  249) = (  -0.0866025  -0.0866025   0.7794229), wk =   0.0020000
        k(  250) = (   0.6928203   0.0000000   0.0000000), wk =   0.0015000
        k(  251) = (   0.7361216  -0.0433013  -0.0000000), wk =   0.0060000
        k(  252) = (  -0.0866025  -0.0866025   0.8660254), wk =   0.0030000
        k(  253) = (  -0.0866025  -0.0433013   0.8227241), wk =   0.0060000
        k(  254) = (   0.7794229   0.0000000  -0.0000000), wk =   0.0015000
        k(  255) = (  -0.0433013  -0.0433013   0.8660254), wk =   0.0030000
        k(  256) = (  -0.8660254  -0.8660254   0.8660254), wk =   0.0002500

                       cryst. coord.
        k(    1) = (   0.0000000   0.0000000   0.0000000), wk =   0.0002500
        k(    2) = (   0.0000000   0.0000000   0.0500000), wk =   0.0030000
        k(    3) = (   0.0000000   0.0000000   0.1000000), wk =   0.0030000
        k(    4) = (   0.0000000   0.0000000   0.1500000), wk =   0.0030000
        k(    5) = (   0.0000000   0.0000000   0.2000000), wk =   0.0030000
        k(    6) = (   0.0000000   0.0000000   0.2500000), wk =   0.0030000
        k(    7) = (   0.0000000   0.0000000   0.3000000), wk =   0.0030000
        k(    8) = (   0.0000000   0.0000000   0.3500000), wk =   0.0030000
        k(    9) = (   0.0000000   0.0000000   0.4000000), wk =   0.0030000
        k(   10) = (   0.0000000   0.0000000   0.4500000), wk =   0.0030000
        k(   11) = (   0.0000000   0.0000000  -0.5000000), wk =   0.0015000
        k(   12) = (   0.0000000   0.0500000   0.0500000), wk =   0.0060000
        k(   13) = (   0.0000000   0.0500000   0.1000000), wk =   0.0120000
        k(   14) = (   0.0000000   0.0500000   0.1500000), wk =   0.0120000
        k(   15) = (  -0.0000000   0.0500000   0.2000000), wk =   0.0120000
        k(   16) = (   0.0000000   0.0500000   0.2500000), wk =   0.0120000
        k(   17) = (   0.0000000   0.0500000   0.3000000), wk =   0.0120000
        k(   18) = (   0.0000000   0.0500000   0.3500000), wk =   0.0120000
        k(   19) = (   0.0000000   0.0500000   0.4000000), wk =   0.0120000
        k(   20) = (   0.0000000   0.0500000   0.4500000), wk =   0.0120000
        k(   21) = (   0.0000000   0.1000000   0.1000000), wk =   0.0060000
        k(   22) = (  -0.0000000   0.1000000   0.1500000), wk =   0.0120000
        k(   23) = (   0.0000000   0.1000000   0.2000000), wk =   0.0120000
        k(   24) = (   0.0000000   0.1000000   0.2500000), wk =   0.0120000
        k(   25) = (   0.0000000   0.1000000   0.3000000), wk =   0.0120000
        k(   26) = (  -0.0000000   0.1000000   0.3500000), wk =   0.0120000
        k(   27) = (  -0.0000000   0.1000000   0.4000000), wk =   0.0120000
        k(   28) = (   0.0000000   0.1000000   0.4500000), wk =   0.0060000
        k(   29) = (   0.0000000   0.1500000   0.1500000), wk =   0.0060000
        k(   30) = (   0.0000000   0.1500000   0.2000000), wk =   0.0120000
        k(   31) = (   0.0000000   0.1500000   0.2500000), wk =   0.0120000
        k(   32) = (  -0.0000000   0.1500000   0.3000000), wk =   0.0120000
        k(   33) = (   0.0000000   0.1500000   0.3500000), wk =   0.0120000
        k(   34) = (   0.0000000   0.1500000   0.4000000), wk =   0.0120000
        k(   35) = (   0.0000000   0.2000000   0.2000000), wk =   0.0060000
        k(   36) = (   0.0000000   0.2000000   0.2500000), wk =   0.0120000
        k(   37) = (  -0.0000000   0.2000000   0.3000000), wk =   0.0120000
        k(   38) = (   0.0000000   0.2000000   0.3500000), wk =   0.0120000
        k(   39) = (   0.0000000   0.2000000   0.4000000), wk =   0.0060000
        k(   40) = (   0.0000000   0.2500000   0.2500000), wk =   0.0060000
        k(   41) = (   0.0000000   0.2500000   0.3000000), wk =   0.0120000
        k(   42) = (   0.0000000   0.2500000   0.3500000), wk =   0.0120000
        k(   43) = (   0.0000000   0.3000000   0.3000000), wk =   0.0060000
        k(   44) = (  -0.0000000   0.3000000   0.3500000), wk =   0.0060000
        k(   45) = (   0.0500000   0.0500000   0.0500000), wk =   0.0020000
        k(   46) = (   0.0500000   0.0500000   0.1000000), wk =   0.0060000
        k(   47) = (   0.0500000   0.0500000   0.1500000), wk =   0.0060000
        k(   48) = (   0.0500000   0.0500000   0.2000000), wk =   0.0060000
        k(   49) = (   0.0500000   0.0500000   0.2500000), wk =   0.0060000
        k(   50) = (   0.0500000   0.0500000   0.3000000), wk =   0.0060000
        k(   51) = (   0.0500000   0.0500000   0.3500000), wk =   0.0060000
        k(   52) = (   0.0500000   0.0500000   0.4000000), wk =   0.0060000
        k(   53) = (   0.0500000   0.0500000   0.4500000), wk =   0.0030000
        k(   54) = (   0.0500000   0.0500000  -0.0500000), wk =   0.0015000
        k(   55) = (   0.0500000   0.1000000   0.1000000), wk =   0.0060000
        k(   56) = (   0.0500000   0.1000000   0.1500000), wk =   0.0120000
        k(   57) = (   0.0500000   0.1000000   0.2000000), wk =   0.0120000
        k(   58) = (   0.0500000   0.1000000   0.2500000), wk =   0.0120000
        k(   59) = (   0.0500000   0.1000000   0.3000000), wk =   0.0120000
        k(   60) = (   0.0500000   0.1000000   0.3500000), wk =   0.0120000
        k(   61) = (   0.0500000   0.1000000   0.4000000), wk =   0.0120000
        k(   62) = (   0.0500000   0.1000000  -0.1000000), wk =   0.0060000
        k(   63) = (   0.0500000   0.1500000   0.1500000), wk =   0.0060000
        k(   64) = (   0.0500000   0.1500000   0.2000000), wk =   0.0120000
        k(   65) = (   0.0500000   0.1500000   0.2500000), wk =   0.0120000
        k(   66) = (   0.0500000   0.1500000   0.3000000), wk =   0.0120000
        k(   67) = (   0.0500000   0.1500000   0.3500000), wk =   0.0120000
        k(   68) = (   0.0500000   0.1500000   0.4000000), wk =   0.0060000
        k(   69) = (   0.0500000   0.1500000  -0.1500000), wk =   0.0060000
        k(   70) = (   0.0500000   0.1500000  -0.1000000), wk =   0.0060000
        k(   71) = (   0.0500000   0.2000000   0.2000000), wk =   0.0060000
        k(   72) = (   0.0500000   0.2000000   0.2500000), wk =   0.0120000
        k(   73) = (   0.0500000   0.2000000   0.3000000), wk =   0.0120000
        k(   74) = (   0.0500000   0.2000000   0.3500000), wk =   0.0120000
        k(   75) = (   0.0500000   0.2000000  -0.2000000), wk =   0.0060000
        k(   76) = (   0.0500000   0.2000000  -0.1500000), wk =   0.0120000
        k(   77) = (   0.0500000   0.2500000   0.2500000), wk =   0.0060000
        k(   78) = (   0.0500000   0.2500000   0.3000000), wk =   0.0120000
        k(   79) = (   0.0500000   0.2500000   0.3500000), wk =   0.0060000
        k(   80) = (   0.0500000   0.2500000  -0.2500000), wk =   0.0060000
        k(   81) = (   0.0500000   0.2500000  -0.2000000), wk =   0.0120000
        k(   82) = (   0.0500000   0.2500000  -0.1500000), wk =   0.0060000
        k(   83) = (   0.0500000   0.3000000   0.3000000), wk =   0.0060000
        k(   84) = (   0.0500000   0.3000000  -0.3000000), wk =   0.0060000
        k(   85) = (   0.0500000   0.3000000  -0.2500000), wk =   0.0120000
        k(   86) = (   0.0500000   0.3000000  -0.2000000), wk =   0.0120000
        k(   87) = (   0.0500000   0.3500000  -0.3500000), wk =   0.0060000
        k(   88) = (   0.0500000   0.3500000  -0.3000000), wk =   0.0120000
        k(   89) = (   0.0500000   0.3500000  -0.2500000), wk =   0.0120000
        k(   90) = (   0.0500000   0.3500000  -0.2000000), wk =   0.0060000
        k(   91) = (   0.0500000   0.4000000  -0.4000000), wk =   0.0060000
        k(   92) = (   0.0500000   0.4000000  -0.3500000), wk =   0.0120000
        k(   93) = (   0.0500000   0.4000000  -0.3000000), wk =   0.0120000
        k(   94) = (   0.0500000   0.4000000  -0.2500000), wk =   0.0120000
        k(   95) = (   0.0500000   0.4500000  -0.4500000), wk =   0.0060000
        k(   96) = (   0.0500000   0.4500000  -0.4000000), wk =   0.0120000
        k(   97) = (   0.0500000   0.4500000  -0.3500000), wk =   0.0120000
        k(   98) = (   0.0500000   0.4500000  -0.3000000), wk =   0.0120000
        k(   99) = (   0.0500000   0.4500000  -0.2500000), wk =   0.0060000
        k(  100) = (   0.0500000  -0.5000000  -0.5000000), wk =   0.0030000
        k(  101) = (   0.0500000  -0.5000000  -0.4500000), wk =   0.0120000
        k(  102) = (   0.0500000  -0.5000000  -0.4000000), wk =   0.0120000
        k(  103) = (   0.0500000  -0.5000000  -0.3500000), wk =   0.0120000
        k(  104) = (   0.0500000  -0.5000000  -0.3000000), wk =   0.0120000
        k(  105) = (   0.0500000  -0.4500000  -0.4500000), wk =   0.0060000
        k(  106) = (   0.0500000  -0.4500000  -0.4000000), wk =   0.0120000
        k(  107) = (   0.0500000  -0.4500000  -0.3500000), wk =   0.0120000
        k(  108) = (   0.0500000  -0.4500000  -0.3000000), wk =   0.0060000
        k(  109) = (   0.0500000  -0.4000000  -0.4000000), wk =   0.0060000
        k(  110) = (   0.0500000  -0.4000000  -0.3500000), wk =   0.0120000
        k(  111) = (   0.0500000  -0.3500000  -0.3500000), wk =   0.0020000
        k(  112) = (   0.1000000   0.1000000   0.1000000), wk =   0.0020000
        k(  113) = (   0.1000000   0.1000000   0.1500000), wk =   0.0060000
        k(  114) = (   0.1000000   0.1000000   0.2000000), wk =   0.0060000
        k(  115) = (   0.1000000   0.1000000   0.2500000), wk =   0.0060000
        k(  116) = (   0.1000000   0.1000000   0.3000000), wk =   0.0060000
        k(  117) = (   0.1000000   0.1000000   0.3500000), wk =   0.0060000
        k(  118) = (   0.1000000   0.1000000   0.4000000), wk =   0.0030000
        k(  119) = (   0.1000000   0.1000000  -0.1000000), wk =   0.0015000
        k(  120) = (   0.1000000   0.1500000   0.1500000), wk =   0.0060000
        k(  121) = (   0.1000000   0.1500000   0.2000000), wk =   0.0120000
        k(  122) = (   0.1000000   0.1500000   0.2500000), wk =   0.0120000
        k(  123) = (   0.1000000   0.1500000   0.3000000), wk =   0.0120000
        k(  124) = (   0.1000000   0.1500000   0.3500000), wk =   0.0120000
        k(  125) = (   0.1000000   0.1500000  -0.1500000), wk =   0.0060000
        k(  126) = (   0.1000000   0.2000000   0.2000000), wk =   0.0060000
        k(  127) = (   0.1000000   0.2000000   0.2500000), wk =   0.0120000
        k(  128) = (   0.1000000   0.2000000   0.3000000), wk =   0.0120000
        k(  129) = (   0.1000000   0.2000000   0.3500000), wk =   0.0060000
        k(  130) = (   0.1000000   0.2000000  -0.2000000), wk =   0.0060000
        k(  131) = (   0.1000000   0.2000000  -0.1500000), wk =   0.0060000
        k(  132) = (   0.1000000   0.2500000   0.2500000), wk =   0.0060000
        k(  133) = (   0.1000000   0.2500000   0.3000000), wk =   0.0120000
        k(  134) = (   0.1000000   0.2500000  -0.2500000), wk =   0.0060000
        k(  135) = (   0.1000000   0.2500000  -0.2000000), wk =   0.0120000
        k(  136) = (   0.1000000   0.3000000   0.3000000), wk =   0.0020000
        k(  137) = (   0.1000000   0.3000000  -0.3000000), wk =   0.0060000
        k(  138) = (   0.1000000   0.3000000  -0.2500000), wk =   0.0120000
        k(  139) = (   0.1000000   0.3000000  -0.2000000), wk =   0.0060000
        k(  140) = (   0.1000000   0.3500000  -0.3500000), wk =   0.0060000
        k(  141) = (   0.1000000   0.3500000  -0.3000000), wk =   0.0120000
        k(  142) = (   0.1000000   0.3500000  -0.2500000), wk =   0.0120000
        k(  143) = (   0.1000000   0.4000000  -0.4000000), wk =   0.0060000
        k(  144) = (   0.1000000   0.4000000  -0.3500000), wk =   0.0120000
        k(  145) = (   0.1000000   0.4000000  -0.3000000), wk =   0.0120000
        k(  146) = (   0.1000000   0.4000000  -0.2500000), wk =   0.0060000
        k(  147) = (   0.1000000   0.4500000  -0.4500000), wk =   0.0060000
        k(  148) = (   0.1000000   0.4500000  -0.4000000), wk =   0.0120000
        k(  149) = (   0.1000000   0.4500000  -0.3500000), wk =   0.0120000
        k(  150) = (   0.1000000   0.4500000  -0.3000000), wk =   0.0120000
        k(  151) = (   0.1000000  -0.5000000  -0.5000000), wk =   0.0030000
        k(  152) = (   0.1000000  -0.5000000  -0.4500000), wk =   0.0120000
        k(  153) = (   0.1000000  -0.5000000  -0.4000000), wk =   0.0120000
        k(  154) = (   0.1000000  -0.5000000  -0.3500000), wk =   0.0120000
        k(  155) = (   0.1000000  -0.5000000  -0.3000000), wk =   0.0060000
        k(  156) = (   0.1000000  -0.4500000  -0.4500000), wk =   0.0060000
        k(  157) = (   0.1000000  -0.4500000  -0.4000000), wk =   0.0120000
        k(  158) = (   0.1000000  -0.4500000  -0.3500000), wk =   0.0120000
        k(  159) = (   0.1000000  -0.4000000  -0.4000000), wk =   0.0060000
        k(  160) = (   0.1000000  -0.4000000  -0.3500000), wk =   0.0060000
        k(  161) = (   0.1500000   0.1500000   0.1500000), wk =   0.0020000
        k(  162) = (   0.1500000   0.1500000   0.2000000), wk =   0.0060000
        k(  163) = (   0.1500000   0.1500000   0.2500000), wk =   0.0060000
        k(  164) = (   0.1500000   0.1500000   0.3000000), wk =   0.0060000
        k(  165) = (   0.1500000   0.1500000   0.3500000), wk =   0.0030000
        k(  166) = (   0.1500000   0.1500000  -0.1500000), wk =   0.0015000
        k(  167) = (   0.1500000   0.2000000   0.2000000), wk =   0.0060000
        k(  168) = (   0.1500000   0.2000000   0.2500000), wk =   0.0120000
        k(  169) = (   0.1500000   0.2000000   0.3000000), wk =   0.0120000
        k(  170) = (   0.1500000   0.2000000  -0.2000000), wk =   0.0060000
        k(  171) = (   0.1500000   0.2500000   0.2500000), wk =   0.0060000
        k(  172) = (   0.1500000   0.2500000   0.3000000), wk =   0.0060000
        k(  173) = (   0.1500000   0.2500000  -0.2500000), wk =   0.0060000
        k(  174) = (   0.1500000   0.2500000  -0.2000000), wk =   0.0060000
        k(  175) = (   0.1500000   0.3000000  -0.3000000), wk =   0.0060000
        k(  176) = (   0.1500000   0.3000000  -0.2500000), wk =   0.0120000
        k(  177) = (   0.1500000   0.3500000  -0.3500000), wk =   0.0060000
        k(  178) = (   0.1500000   0.3500000  -0.3000000), wk =   0.0120000
        k(  179) = (   0.1500000   0.3500000  -0.2500000), wk =   0.0060000
        k(  180) = (   0.1500000   0.4000000  -0.4000000), wk =   0.0060000
        k(  181) = (   0.1500000   0.4000000  -0.3500000), wk =   0.0120000
        k(  182) = (   0.1500000   0.4000000  -0.3000000), wk =   0.0120000
        k(  183) = (   0.1500000   0.4500000  -0.4500000), wk =   0.0060000
        k(  184) = (   0.1500000   0.4500000  -0.4000000), wk =   0.0120000
        k(  185) = (   0.1500000   0.4500000  -0.3500000), wk =   0.0120000
        k(  186) = (   0.1500000   0.4500000  -0.3000000), wk =   0.0060000
        k(  187) = (   0.1500000  -0.5000000  -0.5000000), wk =   0.0030000
        k(  188) = (   0.1500000  -0.5000000  -0.4500000), wk =   0.0120000
        k(  189) = (   0.1500000  -0.5000000  -0.4000000), wk =   0.0120000
        k(  190) = (   0.1500000  -0.5000000  -0.3500000), wk =   0.0120000
        k(  191) = (   0.1500000  -0.4500000  -0.4500000), wk =   0.0060000
        k(  192) = (   0.1500000  -0.4500000  -0.4000000), wk =   0.0120000
        k(  193) = (   0.1500000  -0.4500000  -0.3500000), wk =   0.0060000
        k(  194) = (   0.1500000  -0.4000000  -0.4000000), wk =   0.0060000
        k(  195) = (   0.2000000   0.2000000   0.2000000), wk =   0.0020000
        k(  196) = (   0.2000000   0.2000000   0.2500000), wk =   0.0060000
        k(  197) = (   0.2000000   0.2000000   0.3000000), wk =   0.0030000
        k(  198) = (   0.2000000   0.2000000  -0.2000000), wk =   0.0015000
        k(  199) = (   0.2000000   0.2500000   0.2500000), wk =   0.0060000
        k(  200) = (   0.2000000   0.2500000  -0.2500000), wk =   0.0060000
        k(  201) = (   0.2000000   0.3000000  -0.3000000), wk =   0.0060000
        k(  202) = (   0.2000000   0.3000000  -0.2500000), wk =   0.0060000
        k(  203) = (   0.2000000   0.3500000  -0.3500000), wk =   0.0060000
        k(  204) = (   0.2000000   0.3500000  -0.3000000), wk =   0.0120000
        k(  205) = (   0.2000000   0.4000000  -0.4000000), wk =   0.0060000
        k(  206) = (   0.2000000   0.4000000  -0.3500000), wk =   0.0120000
        k(  207) = (   0.2000000   0.4000000  -0.3000000), wk =   0.0060000
        k(  208) = (   0.2000000   0.4500000  -0.4500000), wk =   0.0060000
        k(  209) = (   0.2000000   0.4500000  -0.4000000), wk =   0.0120000
        k(  210) = (   0.2000000   0.4500000  -0.3500000), wk =   0.0120000
        k(  211) = (   0.2000000  -0.5000000  -0.5000000), wk =   0.0030000
        k(  212) = (   0.2000000  -0.5000000  -0.4500000), wk =   0.0120000
        k(  213) = (   0.2000000  -0.5000000  -0.4000000), wk =   0.0120000
        k(  214) = (   0.2000000  -0.5000000  -0.3500000), wk =   0.0060000
        k(  215) = (   0.2000000  -0.4500000  -0.4500000), wk =   0.0060000
        k(  216) = (   0.2000000  -0.4500000  -0.4000000), wk =   0.0120000
        k(  217) = (   0.2000000  -0.4000000  -0.4000000), wk =   0.0020000
        k(  218) = (   0.2500000   0.2500000   0.2500000), wk =   0.0005000
        k(  219) = (   0.2500000   0.2500000  -0.2500000), wk =   0.0015000
        k(  220) = (   0.2500000   0.3000000  -0.3000000), wk =   0.0060000
        k(  221) = (   0.2500000   0.3500000  -0.3500000), wk =   0.0060000
        k(  222) = (   0.2500000   0.3500000  -0.3000000), wk =   0.0060000
        k(  223) = (   0.2500000   0.4000000  -0.4000000), wk =   0.0060000
        k(  224) = (   0.2500000   0.4000000  -0.3500000), wk =   0.0120000
        k(  225) = (   0.2500000   0.4500000  -0.4500000), wk =   0.0060000
        k(  226) = (   0.2500000   0.4500000  -0.4000000), wk =   0.0120000
        k(  227) = (   0.2500000   0.4500000  -0.3500000), wk =   0.0060000
        k(  228) = (   0.2500000  -0.5000000  -0.5000000), wk =   0.0030000
        k(  229) = (   0.2500000  -0.5000000  -0.4500000), wk =   0.0120000
        k(  230) = (   0.2500000  -0.5000000  -0.4000000), wk =   0.0120000
        k(  231) = (   0.2500000  -0.4500000  -0.4500000), wk =   0.0060000
        k(  232) = (   0.2500000  -0.4500000  -0.4000000), wk =   0.0060000
        k(  233) = (   0.3000000   0.3000000  -0.3000000), wk =   0.0015000
        k(  234) = (   0.3000000   0.3500000  -0.3500000), wk =   0.0060000
        k(  235) = (   0.3000000   0.4000000  -0.4000000), wk =   0.0060000
        k(  236) = (   0.3000000   0.4000000  -0.3500000), wk =   0.0060000
        k(  237) = (   0.3000000   0.4500000  -0.4500000), wk =   0.0060000
        k(  238) = (   0.3000000   0.4500000  -0.4000000), wk =   0.0120000
        k(  239) = (   0.3000000  -0.5000000  -0.5000000), wk =   0.0030000
        k(  240) = (   0.3000000  -0.5000000  -0.4500000), wk =   0.0120000
        k(  241) = (   0.3000000  -0.5000000  -0.4000000), wk =   0.0060000
        k(  242) = (   0.3000000  -0.4500000  -0.4500000), wk =   0.0060000
        k(  243) = (   0.3500000   0.3500000  -0.3500000), wk =   0.0015000
        k(  244) = (   0.3500000   0.4000000  -0.4000000), wk =   0.0060000
        k(  245) = (   0.3500000   0.4500000  -0.4500000), wk =   0.0060000
        k(  246) = (   0.3500000   0.4500000  -0.4000000), wk =   0.0060000
        k(  247) = (   0.3500000  -0.5000000  -0.5000000), wk =   0.0030000
        k(  248) = (   0.3500000  -0.5000000  -0.4500000), wk =   0.0120000
        k(  249) = (   0.3500000  -0.4500000  -0.4500000), wk =   0.0020000
        k(  250) = (   0.4000000   0.4000000  -0.4000000), wk =   0.0015000
        k(  251) = (   0.4000000   0.4500000  -0.4500000), wk =   0.0060000
        k(  252) = (   0.4000000  -0.5000000  -0.5000000), wk =   0.0030000
        k(  253) = (   0.4000000  -0.5000000  -0.4500000), wk =   0.0060000
        k(  254) = (   0.4500000   0.4500000  -0.4500000), wk =   0.0015000
        k(  255) = (   0.4500000  -0.5000000  -0.5000000), wk =   0.0030000
        k(  256) = (  -0.5000000  -0.5000000  -0.5000000), wk =   0.0002500

     Dense  grid:     3103 G-vectors     FFT dimensions: (  20,  20,  20)

     Dynamical RAM for                 wfc:       0.04 MB

     Dynamical RAM for     wfc (w. buffer):       9.27 MB

     Dynamical RAM for           str. fact:       0.05 MB

     Dynamical RAM for           local pot:       0.00 MB

     Dynamical RAM for          nlocal pot:       0.05 MB

     Dynamical RAM for                qrad:       0.23 MB

     Dynamical RAM for          rho,v,vnew:       0.33 MB

     Dynamical RAM for               rhoin:       0.11 MB

     Dynamical RAM for            rho*nmix:       0.76 MB

     Dynamical RAM for           G-vectors:       0.20 MB

     Dynamical RAM for          h,s,v(r/c):       0.03 MB

     Dynamical RAM for          <psi|beta>:       0.00 MB

     Dynamical RAM for                 psi:       0.14 MB

     Dynamical RAM for                hpsi:       0.14 MB

     Dynamical RAM for                spsi:       0.14 MB

     Dynamical RAM for      wfcinit/wfcrot:       0.07 MB

     Dynamical RAM for           addusdens:       2.89 MB

     Estimated static dynamical RAM per process >      11.39 MB

     Estimated max dynamical RAM per process >      14.28 MB

     Initial potential from superposition of free atoms

     starting charge    2.99753, renormalised to    3.00000
     Starting wfc are    4 randomized atomic wfcs +    2 random wfc

     total cpu time spent up to now is        0.7 secs

     Self-consistent Calculation

     iteration #  1     ecut=    35.00 Ry     beta= 0.70
     Davidson diagonalization with overlap
     ethr =  1.00E-02,  avg # of iterations =  4.7

     Threshold (ethr) on eigenvalues was too large:
     Diagonalizing with lowered threshold

     Davidson diagonalization with overlap
     ethr =  1.91E-04,  avg # of iterations =  1.5

     total cpu time spent up to now is        4.6 secs

     total energy              =      -6.70048603 Ry
     Harris-Foulkes estimate   =      -6.70254772 Ry
     estimated scf accuracy    <       0.00571477 Ry

     iteration #  2     ecut=    35.00 Ry     beta= 0.70
     Davidson diagonalization with overlap
     ethr =  1.90E-04,  avg # of iterations =  1.0

     total cpu time spent up to now is        5.7 secs

     total energy              =      -6.70052477 Ry
     Harris-Foulkes estimate   =      -6.70062983 Ry
     estimated scf accuracy    <       0.00030509 Ry

     iteration #  3     ecut=    35.00 Ry     beta= 0.70
     Davidson diagonalization with overlap
     ethr =  1.02E-05,  avg # of iterations =  1.7

     total cpu time spent up to now is        6.9 secs

     End of self-consistent calculation

          k = 0.0000 0.0000 0.0000 (   381 PWs)   bands (ev):

    -3.2976  20.9698  20.9702  22.0558  22.0558  22.0558

     occupation numbers 
     1.0000   0.0000   0.0000   0.0000   0.0000   0.0000

          k = 0.0000 0.0433-0.0433 (   381 PWs)   bands (ev):

    -3.2261  19.9328  20.3020  20.6692  21.8000  22.5531

     occupation numbers 
     1.0000   0.0000   0.0000   0.0000   0.0000   0.0000

          k = 0.0000 0.0866-0.0866 (   388 PWs)   bands (ev):

    -3.0119  18.0901  19.3881  19.9755  21.1811  22.3379

     occupation numbers 
     1.0000   0.0000   0.0000   0.0000   0.0000   0.0000

          k = 0.0000 0.1299-0.1299 (   388 PWs)   bands (ev):

    -2.6556  16.0593  18.5527  19.1703  20.4479  21.6321

     occupation numbers 
     1.0000   0.0000   0.0000   0.0000   0.0000   0.0000

          k = 0.0000 0.1732-0.1732 (   384 PWs)   bands (ev):

    -2.1579  14.0237  17.8227  18.3923  19.7381  20.9930

     occupation numbers 
     1.0000   0.0000   0.0000   0.0000   0.0000   0.0000

          k = 0.0000 0.2165-0.2165 (   386 PWs)   bands (ev):

    -1.5201  12.0494  17.2036  17.6988  19.1066  20.4220

     occupation numbers 
     1.0000   0.0000   0.0000   0.0000   0.0000   0.0000

          k = 0.0000 0.2598-0.2598 (   392 PWs)   bands (ev):

    -0.7440  10.1642  16.6969  17.1151  18.5766  19.9300

     occupation numbers 
     1.0000   0.0000   0.0000   0.0000   0.0000   0.0000

          k = 0.0000 0.3031-0.3031 (   392 PWs)   bands (ev):

     0.1682   8.3821  16.3028  16.6537  18.1584  19.5318

     occupation numbers 
     1.0000   0.0000   0.0000   0.0000   0.0000   0.0000

          k = 0.0000 0.3464-0.3464 (   402 PWs)   bands (ev):

     1.2134   6.7125  16.0215  16.3210  17.8573  19.2389

     occupation numbers 
     1.0000   1.0000   0.0000   0.0000   0.0000   0.0000

          k = 0.0000 0.3897-0.3897 (   394 PWs)   bands (ev):

     2.3841   5.1661  15.8527  16.1202  17.6757  19.0598

     occupation numbers 
     1.0000   1.0000   0.0000   0.0000   0.0000   0.0000

          k = 0.0000-0.4330 0.4330 (   392 PWs)   bands (ev):

     3.4822   3.9426  15.7965  16.0531  17.6151  18.9995

     occupation numbers 
     1.0000   1.0000   0.0000   0.0000   0.0000   0.0000

          k = 0.0433 0.0433-0.0866 (   384 PWs)   bands (ev):

    -3.0833  19.0169  19.0693  20.0909  21.7612  22.6291

     occupation numbers 
     1.0000   0.0000   0.0000   0.0000   0.0000   0.0000

          k = 0.0433 0.0866-0.1299 (   389 PWs)   bands (ev):

    -2.7980  17.1132  18.1460  19.3063  21.3213  22.1568

     occupation numbers 
     1.0000   0.0000   0.0000   0.0000   0.0000   0.0000

          k = 0.0433 0.1299-0.1732 (   389 PWs)   bands (ev):

    -2.3710  15.0769  17.3294  18.5272  20.6293  21.7426

     occupation numbers 
     1.0000   0.0000   0.0000   0.0000   0.0000   0.0000

          k = 0.0433 0.1732-0.2165 (   388 PWs)   bands (ev):

    -1.8033  13.0710  16.6130  17.8255  19.9583  21.2665

     occupation numbers 
     1.0000   0.0000   0.0000   0.0000   0.0000   0.0000

          k = 0.0433 0.2165-0.2598 (   387 PWs)   bands (ev):

    -1.0963  11.1413  16.0067  17.2279  19.3711  20.7988

     occupation numbers 
     1.0000   0.0000   0.0000   0.0000   0.0000   0.0000

          k = 0.0433 0.2598-0.3031 (   391 PWs)   bands (ev):

    -0.2521   9.3079  15.5160  16.7448  18.8889  20.3894

     occupation numbers 
     1.0000   0.0000   0.0000   0.0000   0.0000   0.0000

          k = 0.0433 0.3031-0.3464 (   393 PWs)   bands (ev):

     0.7268   7.5822  15.1449  16.3805  18.5214  20.0654

     occupation numbers 
     1.0000   1.0783   0.0000   0.0000   0.0000   0.0000

          k = 0.0433 0.3464-0.3897 (   396 PWs)   bands (ev):

     1.8359   5.9732  14.8962  16.1372  18.2741  19.8425

     occupation numbers 
     1.0000   1.0000   0.0000   0.0000   0.0000   0.0000

          k = 0.0433 0.3897-0.4330 (   390 PWs)   bands (ev):

     3.0555   4.5030  14.7714  16.0153  18.1499  19.7291

     occupation numbers 
     1.0000   1.0000   0.0000   0.0000   0.0000   0.0000

          k = 0.0866 0.0866-0.1732 (   391 PWs)   bands (ev):

    -2.4421  16.1104  16.3153  18.5554  21.5201  21.7139

     occupation numbers 
     1.0000   0.0000   0.0000   0.0000   0.0000   0.0000

          k = 0.0866 0.1299-0.2165 (   391 PWs)   bands (ev):

    -1.9450  14.1858  15.4343  17.8379  20.9707  21.8435

     occupation numbers 
     1.0000   0.0000   0.0000   0.0000   0.0000   0.0000

          k = 0.0866 0.1732-0.2598 (   389 PWs)   bands (ev):

    -1.3081  12.2290  14.7446  17.2024  20.3594  21.9653

     occupation numbers 
     1.0000   0.0000   0.0000   0.0000   0.0000   0.0000

          k = 0.0866 0.2165-0.3031 (   386 PWs)   bands (ev):

    -0.5330  10.3531  14.1767  16.6702  19.8331  21.8722

     occupation numbers 
     1.0000   0.0000   0.0000   0.0000   0.0000   0.0000

          k = 0.0866 0.2598-0.3464 (   387 PWs)   bands (ev):

     0.3780   8.5771  13.7323  16.2508  19.4124  21.6635

     occupation numbers 
     1.0000   0.0000   0.0000   0.0000   0.0000   0.0000

          k = 0.0866 0.3031-0.3897 (   393 PWs)   bands (ev):

     1.4216   6.9118  13.4135  15.9489  19.1070  21.4622

     occupation numbers 
     1.0000   1.0000   0.0000   0.0000   0.0000   0.0000

          k = 0.0866 0.3464-0.4330 (   396 PWs)   bands (ev):

     2.5903   5.3689  13.2217  15.7669  18.9220  21.3273

     occupation numbers 
     1.0000   1.0000   0.0000   0.0000   0.0000   0.0000

          k = 0.0866 0.3897-0.4763 (   395 PWs)   bands (ev):

     3.6835   4.1508  13.1576  15.7061  18.8601  21.2803

     occupation numbers 
     1.0000   1.0000   0.0000   0.0000   0.0000   0.0000

          k = 0.1299 0.1299-0.2598 (   391 PWs)   bands (ev):

    -1.3787  13.2395  13.6552  17.1814  21.3306  21.4428

     occupation numbers 
     1.0000   0.0000   0.0000   0.0000   0.0000   0.0000

          k = 0.1299 0.1732-0.3031 (   387 PWs)   bands (ev):

    -0.6736  11.4913  12.8542  16.6054  20.8569  21.8947

     occupation numbers 
     1.0000   0.0000   0.0000   0.0000   0.0000   0.0000

          k = 0.1299 0.2165-0.3464 (   386 PWs)   bands (ev):

     0.1683   9.6858  12.3236  16.1320  20.4055  22.4041

     occupation numbers 
     1.0000   0.0000   0.0000   0.0000   0.0000   0.0000

          k = 0.1299 0.2598-0.3897 (   391 PWs)   bands (ev):

     1.1444   7.9737  11.9304  15.7715  20.0534  22.7822

     occupation numbers 
     1.0000   0.0091   0.0000   0.0000   0.0000   0.0000

          k = 0.1299 0.3031-0.4330 (   396 PWs)   bands (ev):

     2.2500   6.3737  11.6686  15.5290  19.8139  22.9317

     occupation numbers 
     1.0000   1.0000   0.0000   0.0000   0.0000   0.0000

          k = 0.1299 0.3464-0.4763 (   397 PWs)   bands (ev):

     3.4644   4.9112  11.5377  15.4072  19.6932  22.9567

     occupation numbers 
     1.0000   1.0000   0.0000   0.0000   0.0000   0.0000

          k = 0.1732 0.1732-0.3464 (   388 PWs)   bands (ev):

     0.0983  10.6828  11.2218  16.0877  21.3708  21.6118

     occupation numbers 
     1.0000   0.0000   0.0000   0.0000   0.0000   0.0000

          k = 0.1732 0.2165-0.3897 (   391 PWs)   bands (ev):

     1.0055   9.1276  10.5566  15.6731  21.1030  22.2332

     occupation numbers 
     1.0000   0.0000   0.0000   0.0000   0.0000   0.0000

          k = 0.1732 0.2598-0.4330 (   395 PWs)   bands (ev):

     2.0443   7.4971  10.2037  15.3720  20.8273  23.0134

     occupation numbers 
     1.0000   1.0259   0.0000   0.0000   0.0000   0.0000

          k = 0.1732 0.3031-0.4763 (   397 PWs)   bands (ev):

     3.2067   5.9706   9.9990  15.1898  20.6554  23.7589

     occupation numbers 
     1.0000   1.0000   0.0000   0.0000   0.0000   0.0000

          k = 0.1732 0.3464-0.5196 (   393 PWs)   bands (ev):

     4.2872   4.7679   9.9313  15.1288  20.5973  24.1426

     occupation numbers 
     1.0000   1.0000   0.0000   0.0000   0.0000   0.0000

          k = 0.2165 0.2165-0.4330 (   390 PWs)   bands (ev):

     1.9756   8.4955   9.0899  15.3179  21.8100  22.0780

     occupation numbers 
     1.0000   0.0000   0.0000   0.0000   0.0000   0.0000

          k = 0.2165 0.2598-0.4763 (   390 PWs)   bands (ev):

     3.0735   7.1341   8.5965  15.0772  21.7213  22.8843

     occupation numbers 
     1.0000   1.0000   0.0000   0.0000   0.0000   0.0000

          k = 0.2165 0.3031-0.5196 (   393 PWs)   bands (ev):

     4.2768   5.7094   8.4382  14.9559  21.6192  23.8705

     occupation numbers 
     1.0000   1.0000   0.0000   0.0000   0.0000   0.0000

          k = 0.2598 0.2598-0.5196 (   389 PWs)   bands (ev):

     4.2215   6.6961   7.3186  14.8975  22.6401  22.8452

     occupation numbers 
     1.0000   1.0000   1.0001   0.0000   0.0000   0.0000

          k = 0.2598 0.3031-0.5629 (   392 PWs)   bands (ev):

     5.2921   5.7079   7.0464  14.8371  22.6881  23.8483

     occupation numbers 
     1.0000   1.0000   1.0000   0.0000   0.0000   0.0000

          k = 0.0866 0.0866-0.0866 (   387 PWs)   bands (ev):

    -2.8693  18.1803  18.2264  18.2264  22.6918  22.6918

     occupation numbers 
     1.0000   0.0000   0.0000   0.0000   0.0000   0.0000

          k = 0.0866 0.1299-0.1299 (   389 PWs)   bands (ev):

    -2.5132  16.1778  17.3498  17.3788  22.2498  22.8420

     occupation numbers 
     1.0000   0.0000   0.0000   0.0000   0.0000   0.0000

          k = 0.0866 0.1732-0.1732 (   387 PWs)   bands (ev):

    -2.0159  14.1443  16.5445  16.6468  21.6880  22.2641

     occupation numbers 
     1.0000   0.0000   0.0000   0.0000   0.0000   0.0000

          k = 0.0866 0.2165-0.2165 (   388 PWs)   bands (ev):

    -1.3787  12.1738  15.8441  16.0149  21.1239  21.7383

     occupation numbers 
     1.0000   0.0000   0.0000   0.0000   0.0000   0.0000

          k = 0.0866 0.2598-0.2598 (   384 PWs)   bands (ev):

    -0.6033  10.2921  15.2623  15.4913  20.6231  21.2819

     occupation numbers 
     1.0000   0.0000   0.0000   0.0000   0.0000   0.0000

          k = 0.0866 0.3031-0.3031 (   388 PWs)   bands (ev):

     0.3081   8.5130  14.8057  15.0805  20.2169  20.9111

     occupation numbers 
     1.0000   0.0000   0.0000   0.0000   0.0000   0.0000

          k = 0.0866 0.3464-0.3464 (   392 PWs)   bands (ev):

     1.3523   6.8458  14.4778  14.7853  19.9201  20.6383

     occupation numbers 
     1.0000   1.0000   0.0000   0.0000   0.0000   0.0000

          k = 0.0866 0.3897-0.3897 (   394 PWs)   bands (ev):

     2.5216   5.3015  14.2804  14.6076  19.7398  20.4715

     occupation numbers 
     1.0000   1.0000   0.0000   0.0000   0.0000   0.0000

          k = 0.0866 0.4330-0.4330 (   396 PWs)   bands (ev):

     3.6164   4.0816  14.2145  14.5482  19.6793  20.4154

     occupation numbers 
     1.0000   1.0000   0.0000   0.0000   0.0000   0.0000

          k = 0.0866-0.0000 0.0000 (   381 PWs)   bands (ev):

    -3.1547  19.5017  19.5018  21.1084  21.2444  22.1851

     occupation numbers 
     1.0000   0.0000   0.0000   0.0000   0.0000   0.0000

          k = 0.1299 0.1299-0.1732 (   391 PWs)   bands (ev):

    -2.0869  15.1923  15.4640  16.5837  22.6874  23.0442

     occupation numbers 
     1.0000   0.0000   0.0000   0.0000   0.0000   0.0000

          k = 0.1299 0.1732-0.2165 (   389 PWs)   bands (ev):

    -1.5201  13.3040  14.6068  15.8784  22.3494  22.9901

     occupation numbers 
     1.0000   0.0000   0.0000   0.0000   0.0000   0.0000

          k = 0.1299 0.2165-0.2598 (   388 PWs)   bands (ev):

    -0.8144  11.3894  13.9665  15.2768  21.8548  22.7990

     occupation numbers 
     1.0000   0.0000   0.0000   0.0000   0.0000   0.0000

          k = 0.1299 0.2598-0.3031 (   390 PWs)   bands (ev):

     0.0283   9.5647  13.4526  14.7890  21.4203  22.5185

     occupation numbers 
     1.0000   0.0000   0.0000   0.0000   0.0000   0.0000

          k = 0.1299 0.3031-0.3464 (   391 PWs)   bands (ev):

     1.0053   7.8453  13.0654  14.4200  21.0806  22.2601

     occupation numbers 
     1.0000   0.1914   0.0000   0.0000   0.0000   0.0000

          k = 0.1299 0.3464-0.3897 (   393 PWs)   bands (ev):

     2.1121   6.2413  12.8064  14.1727  20.8488  22.0715

     occupation numbers 
     1.0000   1.0000   0.0000   0.0000   0.0000   0.0000

          k = 0.1299 0.3897-0.4330 (   392 PWs)   bands (ev):

     3.3283   4.7758  12.6766  14.0487  20.7317  21.9735

     occupation numbers 
     1.0000   1.0000   0.0000   0.0000   0.0000   0.0000

          k = 0.1299-0.0433-0.0000 (   389 PWs)   bands (ev):

    -2.9406  18.0308  18.5516  20.6630  20.8124  21.3636

     occupation numbers 
     1.0000   0.0000   0.0000   0.0000   0.0000   0.0000

          k = 0.1732 0.1732-0.2598 (   387 PWs)   bands (ev):

    -0.8848  12.4004  12.8586  15.2262  22.8142  22.9226

     occupation numbers 
     1.0000   0.0000   0.0000   0.0000   0.0000   0.0000

          k = 0.1732 0.2165-0.3031 (   389 PWs)   bands (ev):

    -0.1118  10.7104  12.1004  14.6793  22.4695  23.3420

     occupation numbers 
     1.0000   0.0000   0.0000   0.0000   0.0000   0.0000

          k = 0.1732 0.2598-0.3464 (   390 PWs)   bands (ev):

     0.7967   8.9601  11.6274  14.2477  22.1065  23.6636

     occupation numbers 
     1.0000   0.0000   0.0000   0.0000   0.0000   0.0000

          k = 0.1732 0.3031-0.3897 (   391 PWs)   bands (ev):

     1.8372   7.3070  11.2955  13.9367  21.8321  23.7594

     occupation numbers 
     1.0000   1.0001   0.0000   0.0000   0.0000   0.0000

          k = 0.1732 0.3464-0.4330 (   391 PWs)   bands (ev):

     3.0018   5.7723  11.0970  13.7492  21.6633  23.7463

     occupation numbers 
     1.0000   1.0000   0.0000   0.0000   0.0000   0.0000

          k = 0.1732 0.3897-0.4763 (   391 PWs)   bands (ev):

     4.0861   4.5642  11.0309  13.6865  21.6064  23.7317

     occupation numbers 
     1.0000   1.0000   0.0000   0.0000   0.0000   0.0000

          k = 0.1732-0.0866 0.0000 (   386 PWs)   bands (ev):

    -2.5844  16.0844  17.6777  19.8952  20.1297  21.1966

     occupation numbers 
     1.0000   0.0000   0.0000   0.0000   0.0000   0.0000

          k = 0.1732-0.0433-0.0433 (   389 PWs)   bands (ev):

    -2.6556  17.0362  17.1278  20.0776  20.4973  20.8015

     occupation numbers 
     1.0000   0.0000   0.0000   0.0000   0.0000   0.0000

          k = 0.2165 0.2165-0.3464 (   392 PWs)   bands (ev):

     0.7270   9.9588  10.5179  14.1898  23.1425  23.1582

     occupation numbers 
     1.0000   0.0000   0.0000   0.0000   0.0000   0.0000

          k = 0.2165 0.2598-0.3897 (   390 PWs)   bands (ev):

     1.6992   8.4658   9.9080  13.8176  22.8802  23.8819

     occupation numbers 
     1.0000   0.0000   0.0000   0.0000   0.0000   0.0000

          k = 0.2165 0.3031-0.4330 (   393 PWs)   bands (ev):

     2.7999   6.8972   9.6184  13.5674  22.6773  24.5800

     occupation numbers 
     1.0000   1.0000   0.0000   0.0000   0.0000   0.0000

          k = 0.2165 0.3464-0.4763 (   393 PWs)   bands (ev):

     4.0073   5.4491   9.4794  13.4417  22.5715  25.0446

     occupation numbers 
     1.0000   1.0000   0.0000   0.0000   0.0000   0.0000

          k = 0.2165-0.1299-0.0000 (   386 PWs)   bands (ev):

    -2.0869  14.0724  16.9054  19.1393  19.4185  21.0882

     occupation numbers 
     1.0000   0.0000   0.0000   0.0000   0.0000   0.0000

[...]

     occupation numbers 
     1.0000   0.0000   0.0000   0.0000   0.0000   0.0000

          k = 0.3897-0.1299 0.0000 (   395 PWs)   bands (ev):

    -0.1118  10.7123  13.7014  15.9588  18.7761  21.2032

     occupation numbers 
     1.0000   0.0000   0.0000   0.0000   0.0000   0.0000

          k = 0.3897-0.0866-0.0433 (   394 PWs)   bands (ev):

    -0.2520  11.8162  12.9951  16.3348  17.5891  21.7692

     occupation numbers 
     1.0000   0.0000   0.0000   0.0000   0.0000   0.0000

          k = 0.4330-0.1732 0.0000 (   397 PWs)   bands (ev):

     0.7967   8.9587  13.2656  15.5154  19.4702  20.8063

     occupation numbers 
     1.0000   0.0000   0.0000   0.0000   0.0000   0.0000

          k = 0.4330-0.1299-0.0433 (   398 PWs)   bands (ev):

     0.5876  10.0511  12.4823  15.8772  18.1925  21.3651

     occupation numbers 
     1.0000   0.0000   0.0000   0.0000   0.0000   0.0000

          k = 0.4330-0.0866-0.0866 (   400 PWs)   bands (ev):

     0.5178  11.0424  11.4832  16.6152  17.2488  21.4487

     occupation numbers 
     1.0000   0.0000   0.0000   0.0000   0.0000   0.0000

          k = 0.4763-0.2165 0.0000 (   398 PWs)   bands (ev):

     1.8372   7.3062  12.9538  15.1930  20.2316  20.5142

     occupation numbers 
     1.0000   1.0001   0.0000   0.0000   0.0000   0.0000

          k = 0.4763-0.1732-0.0433 (   398 PWs)   bands (ev):

     1.5608   8.3590  12.0988  15.5074  18.9590  21.0515

     occupation numbers 
     1.0000   0.0000   0.0000   0.0000   0.0000   0.0000

          k = 0.4763-0.1299-0.0866 (   401 PWs)   bands (ev):

     1.4223   9.4999  10.8601  16.4209  17.7274  21.1044

     occupation numbers 
     1.0000   0.0000   0.0000   0.0000   0.0000   0.0000

          k = 0.5196-0.2598-0.0000 (   395 PWs)   bands (ev):

     3.0017   5.7720  12.7666  14.9978  20.3366  20.9428

     occupation numbers 
     1.0000   1.0000   0.0000   0.0000   0.0000   0.0000

          k = 0.5196-0.2165-0.0433 (   400 PWs)   bands (ev):

     2.6628   6.7706  11.8430  15.2549  19.7791  20.8980

     occupation numbers 
     1.0000   1.0000   0.0000   0.0000   0.0000   0.0000

          k = 0.5196-0.1732-0.0866 (   401 PWs)   bands (ev):

     2.4579   7.8853  10.5175  16.1411  18.5419  20.8388

     occupation numbers 
     1.0000   0.0887   0.0000   0.0000   0.0000   0.0000

          k = 0.5196-0.1299-0.1299 (   404 PWs)   bands (ev):

     2.3894   8.8820   9.4312  17.0246  17.5446  20.7959

     occupation numbers 
     1.0000   0.0000   0.0000   0.0000   0.0000   0.0000

          k =-0.3031-0.3031 0.8660 (   398 PWs)   bands (ev):

     4.0857   4.5643  12.7041  14.9324  20.2774  21.2912

     occupation numbers 
     1.0000   1.0000   0.0000   0.0000   0.0000   0.0000

          k =-0.3031-0.2598 0.8227 (   395 PWs)   bands (ev):

     3.8719   5.3167  11.7150  15.1274  20.3030  21.2109

     occupation numbers 
     1.0000   1.0000   0.0000   0.0000   0.0000   0.0000

          k =-0.3031-0.2165 0.7794 (   399 PWs)   bands (ev):

     3.6160   6.3693  10.3169  15.9607  19.4212  20.6966

     occupation numbers 
     1.0000   1.0000   0.0000   0.0000   0.0000   0.0000

          k =-0.3031-0.1732 0.7361 (   398 PWs)   bands (ev):

     3.4834   7.5250   8.9569  16.9922  18.2463  20.5081

     occupation numbers 
     1.0000   1.0421   0.0000   0.0000   0.0000   0.0000

          k =-0.2598-0.2598 0.7794 (   394 PWs)   bands (ev):

     4.6886   5.1764  10.2504  15.8996  19.9395  20.7297

     occupation numbers 
     1.0000   1.0000   0.0000   0.0000   0.0000   0.0000

          k =-0.2598-0.2165 0.7361 (   397 PWs)   bands (ev):

     4.6814   6.1092   8.8026  16.8894  19.1814  20.0974

     occupation numbers 
     1.0000   1.0000   0.0000   0.0000   0.0000   0.0000

          k =-0.2598-0.1732 0.6928 (   396 PWs)   bands (ev):

     4.6268   7.0919   7.6961  17.8591  18.1808  19.9774

     occupation numbers 
     1.0000   1.0000   0.9132   0.0000   0.0000   0.0000

          k =-0.2165-0.2165 0.6928 (   397 PWs)   bands (ev):

     5.6917   6.1075   7.4304  17.9434  19.0412  19.0986

     occupation numbers 
     1.0000   1.0000   1.0054   0.0000   0.0000   0.0000

          k = 0.3464 0.3464-0.3464 (   387 PWs)   bands (ev):

     3.4164   8.5665   8.5665   9.5553  27.5982  27.5983

     occupation numbers 
     1.0000   0.0000   0.0000   0.0000   0.0000   0.0000

          k = 0.3464 0.3897-0.3897 (   390 PWs)   bands (ev):

     4.5628   7.2429   8.3669   9.1664  27.9739  28.0399

     occupation numbers 
     1.0000   1.0000   0.0000   0.0000   0.0000   0.0000

          k = 0.3464 0.4330-0.4330 (   390 PWs)   bands (ev):

     5.6276   6.0840   8.3003   9.0714  28.0342  28.1416

     occupation numbers 
     1.0000   1.0000   0.0000   0.0000   0.0000   0.0000

          k = 0.3464 0.0000-0.0000 (   390 PWs)   bands (ev):

    -1.0258  14.1337  14.1337  15.9391  16.9072  23.1818

     occupation numbers 
     1.0000   0.0000   0.0000   0.0000   0.0000   0.0000

          k = 0.3897 0.3897-0.4330 (   391 PWs)   bands (ev):

     5.7370   6.8985   7.4053   8.7867  28.7801  28.8234

     occupation numbers 
     1.0000   1.0000   1.0026   0.0000   0.0000   0.0000

          k = 0.3897-0.0433 0.0000 (   398 PWs)   bands (ev):

    -0.3924  12.8301  13.4480  15.4567  16.5684  23.2170

     occupation numbers 
     1.0000   0.0000   0.0000   0.0000   0.0000   0.0000

          k = 0.4330-0.0866 0.0000 (   398 PWs)   bands (ev):

     0.3782  11.1123  12.8858  15.0400  16.9146  22.8485

     occupation numbers 
     1.0000   0.0000   0.0000   0.0000   0.0000   0.0000

          k = 0.4330-0.0433-0.0433 (   399 PWs)   bands (ev):

     0.3083  12.0738  12.3263  15.1966  16.1307  23.3076

     occupation numbers 
     1.0000   0.0000   0.0000   0.0000   0.0000   0.0000

          k = 0.4763-0.1299 0.0000 (   400 PWs)   bands (ev):

     1.2836   9.3961  12.4479  14.6292  17.6021  22.4842

     occupation numbers 
     1.0000   0.0000   0.0000   0.0000   0.0000   0.0000

          k = 0.4763-0.0866-0.0433 (   401 PWs)   bands (ev):

     1.1448  10.5111  11.7214  15.0003  16.3890  22.9562

     occupation numbers 
     1.0000   0.0000   0.0000   0.0000   0.0000   0.0000

          k = 0.5196-0.1732 0.0000 (   403 PWs)   bands (ev):

     2.3203   7.7619  12.1347  14.3151  18.4640  22.2056

     occupation numbers 
     1.0000   0.5819   0.0000   0.0000   0.0000   0.0000

          k = 0.5196-0.1299-0.0433 (   401 PWs)   bands (ev):

     2.1141   8.8624  11.3312  14.6871  17.1166  22.4313

     occupation numbers 
     1.0000   0.0000   0.0000   0.0000   0.0000   0.0000

          k = 0.5196-0.0866-0.0866 (   406 PWs)   bands (ev):

     2.0452   9.8561  10.3225  15.4004  16.1879  22.3868

     occupation numbers 
     1.0000   0.0000   0.0000   0.0000   0.0000   0.0000

          k = 0.5629-0.2165-0.0000 (   399 PWs)   bands (ev):

     3.4800   6.2390  11.9468  14.1219  19.4477  21.6602

     occupation numbers 
     1.0000   1.0000   0.0000   0.0000   0.0000   0.0000

          k = 0.5629-0.1732-0.0433 (   401 PWs)   bands (ev):

     3.2111   7.2942  11.0729  14.4484  18.0429  21.4390

     occupation numbers 
     1.0000   1.0000   0.0000   0.0000   0.0000   0.0000

          k = 0.5629-0.1299-0.0866 (   402 PWs)   bands (ev):

     3.0756   8.4407   9.8178  15.3685  16.7706  21.3184

     occupation numbers 
     1.0000   0.0000   0.0000   0.0000   0.0000   0.0000

          k =-0.2598-0.2598 0.8660 (   400 PWs)   bands (ev):

     4.5546   5.0427  11.8841  14.0568  20.4530  20.5998

     occupation numbers 
     1.0000   1.0000   0.0000   0.0000   0.0000   0.0000

          k =-0.2598-0.2165 0.8227 (   397 PWs)   bands (ev):

     4.4132   5.8530  10.9440  14.3246  19.0969  20.2535

     occupation numbers 
     1.0000   1.0000   0.0000   0.0000   0.0000   0.0000

          k =-0.2598-0.1732 0.7794 (   400 PWs)   bands (ev):

     4.2269   6.9566   9.6035  15.2248  17.7322  20.0814

     occupation numbers 
     1.0000   1.0000   0.0000   0.0000   0.0000   0.0000

          k =-0.2598-0.1299 0.7361 (   404 PWs)   bands (ev):

     4.1621   7.9515   8.5135  16.0873  16.7314  20.0231

     occupation numbers 
     1.0000   0.0173   0.0000   0.0000   0.0000   0.0000

          k =-0.2165-0.2165 0.7794 (   402 PWs)   bands (ev):

     5.2902   5.7785   9.5346  15.1700  18.7032  19.0154

     occupation numbers 
     1.0000   1.0000   0.0000   0.0000   0.0000   0.0000

          k =-0.2165-0.1732 0.7361 (   402 PWs)   bands (ev):

     5.3499   6.7411   8.1738  16.2086  17.5282  18.7835

     occupation numbers 
     1.0000   1.0000   0.0000   0.0000   0.0000   0.0000

          k =-0.1732-0.1732 0.6928 (   406 PWs)   bands (ev):

     6.4244   6.4244   7.2375  17.1942  17.1942  17.9596

     occupation numbers 
     1.0000   1.0000   1.0000   0.0000   0.0000   0.0000

          k = 0.4330 0.4330-0.4330 (   420 PWs)   bands (ev):

     6.8317   6.8317   6.8317   8.0762  29.4396  30.2196

     occupation numbers 
     1.0000   1.0000   1.0000   0.0002   0.0000   0.0000

          k = 0.4330 0.0000 0.0000 (   402 PWs)   bands (ev):

     0.2384  12.7591  12.7591  14.3819  15.5996  24.4180

     occupation numbers 
     1.0000   0.0000   0.0000   0.0000   0.0000   0.0000

          k = 0.4763-0.0433 0.0000 (   404 PWs)   bands (ev):

     1.0057  11.5474  12.1947  14.0703  15.3476  24.1530

     occupation numbers 
     1.0000   0.0000   0.0000   0.0000   0.0000   0.0000

          k = 0.5196-0.0866 0.0000 (   403 PWs)   bands (ev):

     1.9072   9.9348  11.7554  13.8129  15.7977  22.7392

     occupation numbers 
     1.0000   0.0000   0.0000   0.0000   0.0000   0.0000

          k = 0.5196-0.0433-0.0433 (   403 PWs)   bands (ev):

     1.8381  10.9054  11.1833  13.9596  15.0174  22.7082

     occupation numbers 
     1.0000   0.0000   0.0000   0.0000   0.0000   0.0000

          k = 0.5629-0.1299 0.0000 (   402 PWs)   bands (ev):

     2.9389   8.3371  11.4414  13.5393  16.6121  21.3463

     occupation numbers 
     1.0000   0.0000   0.0000   0.0000   0.0000   0.0000

          k = 0.5629-0.0866-0.0433 (   406 PWs)   bands (ev):

     2.8023   9.4608  10.6954  13.9177  15.3836  21.2509

     occupation numbers 
     1.0000   0.0000   0.0000   0.0000   0.0000   0.0000

          k = 0.6062-0.1732-0.0000 (   403 PWs)   bands (ev):

     4.0921   6.8329  11.2529  13.3572  17.6080  20.0200

     occupation numbers 
     1.0000   1.0000   0.0000   0.0000   0.0000   0.0000

          k = 0.6062-0.1299-0.0433 (   401 PWs)   bands (ev):

     3.8928   7.9354  10.4309  13.7424  16.2312  19.8563

     occupation numbers 
     1.0000   0.0269   0.0000   0.0000   0.0000   0.0000

          k = 0.6062-0.0866-0.0866 (   402 PWs)   bands (ev):

     3.8259   8.9309   9.4130  14.4534  15.3046  19.7998

     occupation numbers 
     1.0000   0.0000   0.0000   0.0000   0.0000   0.0000

          k =-0.2165-0.2165 0.8660 (   398 PWs)   bands (ev):

     5.1564   5.6503  11.1900  13.2947  18.5711  18.9483

     occupation numbers 
     1.0000   1.0000   0.0000   0.0000   0.0000   0.0000

          k =-0.2165-0.1732 0.8227 (   403 PWs)   bands (ev):

     5.0862   6.5146  10.3004  13.6332  17.2593  18.5793

     occupation numbers 
     1.0000   1.0000   0.0000   0.0000   0.0000   0.0000

          k =-0.2165-0.1299 0.7794 (   401 PWs)   bands (ev):

     4.9682   7.6482   9.0345  14.5624  15.9857  18.4475

     occupation numbers 
     1.0000   1.0493   0.0000   0.0000   0.0000   0.0000

          k =-0.1732-0.1732 0.7794 (   400 PWs)   bands (ev):

     6.0236   6.4949   8.9551  14.5382  16.7943  17.4783

     occupation numbers 
     1.0000   1.0000   0.0000   0.0000   0.0000   0.0000

          k =-0.1732-0.1299 0.7361 (   400 PWs)   bands (ev):

     6.1369   7.2860   7.8900  15.4161  15.9541  17.2369

     occupation numbers 
     1.0000   1.0000   0.0801   0.0000   0.0000   0.0000

          k = 0.5196 0.0000 0.0000 (   410 PWs)   bands (ev):

     1.7690  11.6289  11.6289  13.1054  14.4663  22.6903

     occupation numbers 
     1.0000   0.0000   0.0000   0.0000   0.0000   0.0000

          k = 0.5629-0.0433 0.0000 (   405 PWs)   bands (ev):

     2.6653  10.5147  11.1885  12.9559  14.3223  21.1636

     occupation numbers 
     1.0000   0.0000   0.0000   0.0000   0.0000   0.0000

          k = 0.6062-0.0866 0.0000 (   400 PWs)   bands (ev):

     3.6905   9.0148  10.8739  12.8436  14.8911  19.6948

     occupation numbers 
     1.0000   0.0000   0.0000   0.0000   0.0000   0.0000

          k = 0.6062-0.0433-0.0433 (   403 PWs)   bands (ev):

     3.6229   9.9931  10.2888  12.9974  14.1042  19.6386

     occupation numbers 
     1.0000   0.0000   0.0000   0.0000   0.0000   0.0000

          k = 0.6495-0.1299-0.0000 (   400 PWs)   bands (ev):

     4.8354   7.5458  10.6850  12.7033  15.8181  18.3314

     occupation numbers 
     1.0000   1.0562   0.0000   0.0000   0.0000   0.0000

          k = 0.6495-0.0866-0.0433 (   397 PWs)   bands (ev):

     4.7049   8.6715   9.9226  13.0966  14.5825  18.2072

     occupation numbers 
     1.0000   0.0000   0.0000   0.0000   0.0000   0.0000

          k =-0.1732-0.1732 0.8660 (   398 PWs)   bands (ev):

     5.8900   6.3794  10.6220  12.6492  16.6609  17.3531

     occupation numbers 
     1.0000   1.0000   0.0000   0.0000   0.0000   0.0000

          k =-0.1732-0.1299 0.8227 (   399 PWs)   bands (ev):

     5.8874   7.2912   9.7864  13.0478  15.4907  16.9485

     occupation numbers 
     1.0000   1.0000   0.0000   0.0000   0.0000   0.0000

          k =-0.1732-0.0866 0.7794 (   398 PWs)   bands (ev):

     5.8342   8.2688   8.7686  13.7762  14.5751  16.8601

     occupation numbers 
     1.0000   0.0000   0.0000   0.0000   0.0000   0.0000

          k =-0.1299-0.1299 0.7794 (   393 PWs)   bands (ev):

     6.8863   7.2886   8.5367  13.9768  15.0129  16.0131

     occupation numbers 
     1.0000   1.0000   0.0000   0.0000   0.0000   0.0000

          k = 0.6062 0.0000 0.0000 (   402 PWs)   bands (ev):

     3.5551  10.7475  10.7475  12.1116  13.5364  19.5826

     occupation numbers 
     1.0000   0.0000   0.0000   0.0000   0.0000   0.0000

          k = 0.6495-0.0433 0.0000 (   398 PWs)   bands (ev):

     4.5720   9.7371  10.4324  12.1169  13.5058  18.0846

     occupation numbers 
     1.0000   0.0000   0.0000   0.0000   0.0000   0.0000

          k = 0.6928-0.0866-0.0000 (   394 PWs)   bands (ev):

     5.7058   8.3600  10.2432  12.1363  14.1758  16.7215

     occupation numbers 
     1.0000   0.0000   0.0000   0.0000   0.0000   0.0000

          k = 0.6928-0.0433-0.0433 (   394 PWs)   bands (ev):

     5.6426   9.3396   9.6482  12.3103  13.3809  16.6500

     occupation numbers 
     1.0000   0.0000   0.0000   0.0000   0.0000   0.0000

          k =-0.1299-0.1299 0.8660 (   394 PWs)   bands (ev):

     6.7530   7.2171  10.1802  12.1125  14.8784  15.8317

     occupation numbers 
     1.0000   1.0000   0.0000   0.0000   0.0000   0.0000

          k =-0.1299-0.0866 0.8227 (   394 PWs)   bands (ev):

     6.8100   8.1574   9.4088  12.5297  13.8723  15.4517

     occupation numbers 
     1.0000   0.0000   0.0000   0.0000   0.0000   0.0000

          k =-0.0866-0.0866 0.7794 (   394 PWs)   bands (ev):

     7.8711   7.8711   8.5384  13.3697  13.3697  14.8378

     occupation numbers 
     0.1186   0.1186   0.0000   0.0000   0.0000   0.0000

          k = 0.6928 0.0000 0.0000 (   394 PWs)   bands (ev):

     5.5778  10.1169  10.1169  11.4012  12.8058  16.5812

     occupation numbers 
     1.0000   0.0000   0.0000   0.0000   0.0000   0.0000

          k = 0.7361-0.0433-0.0000 (   390 PWs)   bands (ev):

     6.6960   9.2190   9.9277  11.5515  12.8377  15.2526

     occupation numbers 
     1.0000   0.0000   0.0000   0.0000   0.0000   0.0000

          k =-0.0866-0.0866 0.8660 (   390 PWs)   bands (ev):

     7.7385   8.1360   9.8646  11.6523  13.2342  14.4861

     occupation numbers 
     0.7103   0.0000   0.0000   0.0000   0.0000   0.0000

          k =-0.0866-0.0433 0.8227 (   392 PWs)   bands (ev):

     7.8355   8.9470   9.2728  11.8982  12.5749  14.2098

     occupation numbers 
     0.2257   0.0000   0.0000   0.0000   0.0000   0.0000

          k = 0.7794 0.0000-0.0000 (   394 PWs)   bands (ev):

     7.7880   9.7383   9.7383  10.9749  12.0812  14.0433

     occupation numbers 
     0.4406   0.0000   0.0000   0.0000   0.0000   0.0000

          k =-0.0433-0.0433 0.8660 (   390 PWs)   bands (ev):

     8.8160   9.0598   9.6752  11.1883  11.7609  13.4897

     occupation numbers 
     0.0000   0.0000   0.0000   0.0000   0.0000   0.0000

          k =-0.8660-0.8660 0.8660 (   370 PWs)   bands (ev):

     9.6120   9.6120   9.6120  10.8328  10.8328  13.1134

     occupation numbers 
     0.0000   0.0000   0.0000   0.0000   0.0000   0.0000

     the Fermi energy is     7.7958 ev

!    total energy              =      -6.70053921 Ry
     Harris-Foulkes estimate   =      -6.70053918 Ry
     estimated scf accuracy    <       0.00000079 Ry

     The total energy is the sum of the following terms:

     one-electron contribution =       2.96242540 Ry
     hartree contribution      =       0.00558264 Ry
     xc contribution           =      -4.28670987 Ry
     ewald contribution        =      -5.38183349 Ry
     smearing contrib. (-TS)   =      -0.00000389 Ry

     convergence has been achieved in   3 iterations
 
     init_run     :      5.83s CPU      0.61s WALL (       1 calls)
     electrons    :     74.87s CPU      6.22s WALL (       1 calls)

     Called by init_run:
     wfcinit      :      5.70s CPU      0.51s WALL (       1 calls)
     wfcinit:atom :      0.16s CPU      0.01s WALL (     256 calls)
     wfcinit:wfcr :      5.18s CPU      0.46s WALL (     256 calls)
     potinit      :      0.01s CPU      0.00s WALL (       1 calls)

     Called by electrons:
     c_bands      :     69.39s CPU      5.53s WALL (       4 calls)
     sum_band     :      5.17s CPU      0.67s WALL (       4 calls)
     v_of_rho     :      0.04s CPU      0.01s WALL (       4 calls)
     v_h          :      0.00s CPU      0.00s WALL (       4 calls)
     v_xc         :      0.04s CPU      0.01s WALL (       4 calls)
     newd         :      0.08s CPU      0.01s WALL (       4 calls)
     mix_rho      :      0.00s CPU      0.00s WALL (       4 calls)

     Called by c_bands:
     init_us_2    :      1.59s CPU      0.16s WALL (    2304 calls)
     cegterg      :     63.24s CPU      4.93s WALL (    1024 calls)

     Called by sum_band:
     sum_band:bec :      0.07s CPU      0.01s WALL (    1024 calls)
     addusdens    :      0.02s CPU      0.01s WALL (       4 calls)

     Called by *egterg:
     h_psi        :     57.04s CPU      4.57s WALL (    3559 calls)
     s_psi        :      0.66s CPU      0.05s WALL (    3559 calls)
     g_psi        :      0.32s CPU      0.02s WALL (    2279 calls)
     cdiaghg      :      3.66s CPU      0.28s WALL (    3047 calls)
     cegterg:over :      1.04s CPU      0.08s WALL (    2279 calls)
     cegterg:upda :      0.78s CPU      0.06s WALL (    2279 calls)
     cegterg:last :      0.60s CPU      0.05s WALL (    1163 calls)

     Called by h_psi:
     h_psi:pot    :     56.40s CPU      4.52s WALL (    3559 calls)
     h_psi:calbec :      0.99s CPU      0.07s WALL (    3559 calls)
     vloc_psi     :     53.73s CPU      4.33s WALL (    3559 calls)
     add_vuspsi   :      0.70s CPU      0.06s WALL (    3559 calls)

     General routines
     calbec       :      0.61s CPU      0.05s WALL (    4583 calls)
     fft          :      0.02s CPU      0.02s WALL (      54 calls)
     fftw         :     47.52s CPU      4.09s WALL (   41298 calls)
 
     Parallel routines
 
     PWSCF        :  1m20.85s CPU     0m 6.93s WALL

 
   This run was terminated on:  19: 9:19  30Jan2019            

=------------------------------------------------------------------------------=
   JOB DONE.
=------------------------------------------------------------------------------=
