
     Program PWSCF v.6.2 (svn rev. 14038) starts on 24Jan2019 at 17: 0:26 

     This program is part of the open-source Quantum ESPRESSO suite
     for quantum simulation of materials; please cite
         "P. Giannozzi et al., J. Phys.:Condens. Matter 21 395502 (2009);
         "P. Giannozzi et al., J. Phys.:Condens. Matter 29 465901 (2017);
          URL http://www.quantum-espresso.org", 
     in publications or presentations arising from this work. More details at
     http://www.quantum-espresso.org/quote

     Parallel version (MPI), running on     1 processors

     MPI processes distributed on     1 nodes
     Reading input from ./AlfccSEPNEG0DOT26206235367519437.in
Warning: card &IONS ignored
Warning: card / ignored
Warning: card &CELL ignored
Warning: card / ignored

     Current dimensions of program PWSCF are:
     Max number of different atomic species (ntypx) = 10
     Max number of k-points (npk) =  40000
     Max angular momentum in pseudopotentials (lmaxx) =  3
     Message from routine iosys:
     minimal I/O required, wf_collect reset to FALSE

     Subspace diagonalization in iterative solution of the eigenvalue problem:
     a serial algorithm will be used

     Found symmetry operation: I + ( -0.5000 -0.5000  0.0000)
     This is a supercell, fractional translations are disabled
 
     G-vector sticks info
     --------------------
     sticks:   dense  smooth     PW     G-vecs:    dense   smooth      PW
     Sum         465     465    149                 5545     5545    1071
 


     bravais-lattice index     =            0
     lattice parameter (alat)  =       7.6325  a.u.
     unit-cell volume          =     328.1068 (a.u.)^3
     number of atoms/cell      =            4
     number of atomic types    =            1
     number of electrons       =        12.00
     number of Kohn-Sham states=           10
     kinetic-energy cutoff     =      25.0000  Ry
     charge density cutoff     =     100.0000  Ry
     convergence threshold     =      1.0E-07
     mixing beta               =       0.7000
     number of iterations used =            8  plain     mixing
     Exchange-correlation      = SLA  PW   PBE  PBE ( 1  4  3  4 0 0)

     celldm(1)=   7.632472  celldm(2)=   0.000000  celldm(3)=   0.000000
     celldm(4)=   0.000000  celldm(5)=   0.000000  celldm(6)=   0.000000

     crystal axes: (cart. coord. in units of alat)
               a(1) = (   1.000000   0.000000   0.000000 )  
               a(2) = (   0.000000   1.000000   0.000000 )  
               a(3) = (   0.000000   0.000000   0.737938 )  

     reciprocal axes: (cart. coord. in units 2 pi/alat)
               b(1) = (  1.000000  0.000000  0.000000 )  
               b(2) = (  0.000000  1.000000  0.000000 )  
               b(3) = (  0.000000  0.000000  1.355128 )  


     PseudoPot. # 1 for Al read from file:
     ./al_pbe_v1.uspp.F.UPF
     MD5 check sum: 0a6289f5291fc8f409219462bc851e1f
     Pseudo is Ultrasoft + core correction, Zval =  3.0
     Generated by new atomic code, or converted to UPF format
     Using radial grid of  893 points,  3 beta functions with: 
                l(1) =   0
                l(2) =   1
                l(3) =   2
     Q(r) pseudized with  8 coefficients,  rinner =    0.900   0.900   0.900
                                                       0.900   0.900

     atomic species   valence    mass     pseudopotential
        Al             3.00    26.98150     Al( 1.00)

     16 Sym. Ops., with inversion, found


                                    s                        frac. trans.

      isym =  1     identity                                     

 cryst.   s( 1) = (     1          0          0      )
                  (     0          1          0      )
                  (     0          0          1      )

 cart.    s( 1) = (  1.0000000  0.0000000  0.0000000 )
                  (  0.0000000  1.0000000  0.0000000 )
                  (  0.0000000  0.0000000  1.0000000 )


      isym =  2     180 deg rotation - cart. axis [0,0,1]        

 cryst.   s( 2) = (    -1          0          0      )
                  (     0         -1          0      )
                  (     0          0          1      )

 cart.    s( 2) = ( -1.0000000  0.0000000  0.0000000 )
                  (  0.0000000 -1.0000000  0.0000000 )
                  (  0.0000000  0.0000000  1.0000000 )


      isym =  3     180 deg rotation - cart. axis [0,1,0]        

 cryst.   s( 3) = (    -1          0          0      )
                  (     0          1          0      )
                  (     0          0         -1      )

 cart.    s( 3) = ( -1.0000000  0.0000000  0.0000000 )
                  (  0.0000000  1.0000000  0.0000000 )
                  (  0.0000000  0.0000000 -1.0000000 )


      isym =  4     180 deg rotation - cart. axis [1,0,0]        

 cryst.   s( 4) = (     1          0          0      )
                  (     0         -1          0      )
                  (     0          0         -1      )

 cart.    s( 4) = (  1.0000000  0.0000000  0.0000000 )
                  (  0.0000000 -1.0000000  0.0000000 )
                  (  0.0000000  0.0000000 -1.0000000 )


      isym =  5     180 deg rotation - cart. axis [1,1,0]        

 cryst.   s( 5) = (     0          1          0      )
                  (     1          0          0      )
                  (     0          0         -1      )

 cart.    s( 5) = (  0.0000000  1.0000000  0.0000000 )
                  (  1.0000000  0.0000000  0.0000000 )
                  (  0.0000000  0.0000000 -1.0000000 )


      isym =  6     180 deg rotation - cart. axis [1,-1,0]       

 cryst.   s( 6) = (     0         -1          0      )
                  (    -1          0          0      )
                  (     0          0         -1      )

 cart.    s( 6) = (  0.0000000 -1.0000000  0.0000000 )
                  ( -1.0000000  0.0000000  0.0000000 )
                  (  0.0000000  0.0000000 -1.0000000 )


      isym =  7      90 deg rotation - cart. axis [0,0,-1]       

 cryst.   s( 7) = (     0         -1          0      )
                  (     1          0          0      )
                  (     0          0          1      )

 cart.    s( 7) = (  0.0000000  1.0000000  0.0000000 )
                  ( -1.0000000  0.0000000  0.0000000 )
                  (  0.0000000  0.0000000  1.0000000 )


      isym =  8      90 deg rotation - cart. axis [0,0,1]        

 cryst.   s( 8) = (     0          1          0      )
                  (    -1          0          0      )
                  (     0          0          1      )

 cart.    s( 8) = (  0.0000000 -1.0000000  0.0000000 )
                  (  1.0000000  0.0000000  0.0000000 )
                  (  0.0000000  0.0000000  1.0000000 )


      isym =  9     inversion                                    

 cryst.   s( 9) = (    -1          0          0      )
                  (     0         -1          0      )
                  (     0          0         -1      )

 cart.    s( 9) = ( -1.0000000  0.0000000  0.0000000 )
                  (  0.0000000 -1.0000000  0.0000000 )
                  (  0.0000000  0.0000000 -1.0000000 )


      isym = 10     inv. 180 deg rotation - cart. axis [0,0,1]   

 cryst.   s(10) = (     1          0          0      )
                  (     0          1          0      )
                  (     0          0         -1      )

 cart.    s(10) = (  1.0000000  0.0000000  0.0000000 )
                  (  0.0000000  1.0000000  0.0000000 )
                  (  0.0000000  0.0000000 -1.0000000 )


      isym = 11     inv. 180 deg rotation - cart. axis [0,1,0]   

 cryst.   s(11) = (     1          0          0      )
                  (     0         -1          0      )
                  (     0          0          1      )

 cart.    s(11) = (  1.0000000  0.0000000  0.0000000 )
                  (  0.0000000 -1.0000000  0.0000000 )
                  (  0.0000000  0.0000000  1.0000000 )


      isym = 12     inv. 180 deg rotation - cart. axis [1,0,0]   

 cryst.   s(12) = (    -1          0          0      )
                  (     0          1          0      )
                  (     0          0          1      )

 cart.    s(12) = ( -1.0000000  0.0000000  0.0000000 )
                  (  0.0000000  1.0000000  0.0000000 )
                  (  0.0000000  0.0000000  1.0000000 )


      isym = 13     inv. 180 deg rotation - cart. axis [1,1,0]   

 cryst.   s(13) = (     0         -1          0      )
                  (    -1          0          0      )
                  (     0          0          1      )

 cart.    s(13) = (  0.0000000 -1.0000000  0.0000000 )
                  ( -1.0000000  0.0000000  0.0000000 )
                  (  0.0000000  0.0000000  1.0000000 )


      isym = 14     inv. 180 deg rotation - cart. axis [1,-1,0]  

 cryst.   s(14) = (     0          1          0      )
                  (     1          0          0      )
                  (     0          0          1      )

 cart.    s(14) = (  0.0000000  1.0000000  0.0000000 )
                  (  1.0000000  0.0000000  0.0000000 )
                  (  0.0000000  0.0000000  1.0000000 )


      isym = 15     inv.  90 deg rotation - cart. axis [0,0,-1]  

 cryst.   s(15) = (     0          1          0      )
                  (    -1          0          0      )
                  (     0          0         -1      )

 cart.    s(15) = (  0.0000000 -1.0000000  0.0000000 )
                  (  1.0000000  0.0000000  0.0000000 )
                  (  0.0000000  0.0000000 -1.0000000 )


      isym = 16     inv.  90 deg rotation - cart. axis [0,0,1]   

 cryst.   s(16) = (     0         -1          0      )
                  (     1          0          0      )
                  (     0          0         -1      )

 cart.    s(16) = (  0.0000000  1.0000000  0.0000000 )
                  ( -1.0000000  0.0000000  0.0000000 )
                  (  0.0000000  0.0000000 -1.0000000 )


   Cartesian axes

     site n.     atom                  positions (alat units)
         1           Al  tau(   1) = (   0.0000000   0.0000000   0.0000000  )
         2           Al  tau(   2) = (   0.5000000   0.5000000   0.0000000  )
         3           Al  tau(   3) = (   0.5000000   0.0000000   0.3689688  )
         4           Al  tau(   4) = (   0.0000000   0.5000000   0.3689688  )

   Crystallographic axes

     site n.     atom                  positions (cryst. coord.)
         1           Al  tau(   1) = (  0.0000000  0.0000000  0.0000000  )
         2           Al  tau(   2) = (  0.5000000  0.5000000  0.0000000  )
         3           Al  tau(   3) = (  0.5000000  0.0000000  0.5000000  )
         4           Al  tau(   4) = (  0.0000000  0.5000000  0.5000000  )

     number of k points=   715  Marzari-Vanderbilt smearing, width (Ry)=  0.0100
                       cart. coord. in units 2pi/alat
        k(    1) = (   0.0000000   0.0000000   0.0000000), wk =   0.0002572
        k(    2) = (   0.0000000   0.0000000   0.0564637), wk =   0.0005144
        k(    3) = (   0.0000000   0.0000000   0.1129274), wk =   0.0005144
        k(    4) = (   0.0000000   0.0000000   0.1693910), wk =   0.0005144
        k(    5) = (   0.0000000   0.0000000   0.2258547), wk =   0.0005144
        k(    6) = (   0.0000000   0.0000000   0.2823184), wk =   0.0005144
        k(    7) = (   0.0000000   0.0000000   0.3387821), wk =   0.0005144
        k(    8) = (   0.0000000   0.0000000   0.3952457), wk =   0.0005144
        k(    9) = (   0.0000000   0.0000000   0.4517094), wk =   0.0005144
        k(   10) = (   0.0000000   0.0000000   0.5081731), wk =   0.0005144
        k(   11) = (   0.0000000   0.0000000   0.5646368), wk =   0.0005144
        k(   12) = (   0.0000000   0.0000000   0.6211005), wk =   0.0005144
        k(   13) = (   0.0000000   0.0000000  -0.6775641), wk =   0.0002572
        k(   14) = (   0.0000000   0.0555556   0.0000000), wk =   0.0010288
        k(   15) = (   0.0000000   0.0555556   0.0564637), wk =   0.0020576
        k(   16) = (   0.0000000   0.0555556   0.1129274), wk =   0.0020576
        k(   17) = (   0.0000000   0.0555556   0.1693910), wk =   0.0020576
        k(   18) = (   0.0000000   0.0555556   0.2258547), wk =   0.0020576
        k(   19) = (   0.0000000   0.0555556   0.2823184), wk =   0.0020576
        k(   20) = (   0.0000000   0.0555556   0.3387821), wk =   0.0020576
        k(   21) = (   0.0000000   0.0555556   0.3952457), wk =   0.0020576
        k(   22) = (   0.0000000   0.0555556   0.4517094), wk =   0.0020576
        k(   23) = (   0.0000000   0.0555556   0.5081731), wk =   0.0020576
        k(   24) = (   0.0000000   0.0555556   0.5646368), wk =   0.0020576
        k(   25) = (   0.0000000   0.0555556   0.6211005), wk =   0.0020576
        k(   26) = (   0.0000000   0.0555556  -0.6775641), wk =   0.0010288
        k(   27) = (   0.0000000   0.1111111   0.0000000), wk =   0.0010288
        k(   28) = (   0.0000000   0.1111111   0.0564637), wk =   0.0020576
        k(   29) = (   0.0000000   0.1111111   0.1129274), wk =   0.0020576
        k(   30) = (   0.0000000   0.1111111   0.1693910), wk =   0.0020576
        k(   31) = (   0.0000000   0.1111111   0.2258547), wk =   0.0020576
        k(   32) = (   0.0000000   0.1111111   0.2823184), wk =   0.0020576
        k(   33) = (   0.0000000   0.1111111   0.3387821), wk =   0.0020576
        k(   34) = (   0.0000000   0.1111111   0.3952457), wk =   0.0020576
        k(   35) = (   0.0000000   0.1111111   0.4517094), wk =   0.0020576
        k(   36) = (   0.0000000   0.1111111   0.5081731), wk =   0.0020576
        k(   37) = (   0.0000000   0.1111111   0.5646368), wk =   0.0020576
        k(   38) = (   0.0000000   0.1111111   0.6211005), wk =   0.0020576
        k(   39) = (   0.0000000   0.1111111  -0.6775641), wk =   0.0010288
        k(   40) = (   0.0000000   0.1666667   0.0000000), wk =   0.0010288
        k(   41) = (   0.0000000   0.1666667   0.0564637), wk =   0.0020576
        k(   42) = (   0.0000000   0.1666667   0.1129274), wk =   0.0020576
        k(   43) = (   0.0000000   0.1666667   0.1693910), wk =   0.0020576
        k(   44) = (   0.0000000   0.1666667   0.2258547), wk =   0.0020576
        k(   45) = (   0.0000000   0.1666667   0.2823184), wk =   0.0020576
        k(   46) = (   0.0000000   0.1666667   0.3387821), wk =   0.0020576
        k(   47) = (   0.0000000   0.1666667   0.3952457), wk =   0.0020576
        k(   48) = (   0.0000000   0.1666667   0.4517094), wk =   0.0020576
        k(   49) = (   0.0000000   0.1666667   0.5081731), wk =   0.0020576
        k(   50) = (   0.0000000   0.1666667   0.5646368), wk =   0.0020576
        k(   51) = (   0.0000000   0.1666667   0.6211005), wk =   0.0020576
        k(   52) = (   0.0000000   0.1666667  -0.6775641), wk =   0.0010288
        k(   53) = (   0.0000000   0.2222222   0.0000000), wk =   0.0010288
        k(   54) = (   0.0000000   0.2222222   0.0564637), wk =   0.0020576
        k(   55) = (   0.0000000   0.2222222   0.1129274), wk =   0.0020576
        k(   56) = (   0.0000000   0.2222222   0.1693910), wk =   0.0020576
        k(   57) = (   0.0000000   0.2222222   0.2258547), wk =   0.0020576
        k(   58) = (   0.0000000   0.2222222   0.2823184), wk =   0.0020576
        k(   59) = (   0.0000000   0.2222222   0.3387821), wk =   0.0020576
        k(   60) = (   0.0000000   0.2222222   0.3952457), wk =   0.0020576
        k(   61) = (   0.0000000   0.2222222   0.4517094), wk =   0.0020576
        k(   62) = (   0.0000000   0.2222222   0.5081731), wk =   0.0020576
        k(   63) = (   0.0000000   0.2222222   0.5646368), wk =   0.0020576
        k(   64) = (   0.0000000   0.2222222   0.6211005), wk =   0.0020576
        k(   65) = (   0.0000000   0.2222222  -0.6775641), wk =   0.0010288
        k(   66) = (   0.0000000   0.2777778   0.0000000), wk =   0.0010288
        k(   67) = (   0.0000000   0.2777778   0.0564637), wk =   0.0020576
        k(   68) = (   0.0000000   0.2777778   0.1129274), wk =   0.0020576
        k(   69) = (   0.0000000   0.2777778   0.1693910), wk =   0.0020576
        k(   70) = (   0.0000000   0.2777778   0.2258547), wk =   0.0020576
        k(   71) = (   0.0000000   0.2777778   0.2823184), wk =   0.0020576
        k(   72) = (   0.0000000   0.2777778   0.3387821), wk =   0.0020576
        k(   73) = (   0.0000000   0.2777778   0.3952457), wk =   0.0020576
        k(   74) = (   0.0000000   0.2777778   0.4517094), wk =   0.0020576
        k(   75) = (   0.0000000   0.2777778   0.5081731), wk =   0.0020576
        k(   76) = (   0.0000000   0.2777778   0.5646368), wk =   0.0020576
        k(   77) = (   0.0000000   0.2777778   0.6211005), wk =   0.0020576
        k(   78) = (   0.0000000   0.2777778  -0.6775641), wk =   0.0010288
        k(   79) = (   0.0000000   0.3333333   0.0000000), wk =   0.0010288
        k(   80) = (   0.0000000   0.3333333   0.0564637), wk =   0.0020576
        k(   81) = (   0.0000000   0.3333333   0.1129274), wk =   0.0020576
        k(   82) = (   0.0000000   0.3333333   0.1693910), wk =   0.0020576
        k(   83) = (   0.0000000   0.3333333   0.2258547), wk =   0.0020576
        k(   84) = (   0.0000000   0.3333333   0.2823184), wk =   0.0020576
        k(   85) = (   0.0000000   0.3333333   0.3387821), wk =   0.0020576
        k(   86) = (   0.0000000   0.3333333   0.3952457), wk =   0.0020576
        k(   87) = (   0.0000000   0.3333333   0.4517094), wk =   0.0020576
        k(   88) = (   0.0000000   0.3333333   0.5081731), wk =   0.0020576
        k(   89) = (   0.0000000   0.3333333   0.5646368), wk =   0.0020576
        k(   90) = (   0.0000000   0.3333333   0.6211005), wk =   0.0020576
        k(   91) = (   0.0000000   0.3333333  -0.6775641), wk =   0.0010288
        k(   92) = (   0.0000000   0.3888889   0.0000000), wk =   0.0010288
        k(   93) = (   0.0000000   0.3888889   0.0564637), wk =   0.0020576
        k(   94) = (   0.0000000   0.3888889   0.1129274), wk =   0.0020576
        k(   95) = (   0.0000000   0.3888889   0.1693910), wk =   0.0020576
        k(   96) = (   0.0000000   0.3888889   0.2258547), wk =   0.0020576
        k(   97) = (   0.0000000   0.3888889   0.2823184), wk =   0.0020576
        k(   98) = (   0.0000000   0.3888889   0.3387821), wk =   0.0020576
        k(   99) = (   0.0000000   0.3888889   0.3952457), wk =   0.0020576
        k(  100) = (   0.0000000   0.3888889   0.4517094), wk =   0.0020576
        k(  101) = (   0.0000000   0.3888889   0.5081731), wk =   0.0020576
        k(  102) = (   0.0000000   0.3888889   0.5646368), wk =   0.0020576
        k(  103) = (   0.0000000   0.3888889   0.6211005), wk =   0.0020576
        k(  104) = (   0.0000000   0.3888889  -0.6775641), wk =   0.0010288
        k(  105) = (   0.0000000   0.4444444   0.0000000), wk =   0.0010288
        k(  106) = (   0.0000000   0.4444444   0.0564637), wk =   0.0020576
        k(  107) = (   0.0000000   0.4444444   0.1129274), wk =   0.0020576
        k(  108) = (   0.0000000   0.4444444   0.1693910), wk =   0.0020576
        k(  109) = (   0.0000000   0.4444444   0.2258547), wk =   0.0020576
        k(  110) = (   0.0000000   0.4444444   0.2823184), wk =   0.0020576
        k(  111) = (   0.0000000   0.4444444   0.3387821), wk =   0.0020576
        k(  112) = (   0.0000000   0.4444444   0.3952457), wk =   0.0020576
        k(  113) = (   0.0000000   0.4444444   0.4517094), wk =   0.0020576
        k(  114) = (   0.0000000   0.4444444   0.5081731), wk =   0.0020576
        k(  115) = (   0.0000000   0.4444444   0.5646368), wk =   0.0020576
        k(  116) = (   0.0000000   0.4444444   0.6211005), wk =   0.0020576
        k(  117) = (   0.0000000   0.4444444  -0.6775641), wk =   0.0010288
        k(  118) = (   0.0000000  -0.5000000   0.0000000), wk =   0.0005144
        k(  119) = (   0.0000000  -0.5000000   0.0564637), wk =   0.0010288
        k(  120) = (   0.0000000  -0.5000000   0.1129274), wk =   0.0010288
        k(  121) = (   0.0000000  -0.5000000   0.1693910), wk =   0.0010288
        k(  122) = (   0.0000000  -0.5000000   0.2258547), wk =   0.0010288
        k(  123) = (   0.0000000  -0.5000000   0.2823184), wk =   0.0010288
        k(  124) = (   0.0000000  -0.5000000   0.3387821), wk =   0.0010288
        k(  125) = (   0.0000000  -0.5000000   0.3952457), wk =   0.0010288
        k(  126) = (   0.0000000  -0.5000000   0.4517094), wk =   0.0010288
        k(  127) = (   0.0000000  -0.5000000   0.5081731), wk =   0.0010288
        k(  128) = (   0.0000000  -0.5000000   0.5646368), wk =   0.0010288
        k(  129) = (   0.0000000  -0.5000000   0.6211005), wk =   0.0010288
        k(  130) = (   0.0000000  -0.5000000  -0.6775641), wk =   0.0005144
        k(  131) = (   0.0555556   0.0555556   0.0000000), wk =   0.0010288
        k(  132) = (   0.0555556   0.0555556   0.0564637), wk =   0.0020576
        k(  133) = (   0.0555556   0.0555556   0.1129274), wk =   0.0020576
        k(  134) = (   0.0555556   0.0555556   0.1693910), wk =   0.0020576
        k(  135) = (   0.0555556   0.0555556   0.2258547), wk =   0.0020576
        k(  136) = (   0.0555556   0.0555556   0.2823184), wk =   0.0020576
        k(  137) = (   0.0555556   0.0555556   0.3387821), wk =   0.0020576
        k(  138) = (   0.0555556   0.0555556   0.3952457), wk =   0.0020576
        k(  139) = (   0.0555556   0.0555556   0.4517094), wk =   0.0020576
        k(  140) = (   0.0555556   0.0555556   0.5081731), wk =   0.0020576
        k(  141) = (   0.0555556   0.0555556   0.5646368), wk =   0.0020576
        k(  142) = (   0.0555556   0.0555556   0.6211005), wk =   0.0020576
        k(  143) = (   0.0555556   0.0555556  -0.6775641), wk =   0.0010288
        k(  144) = (   0.0555556   0.1111111   0.0000000), wk =   0.0020576
        k(  145) = (   0.0555556   0.1111111   0.0564637), wk =   0.0041152
        k(  146) = (   0.0555556   0.1111111   0.1129274), wk =   0.0041152
        k(  147) = (   0.0555556   0.1111111   0.1693910), wk =   0.0041152
        k(  148) = (   0.0555556   0.1111111   0.2258547), wk =   0.0041152
        k(  149) = (   0.0555556   0.1111111   0.2823184), wk =   0.0041152
        k(  150) = (   0.0555556   0.1111111   0.3387821), wk =   0.0041152
        k(  151) = (   0.0555556   0.1111111   0.3952457), wk =   0.0041152
        k(  152) = (   0.0555556   0.1111111   0.4517094), wk =   0.0041152
        k(  153) = (   0.0555556   0.1111111   0.5081731), wk =   0.0041152
        k(  154) = (   0.0555556   0.1111111   0.5646368), wk =   0.0041152
        k(  155) = (   0.0555556   0.1111111   0.6211005), wk =   0.0041152
        k(  156) = (   0.0555556   0.1111111  -0.6775641), wk =   0.0020576
        k(  157) = (   0.0555556   0.1666667   0.0000000), wk =   0.0020576
        k(  158) = (   0.0555556   0.1666667   0.0564637), wk =   0.0041152
        k(  159) = (   0.0555556   0.1666667   0.1129274), wk =   0.0041152
        k(  160) = (   0.0555556   0.1666667   0.1693910), wk =   0.0041152
        k(  161) = (   0.0555556   0.1666667   0.2258547), wk =   0.0041152
        k(  162) = (   0.0555556   0.1666667   0.2823184), wk =   0.0041152
        k(  163) = (   0.0555556   0.1666667   0.3387821), wk =   0.0041152
        k(  164) = (   0.0555556   0.1666667   0.3952457), wk =   0.0041152
        k(  165) = (   0.0555556   0.1666667   0.4517094), wk =   0.0041152
        k(  166) = (   0.0555556   0.1666667   0.5081731), wk =   0.0041152
        k(  167) = (   0.0555556   0.1666667   0.5646368), wk =   0.0041152
        k(  168) = (   0.0555556   0.1666667   0.6211005), wk =   0.0041152
        k(  169) = (   0.0555556   0.1666667  -0.6775641), wk =   0.0020576
        k(  170) = (   0.0555556   0.2222222   0.0000000), wk =   0.0020576
        k(  171) = (   0.0555556   0.2222222   0.0564637), wk =   0.0041152
        k(  172) = (   0.0555556   0.2222222   0.1129274), wk =   0.0041152
        k(  173) = (   0.0555556   0.2222222   0.1693910), wk =   0.0041152
        k(  174) = (   0.0555556   0.2222222   0.2258547), wk =   0.0041152
        k(  175) = (   0.0555556   0.2222222   0.2823184), wk =   0.0041152
        k(  176) = (   0.0555556   0.2222222   0.3387821), wk =   0.0041152
        k(  177) = (   0.0555556   0.2222222   0.3952457), wk =   0.0041152
        k(  178) = (   0.0555556   0.2222222   0.4517094), wk =   0.0041152
        k(  179) = (   0.0555556   0.2222222   0.5081731), wk =   0.0041152
        k(  180) = (   0.0555556   0.2222222   0.5646368), wk =   0.0041152
        k(  181) = (   0.0555556   0.2222222   0.6211005), wk =   0.0041152
        k(  182) = (   0.0555556   0.2222222  -0.6775641), wk =   0.0020576
        k(  183) = (   0.0555556   0.2777778   0.0000000), wk =   0.0020576
        k(  184) = (   0.0555556   0.2777778   0.0564637), wk =   0.0041152
        k(  185) = (   0.0555556   0.2777778   0.1129274), wk =   0.0041152
        k(  186) = (   0.0555556   0.2777778   0.1693910), wk =   0.0041152
        k(  187) = (   0.0555556   0.2777778   0.2258547), wk =   0.0041152
        k(  188) = (   0.0555556   0.2777778   0.2823184), wk =   0.0041152
        k(  189) = (   0.0555556   0.2777778   0.3387821), wk =   0.0041152
        k(  190) = (   0.0555556   0.2777778   0.3952457), wk =   0.0041152
        k(  191) = (   0.0555556   0.2777778   0.4517094), wk =   0.0041152
        k(  192) = (   0.0555556   0.2777778   0.5081731), wk =   0.0041152
        k(  193) = (   0.0555556   0.2777778   0.5646368), wk =   0.0041152
        k(  194) = (   0.0555556   0.2777778   0.6211005), wk =   0.0041152
        k(  195) = (   0.0555556   0.2777778  -0.6775641), wk =   0.0020576
        k(  196) = (   0.0555556   0.3333333   0.0000000), wk =   0.0020576
        k(  197) = (   0.0555556   0.3333333   0.0564637), wk =   0.0041152
        k(  198) = (   0.0555556   0.3333333   0.1129274), wk =   0.0041152
        k(  199) = (   0.0555556   0.3333333   0.1693910), wk =   0.0041152
        k(  200) = (   0.0555556   0.3333333   0.2258547), wk =   0.0041152
        k(  201) = (   0.0555556   0.3333333   0.2823184), wk =   0.0041152
        k(  202) = (   0.0555556   0.3333333   0.3387821), wk =   0.0041152
        k(  203) = (   0.0555556   0.3333333   0.3952457), wk =   0.0041152
        k(  204) = (   0.0555556   0.3333333   0.4517094), wk =   0.0041152
        k(  205) = (   0.0555556   0.3333333   0.5081731), wk =   0.0041152
        k(  206) = (   0.0555556   0.3333333   0.5646368), wk =   0.0041152
        k(  207) = (   0.0555556   0.3333333   0.6211005), wk =   0.0041152
        k(  208) = (   0.0555556   0.3333333  -0.6775641), wk =   0.0020576
        k(  209) = (   0.0555556   0.3888889   0.0000000), wk =   0.0020576
        k(  210) = (   0.0555556   0.3888889   0.0564637), wk =   0.0041152
        k(  211) = (   0.0555556   0.3888889   0.1129274), wk =   0.0041152
        k(  212) = (   0.0555556   0.3888889   0.1693910), wk =   0.0041152
        k(  213) = (   0.0555556   0.3888889   0.2258547), wk =   0.0041152
        k(  214) = (   0.0555556   0.3888889   0.2823184), wk =   0.0041152
        k(  215) = (   0.0555556   0.3888889   0.3387821), wk =   0.0041152
        k(  216) = (   0.0555556   0.3888889   0.3952457), wk =   0.0041152
        k(  217) = (   0.0555556   0.3888889   0.4517094), wk =   0.0041152
        k(  218) = (   0.0555556   0.3888889   0.5081731), wk =   0.0041152
        k(  219) = (   0.0555556   0.3888889   0.5646368), wk =   0.0041152
        k(  220) = (   0.0555556   0.3888889   0.6211005), wk =   0.0041152
        k(  221) = (   0.0555556   0.3888889  -0.6775641), wk =   0.0020576
        k(  222) = (   0.0555556   0.4444444   0.0000000), wk =   0.0020576
        k(  223) = (   0.0555556   0.4444444   0.0564637), wk =   0.0041152
        k(  224) = (   0.0555556   0.4444444   0.1129274), wk =   0.0041152
        k(  225) = (   0.0555556   0.4444444   0.1693910), wk =   0.0041152
        k(  226) = (   0.0555556   0.4444444   0.2258547), wk =   0.0041152
        k(  227) = (   0.0555556   0.4444444   0.2823184), wk =   0.0041152
        k(  228) = (   0.0555556   0.4444444   0.3387821), wk =   0.0041152
        k(  229) = (   0.0555556   0.4444444   0.3952457), wk =   0.0041152
        k(  230) = (   0.0555556   0.4444444   0.4517094), wk =   0.0041152
        k(  231) = (   0.0555556   0.4444444   0.5081731), wk =   0.0041152
        k(  232) = (   0.0555556   0.4444444   0.5646368), wk =   0.0041152
        k(  233) = (   0.0555556   0.4444444   0.6211005), wk =   0.0041152
        k(  234) = (   0.0555556   0.4444444  -0.6775641), wk =   0.0020576
        k(  235) = (   0.0555556  -0.5000000   0.0000000), wk =   0.0010288
        k(  236) = (   0.0555556  -0.5000000   0.0564637), wk =   0.0020576
        k(  237) = (   0.0555556  -0.5000000   0.1129274), wk =   0.0020576
        k(  238) = (   0.0555556  -0.5000000   0.1693910), wk =   0.0020576
        k(  239) = (   0.0555556  -0.5000000   0.2258547), wk =   0.0020576
        k(  240) = (   0.0555556  -0.5000000   0.2823184), wk =   0.0020576
        k(  241) = (   0.0555556  -0.5000000   0.3387821), wk =   0.0020576
        k(  242) = (   0.0555556  -0.5000000   0.3952457), wk =   0.0020576
        k(  243) = (   0.0555556  -0.5000000   0.4517094), wk =   0.0020576
        k(  244) = (   0.0555556  -0.5000000   0.5081731), wk =   0.0020576
        k(  245) = (   0.0555556  -0.5000000   0.5646368), wk =   0.0020576
        k(  246) = (   0.0555556  -0.5000000   0.6211005), wk =   0.0020576
        k(  247) = (   0.0555556  -0.5000000  -0.6775641), wk =   0.0010288
        k(  248) = (   0.1111111   0.1111111   0.0000000), wk =   0.0010288
        k(  249) = (   0.1111111   0.1111111   0.0564637), wk =   0.0020576
        k(  250) = (   0.1111111   0.1111111   0.1129274), wk =   0.0020576
        k(  251) = (   0.1111111   0.1111111   0.1693910), wk =   0.0020576
        k(  252) = (   0.1111111   0.1111111   0.2258547), wk =   0.0020576
        k(  253) = (   0.1111111   0.1111111   0.2823184), wk =   0.0020576
        k(  254) = (   0.1111111   0.1111111   0.3387821), wk =   0.0020576
        k(  255) = (   0.1111111   0.1111111   0.3952457), wk =   0.0020576
        k(  256) = (   0.1111111   0.1111111   0.4517094), wk =   0.0020576
        k(  257) = (   0.1111111   0.1111111   0.5081731), wk =   0.0020576
        k(  258) = (   0.1111111   0.1111111   0.5646368), wk =   0.0020576
        k(  259) = (   0.1111111   0.1111111   0.6211005), wk =   0.0020576
        k(  260) = (   0.1111111   0.1111111  -0.6775641), wk =   0.0010288
        k(  261) = (   0.1111111   0.1666667   0.0000000), wk =   0.0020576
        k(  262) = (   0.1111111   0.1666667   0.0564637), wk =   0.0041152
        k(  263) = (   0.1111111   0.1666667   0.1129274), wk =   0.0041152
        k(  264) = (   0.1111111   0.1666667   0.1693910), wk =   0.0041152
        k(  265) = (   0.1111111   0.1666667   0.2258547), wk =   0.0041152
        k(  266) = (   0.1111111   0.1666667   0.2823184), wk =   0.0041152
        k(  267) = (   0.1111111   0.1666667   0.3387821), wk =   0.0041152
        k(  268) = (   0.1111111   0.1666667   0.3952457), wk =   0.0041152
        k(  269) = (   0.1111111   0.1666667   0.4517094), wk =   0.0041152
        k(  270) = (   0.1111111   0.1666667   0.5081731), wk =   0.0041152
        k(  271) = (   0.1111111   0.1666667   0.5646368), wk =   0.0041152
        k(  272) = (   0.1111111   0.1666667   0.6211005), wk =   0.0041152
        k(  273) = (   0.1111111   0.1666667  -0.6775641), wk =   0.0020576
        k(  274) = (   0.1111111   0.2222222   0.0000000), wk =   0.0020576
        k(  275) = (   0.1111111   0.2222222   0.0564637), wk =   0.0041152
        k(  276) = (   0.1111111   0.2222222   0.1129274), wk =   0.0041152
        k(  277) = (   0.1111111   0.2222222   0.1693910), wk =   0.0041152
        k(  278) = (   0.1111111   0.2222222   0.2258547), wk =   0.0041152
        k(  279) = (   0.1111111   0.2222222   0.2823184), wk =   0.0041152
        k(  280) = (   0.1111111   0.2222222   0.3387821), wk =   0.0041152
        k(  281) = (   0.1111111   0.2222222   0.3952457), wk =   0.0041152
        k(  282) = (   0.1111111   0.2222222   0.4517094), wk =   0.0041152
        k(  283) = (   0.1111111   0.2222222   0.5081731), wk =   0.0041152
        k(  284) = (   0.1111111   0.2222222   0.5646368), wk =   0.0041152
        k(  285) = (   0.1111111   0.2222222   0.6211005), wk =   0.0041152
        k(  286) = (   0.1111111   0.2222222  -0.6775641), wk =   0.0020576
        k(  287) = (   0.1111111   0.2777778   0.0000000), wk =   0.0020576
        k(  288) = (   0.1111111   0.2777778   0.0564637), wk =   0.0041152
        k(  289) = (   0.1111111   0.2777778   0.1129274), wk =   0.0041152
        k(  290) = (   0.1111111   0.2777778   0.1693910), wk =   0.0041152
        k(  291) = (   0.1111111   0.2777778   0.2258547), wk =   0.0041152
        k(  292) = (   0.1111111   0.2777778   0.2823184), wk =   0.0041152
        k(  293) = (   0.1111111   0.2777778   0.3387821), wk =   0.0041152
        k(  294) = (   0.1111111   0.2777778   0.3952457), wk =   0.0041152
        k(  295) = (   0.1111111   0.2777778   0.4517094), wk =   0.0041152
        k(  296) = (   0.1111111   0.2777778   0.5081731), wk =   0.0041152
        k(  297) = (   0.1111111   0.2777778   0.5646368), wk =   0.0041152
        k(  298) = (   0.1111111   0.2777778   0.6211005), wk =   0.0041152
        k(  299) = (   0.1111111   0.2777778  -0.6775641), wk =   0.0020576
        k(  300) = (   0.1111111   0.3333333   0.0000000), wk =   0.0020576
        k(  301) = (   0.1111111   0.3333333   0.0564637), wk =   0.0041152
        k(  302) = (   0.1111111   0.3333333   0.1129274), wk =   0.0041152
        k(  303) = (   0.1111111   0.3333333   0.1693910), wk =   0.0041152
        k(  304) = (   0.1111111   0.3333333   0.2258547), wk =   0.0041152
        k(  305) = (   0.1111111   0.3333333   0.2823184), wk =   0.0041152
        k(  306) = (   0.1111111   0.3333333   0.3387821), wk =   0.0041152
        k(  307) = (   0.1111111   0.3333333   0.3952457), wk =   0.0041152
        k(  308) = (   0.1111111   0.3333333   0.4517094), wk =   0.0041152
        k(  309) = (   0.1111111   0.3333333   0.5081731), wk =   0.0041152
        k(  310) = (   0.1111111   0.3333333   0.5646368), wk =   0.0041152
        k(  311) = (   0.1111111   0.3333333   0.6211005), wk =   0.0041152
        k(  312) = (   0.1111111   0.3333333  -0.6775641), wk =   0.0020576
        k(  313) = (   0.1111111   0.3888889   0.0000000), wk =   0.0020576
        k(  314) = (   0.1111111   0.3888889   0.0564637), wk =   0.0041152
        k(  315) = (   0.1111111   0.3888889   0.1129274), wk =   0.0041152
        k(  316) = (   0.1111111   0.3888889   0.1693910), wk =   0.0041152
        k(  317) = (   0.1111111   0.3888889   0.2258547), wk =   0.0041152
        k(  318) = (   0.1111111   0.3888889   0.2823184), wk =   0.0041152
        k(  319) = (   0.1111111   0.3888889   0.3387821), wk =   0.0041152
        k(  320) = (   0.1111111   0.3888889   0.3952457), wk =   0.0041152
        k(  321) = (   0.1111111   0.3888889   0.4517094), wk =   0.0041152
        k(  322) = (   0.1111111   0.3888889   0.5081731), wk =   0.0041152
        k(  323) = (   0.1111111   0.3888889   0.5646368), wk =   0.0041152
        k(  324) = (   0.1111111   0.3888889   0.6211005), wk =   0.0041152
        k(  325) = (   0.1111111   0.3888889  -0.6775641), wk =   0.0020576
        k(  326) = (   0.1111111   0.4444444   0.0000000), wk =   0.0020576
        k(  327) = (   0.1111111   0.4444444   0.0564637), wk =   0.0041152
        k(  328) = (   0.1111111   0.4444444   0.1129274), wk =   0.0041152
        k(  329) = (   0.1111111   0.4444444   0.1693910), wk =   0.0041152
        k(  330) = (   0.1111111   0.4444444   0.2258547), wk =   0.0041152
        k(  331) = (   0.1111111   0.4444444   0.2823184), wk =   0.0041152
        k(  332) = (   0.1111111   0.4444444   0.3387821), wk =   0.0041152
        k(  333) = (   0.1111111   0.4444444   0.3952457), wk =   0.0041152
        k(  334) = (   0.1111111   0.4444444   0.4517094), wk =   0.0041152
        k(  335) = (   0.1111111   0.4444444   0.5081731), wk =   0.0041152
        k(  336) = (   0.1111111   0.4444444   0.5646368), wk =   0.0041152
        k(  337) = (   0.1111111   0.4444444   0.6211005), wk =   0.0041152
        k(  338) = (   0.1111111   0.4444444  -0.6775641), wk =   0.0020576
        k(  339) = (   0.1111111  -0.5000000   0.0000000), wk =   0.0010288
        k(  340) = (   0.1111111  -0.5000000   0.0564637), wk =   0.0020576
        k(  341) = (   0.1111111  -0.5000000   0.1129274), wk =   0.0020576
        k(  342) = (   0.1111111  -0.5000000   0.1693910), wk =   0.0020576
        k(  343) = (   0.1111111  -0.5000000   0.2258547), wk =   0.0020576
        k(  344) = (   0.1111111  -0.5000000   0.2823184), wk =   0.0020576
        k(  345) = (   0.1111111  -0.5000000   0.3387821), wk =   0.0020576
        k(  346) = (   0.1111111  -0.5000000   0.3952457), wk =   0.0020576
        k(  347) = (   0.1111111  -0.5000000   0.4517094), wk =   0.0020576
        k(  348) = (   0.1111111  -0.5000000   0.5081731), wk =   0.0020576
        k(  349) = (   0.1111111  -0.5000000   0.5646368), wk =   0.0020576
        k(  350) = (   0.1111111  -0.5000000   0.6211005), wk =   0.0020576
        k(  351) = (   0.1111111  -0.5000000  -0.6775641), wk =   0.0010288
        k(  352) = (   0.1666667   0.1666667   0.0000000), wk =   0.0010288
        k(  353) = (   0.1666667   0.1666667   0.0564637), wk =   0.0020576
        k(  354) = (   0.1666667   0.1666667   0.1129274), wk =   0.0020576
        k(  355) = (   0.1666667   0.1666667   0.1693910), wk =   0.0020576
        k(  356) = (   0.1666667   0.1666667   0.2258547), wk =   0.0020576
        k(  357) = (   0.1666667   0.1666667   0.2823184), wk =   0.0020576
        k(  358) = (   0.1666667   0.1666667   0.3387821), wk =   0.0020576
        k(  359) = (   0.1666667   0.1666667   0.3952457), wk =   0.0020576
        k(  360) = (   0.1666667   0.1666667   0.4517094), wk =   0.0020576
        k(  361) = (   0.1666667   0.1666667   0.5081731), wk =   0.0020576
        k(  362) = (   0.1666667   0.1666667   0.5646368), wk =   0.0020576
        k(  363) = (   0.1666667   0.1666667   0.6211005), wk =   0.0020576
        k(  364) = (   0.1666667   0.1666667  -0.6775641), wk =   0.0010288
        k(  365) = (   0.1666667   0.2222222   0.0000000), wk =   0.0020576
        k(  366) = (   0.1666667   0.2222222   0.0564637), wk =   0.0041152
        k(  367) = (   0.1666667   0.2222222   0.1129274), wk =   0.0041152
        k(  368) = (   0.1666667   0.2222222   0.1693910), wk =   0.0041152
        k(  369) = (   0.1666667   0.2222222   0.2258547), wk =   0.0041152
        k(  370) = (   0.1666667   0.2222222   0.2823184), wk =   0.0041152
        k(  371) = (   0.1666667   0.2222222   0.3387821), wk =   0.0041152
        k(  372) = (   0.1666667   0.2222222   0.3952457), wk =   0.0041152
        k(  373) = (   0.1666667   0.2222222   0.4517094), wk =   0.0041152
        k(  374) = (   0.1666667   0.2222222   0.5081731), wk =   0.0041152
        k(  375) = (   0.1666667   0.2222222   0.5646368), wk =   0.0041152
        k(  376) = (   0.1666667   0.2222222   0.6211005), wk =   0.0041152
        k(  377) = (   0.1666667   0.2222222  -0.6775641), wk =   0.0020576
        k(  378) = (   0.1666667   0.2777778   0.0000000), wk =   0.0020576
        k(  379) = (   0.1666667   0.2777778   0.0564637), wk =   0.0041152
        k(  380) = (   0.1666667   0.2777778   0.1129274), wk =   0.0041152
        k(  381) = (   0.1666667   0.2777778   0.1693910), wk =   0.0041152
        k(  382) = (   0.1666667   0.2777778   0.2258547), wk =   0.0041152
        k(  383) = (   0.1666667   0.2777778   0.2823184), wk =   0.0041152
        k(  384) = (   0.1666667   0.2777778   0.3387821), wk =   0.0041152
        k(  385) = (   0.1666667   0.2777778   0.3952457), wk =   0.0041152
        k(  386) = (   0.1666667   0.2777778   0.4517094), wk =   0.0041152
        k(  387) = (   0.1666667   0.2777778   0.5081731), wk =   0.0041152
        k(  388) = (   0.1666667   0.2777778   0.5646368), wk =   0.0041152
        k(  389) = (   0.1666667   0.2777778   0.6211005), wk =   0.0041152
        k(  390) = (   0.1666667   0.2777778  -0.6775641), wk =   0.0020576
        k(  391) = (   0.1666667   0.3333333   0.0000000), wk =   0.0020576
        k(  392) = (   0.1666667   0.3333333   0.0564637), wk =   0.0041152
        k(  393) = (   0.1666667   0.3333333   0.1129274), wk =   0.0041152
        k(  394) = (   0.1666667   0.3333333   0.1693910), wk =   0.0041152
        k(  395) = (   0.1666667   0.3333333   0.2258547), wk =   0.0041152
        k(  396) = (   0.1666667   0.3333333   0.2823184), wk =   0.0041152
        k(  397) = (   0.1666667   0.3333333   0.3387821), wk =   0.0041152
        k(  398) = (   0.1666667   0.3333333   0.3952457), wk =   0.0041152
        k(  399) = (   0.1666667   0.3333333   0.4517094), wk =   0.0041152
        k(  400) = (   0.1666667   0.3333333   0.5081731), wk =   0.0041152
        k(  401) = (   0.1666667   0.3333333   0.5646368), wk =   0.0041152
        k(  402) = (   0.1666667   0.3333333   0.6211005), wk =   0.0041152
        k(  403) = (   0.1666667   0.3333333  -0.6775641), wk =   0.0020576
        k(  404) = (   0.1666667   0.3888889   0.0000000), wk =   0.0020576
        k(  405) = (   0.1666667   0.3888889   0.0564637), wk =   0.0041152
        k(  406) = (   0.1666667   0.3888889   0.1129274), wk =   0.0041152
        k(  407) = (   0.1666667   0.3888889   0.1693910), wk =   0.0041152
        k(  408) = (   0.1666667   0.3888889   0.2258547), wk =   0.0041152
        k(  409) = (   0.1666667   0.3888889   0.2823184), wk =   0.0041152
        k(  410) = (   0.1666667   0.3888889   0.3387821), wk =   0.0041152
        k(  411) = (   0.1666667   0.3888889   0.3952457), wk =   0.0041152
        k(  412) = (   0.1666667   0.3888889   0.4517094), wk =   0.0041152
        k(  413) = (   0.1666667   0.3888889   0.5081731), wk =   0.0041152
        k(  414) = (   0.1666667   0.3888889   0.5646368), wk =   0.0041152
        k(  415) = (   0.1666667   0.3888889   0.6211005), wk =   0.0041152
        k(  416) = (   0.1666667   0.3888889  -0.6775641), wk =   0.0020576
        k(  417) = (   0.1666667   0.4444444   0.0000000), wk =   0.0020576
        k(  418) = (   0.1666667   0.4444444   0.0564637), wk =   0.0041152
        k(  419) = (   0.1666667   0.4444444   0.1129274), wk =   0.0041152
        k(  420) = (   0.1666667   0.4444444   0.1693910), wk =   0.0041152
        k(  421) = (   0.1666667   0.4444444   0.2258547), wk =   0.0041152
        k(  422) = (   0.1666667   0.4444444   0.2823184), wk =   0.0041152
        k(  423) = (   0.1666667   0.4444444   0.3387821), wk =   0.0041152
        k(  424) = (   0.1666667   0.4444444   0.3952457), wk =   0.0041152
        k(  425) = (   0.1666667   0.4444444   0.4517094), wk =   0.0041152
        k(  426) = (   0.1666667   0.4444444   0.5081731), wk =   0.0041152
        k(  427) = (   0.1666667   0.4444444   0.5646368), wk =   0.0041152
        k(  428) = (   0.1666667   0.4444444   0.6211005), wk =   0.0041152
        k(  429) = (   0.1666667   0.4444444  -0.6775641), wk =   0.0020576
        k(  430) = (   0.1666667  -0.5000000   0.0000000), wk =   0.0010288
        k(  431) = (   0.1666667  -0.5000000   0.0564637), wk =   0.0020576
        k(  432) = (   0.1666667  -0.5000000   0.1129274), wk =   0.0020576
        k(  433) = (   0.1666667  -0.5000000   0.1693910), wk =   0.0020576
        k(  434) = (   0.1666667  -0.5000000   0.2258547), wk =   0.0020576
        k(  435) = (   0.1666667  -0.5000000   0.2823184), wk =   0.0020576
        k(  436) = (   0.1666667  -0.5000000   0.3387821), wk =   0.0020576
        k(  437) = (   0.1666667  -0.5000000   0.3952457), wk =   0.0020576
        k(  438) = (   0.1666667  -0.5000000   0.4517094), wk =   0.0020576
        k(  439) = (   0.1666667  -0.5000000   0.5081731), wk =   0.0020576
        k(  440) = (   0.1666667  -0.5000000   0.5646368), wk =   0.0020576
        k(  441) = (   0.1666667  -0.5000000   0.6211005), wk =   0.0020576
        k(  442) = (   0.1666667  -0.5000000  -0.6775641), wk =   0.0010288
        k(  443) = (   0.2222222   0.2222222   0.0000000), wk =   0.0010288
        k(  444) = (   0.2222222   0.2222222   0.0564637), wk =   0.0020576
        k(  445) = (   0.2222222   0.2222222   0.1129274), wk =   0.0020576
        k(  446) = (   0.2222222   0.2222222   0.1693910), wk =   0.0020576
        k(  447) = (   0.2222222   0.2222222   0.2258547), wk =   0.0020576
        k(  448) = (   0.2222222   0.2222222   0.2823184), wk =   0.0020576
        k(  449) = (   0.2222222   0.2222222   0.3387821), wk =   0.0020576
        k(  450) = (   0.2222222   0.2222222   0.3952457), wk =   0.0020576
        k(  451) = (   0.2222222   0.2222222   0.4517094), wk =   0.0020576
        k(  452) = (   0.2222222   0.2222222   0.5081731), wk =   0.0020576
        k(  453) = (   0.2222222   0.2222222   0.5646368), wk =   0.0020576
        k(  454) = (   0.2222222   0.2222222   0.6211005), wk =   0.0020576
        k(  455) = (   0.2222222   0.2222222  -0.6775641), wk =   0.0010288
        k(  456) = (   0.2222222   0.2777778   0.0000000), wk =   0.0020576
        k(  457) = (   0.2222222   0.2777778   0.0564637), wk =   0.0041152
        k(  458) = (   0.2222222   0.2777778   0.1129274), wk =   0.0041152
        k(  459) = (   0.2222222   0.2777778   0.1693910), wk =   0.0041152
        k(  460) = (   0.2222222   0.2777778   0.2258547), wk =   0.0041152
        k(  461) = (   0.2222222   0.2777778   0.2823184), wk =   0.0041152
        k(  462) = (   0.2222222   0.2777778   0.3387821), wk =   0.0041152
        k(  463) = (   0.2222222   0.2777778   0.3952457), wk =   0.0041152
        k(  464) = (   0.2222222   0.2777778   0.4517094), wk =   0.0041152
        k(  465) = (   0.2222222   0.2777778   0.5081731), wk =   0.0041152
        k(  466) = (   0.2222222   0.2777778   0.5646368), wk =   0.0041152
        k(  467) = (   0.2222222   0.2777778   0.6211005), wk =   0.0041152
        k(  468) = (   0.2222222   0.2777778  -0.6775641), wk =   0.0020576
        k(  469) = (   0.2222222   0.3333333   0.0000000), wk =   0.0020576
        k(  470) = (   0.2222222   0.3333333   0.0564637), wk =   0.0041152
        k(  471) = (   0.2222222   0.3333333   0.1129274), wk =   0.0041152
        k(  472) = (   0.2222222   0.3333333   0.1693910), wk =   0.0041152
        k(  473) = (   0.2222222   0.3333333   0.2258547), wk =   0.0041152
        k(  474) = (   0.2222222   0.3333333   0.2823184), wk =   0.0041152
        k(  475) = (   0.2222222   0.3333333   0.3387821), wk =   0.0041152
        k(  476) = (   0.2222222   0.3333333   0.3952457), wk =   0.0041152
        k(  477) = (   0.2222222   0.3333333   0.4517094), wk =   0.0041152
        k(  478) = (   0.2222222   0.3333333   0.5081731), wk =   0.0041152
        k(  479) = (   0.2222222   0.3333333   0.5646368), wk =   0.0041152
        k(  480) = (   0.2222222   0.3333333   0.6211005), wk =   0.0041152
        k(  481) = (   0.2222222   0.3333333  -0.6775641), wk =   0.0020576
        k(  482) = (   0.2222222   0.3888889   0.0000000), wk =   0.0020576
        k(  483) = (   0.2222222   0.3888889   0.0564637), wk =   0.0041152
        k(  484) = (   0.2222222   0.3888889   0.1129274), wk =   0.0041152
        k(  485) = (   0.2222222   0.3888889   0.1693910), wk =   0.0041152
        k(  486) = (   0.2222222   0.3888889   0.2258547), wk =   0.0041152
        k(  487) = (   0.2222222   0.3888889   0.2823184), wk =   0.0041152
        k(  488) = (   0.2222222   0.3888889   0.3387821), wk =   0.0041152
        k(  489) = (   0.2222222   0.3888889   0.3952457), wk =   0.0041152
        k(  490) = (   0.2222222   0.3888889   0.4517094), wk =   0.0041152
        k(  491) = (   0.2222222   0.3888889   0.5081731), wk =   0.0041152
        k(  492) = (   0.2222222   0.3888889   0.5646368), wk =   0.0041152
        k(  493) = (   0.2222222   0.3888889   0.6211005), wk =   0.0041152
        k(  494) = (   0.2222222   0.3888889  -0.6775641), wk =   0.0020576
        k(  495) = (   0.2222222   0.4444444   0.0000000), wk =   0.0020576
        k(  496) = (   0.2222222   0.4444444   0.0564637), wk =   0.0041152
        k(  497) = (   0.2222222   0.4444444   0.1129274), wk =   0.0041152
        k(  498) = (   0.2222222   0.4444444   0.1693910), wk =   0.0041152
        k(  499) = (   0.2222222   0.4444444   0.2258547), wk =   0.0041152
        k(  500) = (   0.2222222   0.4444444   0.2823184), wk =   0.0041152
        k(  501) = (   0.2222222   0.4444444   0.3387821), wk =   0.0041152
        k(  502) = (   0.2222222   0.4444444   0.3952457), wk =   0.0041152
        k(  503) = (   0.2222222   0.4444444   0.4517094), wk =   0.0041152
        k(  504) = (   0.2222222   0.4444444   0.5081731), wk =   0.0041152
        k(  505) = (   0.2222222   0.4444444   0.5646368), wk =   0.0041152
        k(  506) = (   0.2222222   0.4444444   0.6211005), wk =   0.0041152
        k(  507) = (   0.2222222   0.4444444  -0.6775641), wk =   0.0020576
        k(  508) = (   0.2222222  -0.5000000   0.0000000), wk =   0.0010288
        k(  509) = (   0.2222222  -0.5000000   0.0564637), wk =   0.0020576
        k(  510) = (   0.2222222  -0.5000000   0.1129274), wk =   0.0020576
        k(  511) = (   0.2222222  -0.5000000   0.1693910), wk =   0.0020576
        k(  512) = (   0.2222222  -0.5000000   0.2258547), wk =   0.0020576
        k(  513) = (   0.2222222  -0.5000000   0.2823184), wk =   0.0020576
        k(  514) = (   0.2222222  -0.5000000   0.3387821), wk =   0.0020576
        k(  515) = (   0.2222222  -0.5000000   0.3952457), wk =   0.0020576
        k(  516) = (   0.2222222  -0.5000000   0.4517094), wk =   0.0020576
        k(  517) = (   0.2222222  -0.5000000   0.5081731), wk =   0.0020576
        k(  518) = (   0.2222222  -0.5000000   0.5646368), wk =   0.0020576
        k(  519) = (   0.2222222  -0.5000000   0.6211005), wk =   0.0020576
        k(  520) = (   0.2222222  -0.5000000  -0.6775641), wk =   0.0010288
        k(  521) = (   0.2777778   0.2777778   0.0000000), wk =   0.0010288
        k(  522) = (   0.2777778   0.2777778   0.0564637), wk =   0.0020576
        k(  523) = (   0.2777778   0.2777778   0.1129274), wk =   0.0020576
        k(  524) = (   0.2777778   0.2777778   0.1693910), wk =   0.0020576
        k(  525) = (   0.2777778   0.2777778   0.2258547), wk =   0.0020576
        k(  526) = (   0.2777778   0.2777778   0.2823184), wk =   0.0020576
        k(  527) = (   0.2777778   0.2777778   0.3387821), wk =   0.0020576
        k(  528) = (   0.2777778   0.2777778   0.3952457), wk =   0.0020576
        k(  529) = (   0.2777778   0.2777778   0.4517094), wk =   0.0020576
        k(  530) = (   0.2777778   0.2777778   0.5081731), wk =   0.0020576
        k(  531) = (   0.2777778   0.2777778   0.5646368), wk =   0.0020576
        k(  532) = (   0.2777778   0.2777778   0.6211005), wk =   0.0020576
        k(  533) = (   0.2777778   0.2777778  -0.6775641), wk =   0.0010288
        k(  534) = (   0.2777778   0.3333333   0.0000000), wk =   0.0020576
        k(  535) = (   0.2777778   0.3333333   0.0564637), wk =   0.0041152
        k(  536) = (   0.2777778   0.3333333   0.1129274), wk =   0.0041152
        k(  537) = (   0.2777778   0.3333333   0.1693910), wk =   0.0041152
        k(  538) = (   0.2777778   0.3333333   0.2258547), wk =   0.0041152
        k(  539) = (   0.2777778   0.3333333   0.2823184), wk =   0.0041152
        k(  540) = (   0.2777778   0.3333333   0.3387821), wk =   0.0041152
        k(  541) = (   0.2777778   0.3333333   0.3952457), wk =   0.0041152
        k(  542) = (   0.2777778   0.3333333   0.4517094), wk =   0.0041152
        k(  543) = (   0.2777778   0.3333333   0.5081731), wk =   0.0041152
        k(  544) = (   0.2777778   0.3333333   0.5646368), wk =   0.0041152
        k(  545) = (   0.2777778   0.3333333   0.6211005), wk =   0.0041152
        k(  546) = (   0.2777778   0.3333333  -0.6775641), wk =   0.0020576
        k(  547) = (   0.2777778   0.3888889   0.0000000), wk =   0.0020576
        k(  548) = (   0.2777778   0.3888889   0.0564637), wk =   0.0041152
        k(  549) = (   0.2777778   0.3888889   0.1129274), wk =   0.0041152
        k(  550) = (   0.2777778   0.3888889   0.1693910), wk =   0.0041152
        k(  551) = (   0.2777778   0.3888889   0.2258547), wk =   0.0041152
        k(  552) = (   0.2777778   0.3888889   0.2823184), wk =   0.0041152
        k(  553) = (   0.2777778   0.3888889   0.3387821), wk =   0.0041152
        k(  554) = (   0.2777778   0.3888889   0.3952457), wk =   0.0041152
        k(  555) = (   0.2777778   0.3888889   0.4517094), wk =   0.0041152
        k(  556) = (   0.2777778   0.3888889   0.5081731), wk =   0.0041152
        k(  557) = (   0.2777778   0.3888889   0.5646368), wk =   0.0041152
        k(  558) = (   0.2777778   0.3888889   0.6211005), wk =   0.0041152
        k(  559) = (   0.2777778   0.3888889  -0.6775641), wk =   0.0020576
        k(  560) = (   0.2777778   0.4444444   0.0000000), wk =   0.0020576
        k(  561) = (   0.2777778   0.4444444   0.0564637), wk =   0.0041152
        k(  562) = (   0.2777778   0.4444444   0.1129274), wk =   0.0041152
        k(  563) = (   0.2777778   0.4444444   0.1693910), wk =   0.0041152
        k(  564) = (   0.2777778   0.4444444   0.2258547), wk =   0.0041152
        k(  565) = (   0.2777778   0.4444444   0.2823184), wk =   0.0041152
        k(  566) = (   0.2777778   0.4444444   0.3387821), wk =   0.0041152
        k(  567) = (   0.2777778   0.4444444   0.3952457), wk =   0.0041152
        k(  568) = (   0.2777778   0.4444444   0.4517094), wk =   0.0041152
        k(  569) = (   0.2777778   0.4444444   0.5081731), wk =   0.0041152
        k(  570) = (   0.2777778   0.4444444   0.5646368), wk =   0.0041152
        k(  571) = (   0.2777778   0.4444444   0.6211005), wk =   0.0041152
        k(  572) = (   0.2777778   0.4444444  -0.6775641), wk =   0.0020576
        k(  573) = (   0.2777778  -0.5000000   0.0000000), wk =   0.0010288
        k(  574) = (   0.2777778  -0.5000000   0.0564637), wk =   0.0020576
        k(  575) = (   0.2777778  -0.5000000   0.1129274), wk =   0.0020576
        k(  576) = (   0.2777778  -0.5000000   0.1693910), wk =   0.0020576
        k(  577) = (   0.2777778  -0.5000000   0.2258547), wk =   0.0020576
        k(  578) = (   0.2777778  -0.5000000   0.2823184), wk =   0.0020576
        k(  579) = (   0.2777778  -0.5000000   0.3387821), wk =   0.0020576
        k(  580) = (   0.2777778  -0.5000000   0.3952457), wk =   0.0020576
        k(  581) = (   0.2777778  -0.5000000   0.4517094), wk =   0.0020576
        k(  582) = (   0.2777778  -0.5000000   0.5081731), wk =   0.0020576
        k(  583) = (   0.2777778  -0.5000000   0.5646368), wk =   0.0020576
        k(  584) = (   0.2777778  -0.5000000   0.6211005), wk =   0.0020576
        k(  585) = (   0.2777778  -0.5000000  -0.6775641), wk =   0.0010288
        k(  586) = (   0.3333333   0.3333333   0.0000000), wk =   0.0010288
        k(  587) = (   0.3333333   0.3333333   0.0564637), wk =   0.0020576
        k(  588) = (   0.3333333   0.3333333   0.1129274), wk =   0.0020576
        k(  589) = (   0.3333333   0.3333333   0.1693910), wk =   0.0020576
        k(  590) = (   0.3333333   0.3333333   0.2258547), wk =   0.0020576
        k(  591) = (   0.3333333   0.3333333   0.2823184), wk =   0.0020576
        k(  592) = (   0.3333333   0.3333333   0.3387821), wk =   0.0020576
        k(  593) = (   0.3333333   0.3333333   0.3952457), wk =   0.0020576
        k(  594) = (   0.3333333   0.3333333   0.4517094), wk =   0.0020576
        k(  595) = (   0.3333333   0.3333333   0.5081731), wk =   0.0020576
        k(  596) = (   0.3333333   0.3333333   0.5646368), wk =   0.0020576
        k(  597) = (   0.3333333   0.3333333   0.6211005), wk =   0.0020576
        k(  598) = (   0.3333333   0.3333333  -0.6775641), wk =   0.0010288
        k(  599) = (   0.3333333   0.3888889   0.0000000), wk =   0.0020576
        k(  600) = (   0.3333333   0.3888889   0.0564637), wk =   0.0041152
        k(  601) = (   0.3333333   0.3888889   0.1129274), wk =   0.0041152
        k(  602) = (   0.3333333   0.3888889   0.1693910), wk =   0.0041152
        k(  603) = (   0.3333333   0.3888889   0.2258547), wk =   0.0041152
        k(  604) = (   0.3333333   0.3888889   0.2823184), wk =   0.0041152
        k(  605) = (   0.3333333   0.3888889   0.3387821), wk =   0.0041152
        k(  606) = (   0.3333333   0.3888889   0.3952457), wk =   0.0041152
        k(  607) = (   0.3333333   0.3888889   0.4517094), wk =   0.0041152
        k(  608) = (   0.3333333   0.3888889   0.5081731), wk =   0.0041152
        k(  609) = (   0.3333333   0.3888889   0.5646368), wk =   0.0041152
        k(  610) = (   0.3333333   0.3888889   0.6211005), wk =   0.0041152
        k(  611) = (   0.3333333   0.3888889  -0.6775641), wk =   0.0020576
        k(  612) = (   0.3333333   0.4444444   0.0000000), wk =   0.0020576
        k(  613) = (   0.3333333   0.4444444   0.0564637), wk =   0.0041152
        k(  614) = (   0.3333333   0.4444444   0.1129274), wk =   0.0041152
        k(  615) = (   0.3333333   0.4444444   0.1693910), wk =   0.0041152
        k(  616) = (   0.3333333   0.4444444   0.2258547), wk =   0.0041152
        k(  617) = (   0.3333333   0.4444444   0.2823184), wk =   0.0041152
        k(  618) = (   0.3333333   0.4444444   0.3387821), wk =   0.0041152
        k(  619) = (   0.3333333   0.4444444   0.3952457), wk =   0.0041152
        k(  620) = (   0.3333333   0.4444444   0.4517094), wk =   0.0041152
        k(  621) = (   0.3333333   0.4444444   0.5081731), wk =   0.0041152
        k(  622) = (   0.3333333   0.4444444   0.5646368), wk =   0.0041152
        k(  623) = (   0.3333333   0.4444444   0.6211005), wk =   0.0041152
        k(  624) = (   0.3333333   0.4444444  -0.6775641), wk =   0.0020576
        k(  625) = (   0.3333333  -0.5000000   0.0000000), wk =   0.0010288
        k(  626) = (   0.3333333  -0.5000000   0.0564637), wk =   0.0020576
        k(  627) = (   0.3333333  -0.5000000   0.1129274), wk =   0.0020576
        k(  628) = (   0.3333333  -0.5000000   0.1693910), wk =   0.0020576
        k(  629) = (   0.3333333  -0.5000000   0.2258547), wk =   0.0020576
        k(  630) = (   0.3333333  -0.5000000   0.2823184), wk =   0.0020576
        k(  631) = (   0.3333333  -0.5000000   0.3387821), wk =   0.0020576
        k(  632) = (   0.3333333  -0.5000000   0.3952457), wk =   0.0020576
        k(  633) = (   0.3333333  -0.5000000   0.4517094), wk =   0.0020576
        k(  634) = (   0.3333333  -0.5000000   0.5081731), wk =   0.0020576
        k(  635) = (   0.3333333  -0.5000000   0.5646368), wk =   0.0020576
        k(  636) = (   0.3333333  -0.5000000   0.6211005), wk =   0.0020576
        k(  637) = (   0.3333333  -0.5000000  -0.6775641), wk =   0.0010288
        k(  638) = (   0.3888889   0.3888889   0.0000000), wk =   0.0010288
        k(  639) = (   0.3888889   0.3888889   0.0564637), wk =   0.0020576
        k(  640) = (   0.3888889   0.3888889   0.1129274), wk =   0.0020576
        k(  641) = (   0.3888889   0.3888889   0.1693910), wk =   0.0020576
        k(  642) = (   0.3888889   0.3888889   0.2258547), wk =   0.0020576
        k(  643) = (   0.3888889   0.3888889   0.2823184), wk =   0.0020576
        k(  644) = (   0.3888889   0.3888889   0.3387821), wk =   0.0020576
        k(  645) = (   0.3888889   0.3888889   0.3952457), wk =   0.0020576
        k(  646) = (   0.3888889   0.3888889   0.4517094), wk =   0.0020576
        k(  647) = (   0.3888889   0.3888889   0.5081731), wk =   0.0020576
        k(  648) = (   0.3888889   0.3888889   0.5646368), wk =   0.0020576
        k(  649) = (   0.3888889   0.3888889   0.6211005), wk =   0.0020576
        k(  650) = (   0.3888889   0.3888889  -0.6775641), wk =   0.0010288
        k(  651) = (   0.3888889   0.4444444   0.0000000), wk =   0.0020576
        k(  652) = (   0.3888889   0.4444444   0.0564637), wk =   0.0041152
        k(  653) = (   0.3888889   0.4444444   0.1129274), wk =   0.0041152
        k(  654) = (   0.3888889   0.4444444   0.1693910), wk =   0.0041152
        k(  655) = (   0.3888889   0.4444444   0.2258547), wk =   0.0041152
        k(  656) = (   0.3888889   0.4444444   0.2823184), wk =   0.0041152
        k(  657) = (   0.3888889   0.4444444   0.3387821), wk =   0.0041152
        k(  658) = (   0.3888889   0.4444444   0.3952457), wk =   0.0041152
        k(  659) = (   0.3888889   0.4444444   0.4517094), wk =   0.0041152
        k(  660) = (   0.3888889   0.4444444   0.5081731), wk =   0.0041152
        k(  661) = (   0.3888889   0.4444444   0.5646368), wk =   0.0041152
        k(  662) = (   0.3888889   0.4444444   0.6211005), wk =   0.0041152
        k(  663) = (   0.3888889   0.4444444  -0.6775641), wk =   0.0020576
        k(  664) = (   0.3888889  -0.5000000   0.0000000), wk =   0.0010288
        k(  665) = (   0.3888889  -0.5000000   0.0564637), wk =   0.0020576
        k(  666) = (   0.3888889  -0.5000000   0.1129274), wk =   0.0020576
        k(  667) = (   0.3888889  -0.5000000   0.1693910), wk =   0.0020576
        k(  668) = (   0.3888889  -0.5000000   0.2258547), wk =   0.0020576
        k(  669) = (   0.3888889  -0.5000000   0.2823184), wk =   0.0020576
        k(  670) = (   0.3888889  -0.5000000   0.3387821), wk =   0.0020576
        k(  671) = (   0.3888889  -0.5000000   0.3952457), wk =   0.0020576
        k(  672) = (   0.3888889  -0.5000000   0.4517094), wk =   0.0020576
        k(  673) = (   0.3888889  -0.5000000   0.5081731), wk =   0.0020576
        k(  674) = (   0.3888889  -0.5000000   0.5646368), wk =   0.0020576
        k(  675) = (   0.3888889  -0.5000000   0.6211005), wk =   0.0020576
        k(  676) = (   0.3888889  -0.5000000  -0.6775641), wk =   0.0010288
        k(  677) = (   0.4444444   0.4444444   0.0000000), wk =   0.0010288
        k(  678) = (   0.4444444   0.4444444   0.0564637), wk =   0.0020576
        k(  679) = (   0.4444444   0.4444444   0.1129274), wk =   0.0020576
        k(  680) = (   0.4444444   0.4444444   0.1693910), wk =   0.0020576
        k(  681) = (   0.4444444   0.4444444   0.2258547), wk =   0.0020576
        k(  682) = (   0.4444444   0.4444444   0.2823184), wk =   0.0020576
        k(  683) = (   0.4444444   0.4444444   0.3387821), wk =   0.0020576
        k(  684) = (   0.4444444   0.4444444   0.3952457), wk =   0.0020576
        k(  685) = (   0.4444444   0.4444444   0.4517094), wk =   0.0020576
        k(  686) = (   0.4444444   0.4444444   0.5081731), wk =   0.0020576
        k(  687) = (   0.4444444   0.4444444   0.5646368), wk =   0.0020576
        k(  688) = (   0.4444444   0.4444444   0.6211005), wk =   0.0020576
        k(  689) = (   0.4444444   0.4444444  -0.6775641), wk =   0.0010288
        k(  690) = (   0.4444444  -0.5000000   0.0000000), wk =   0.0010288
        k(  691) = (   0.4444444  -0.5000000   0.0564637), wk =   0.0020576
        k(  692) = (   0.4444444  -0.5000000   0.1129274), wk =   0.0020576
        k(  693) = (   0.4444444  -0.5000000   0.1693910), wk =   0.0020576
        k(  694) = (   0.4444444  -0.5000000   0.2258547), wk =   0.0020576
        k(  695) = (   0.4444444  -0.5000000   0.2823184), wk =   0.0020576
        k(  696) = (   0.4444444  -0.5000000   0.3387821), wk =   0.0020576
        k(  697) = (   0.4444444  -0.5000000   0.3952457), wk =   0.0020576
        k(  698) = (   0.4444444  -0.5000000   0.4517094), wk =   0.0020576
        k(  699) = (   0.4444444  -0.5000000   0.5081731), wk =   0.0020576
        k(  700) = (   0.4444444  -0.5000000   0.5646368), wk =   0.0020576
        k(  701) = (   0.4444444  -0.5000000   0.6211005), wk =   0.0020576
        k(  702) = (   0.4444444  -0.5000000  -0.6775641), wk =   0.0010288
        k(  703) = (  -0.5000000  -0.5000000   0.0000000), wk =   0.0002572
        k(  704) = (  -0.5000000  -0.5000000   0.0564637), wk =   0.0005144
        k(  705) = (  -0.5000000  -0.5000000   0.1129274), wk =   0.0005144
        k(  706) = (  -0.5000000  -0.5000000   0.1693910), wk =   0.0005144
        k(  707) = (  -0.5000000  -0.5000000   0.2258547), wk =   0.0005144
        k(  708) = (  -0.5000000  -0.5000000   0.2823184), wk =   0.0005144
        k(  709) = (  -0.5000000  -0.5000000   0.3387821), wk =   0.0005144
        k(  710) = (  -0.5000000  -0.5000000   0.3952457), wk =   0.0005144
        k(  711) = (  -0.5000000  -0.5000000   0.4517094), wk =   0.0005144
        k(  712) = (  -0.5000000  -0.5000000   0.5081731), wk =   0.0005144
        k(  713) = (  -0.5000000  -0.5000000   0.5646368), wk =   0.0005144
        k(  714) = (  -0.5000000  -0.5000000   0.6211005), wk =   0.0005144
        k(  715) = (  -0.5000000  -0.5000000  -0.6775641), wk =   0.0002572

                       cryst. coord.
        k(    1) = (   0.0000000   0.0000000   0.0000000), wk =   0.0002572
        k(    2) = (   0.0000000   0.0000000   0.0416667), wk =   0.0005144
        k(    3) = (   0.0000000   0.0000000   0.0833333), wk =   0.0005144
        k(    4) = (   0.0000000   0.0000000   0.1250000), wk =   0.0005144
        k(    5) = (   0.0000000   0.0000000   0.1666667), wk =   0.0005144
        k(    6) = (   0.0000000   0.0000000   0.2083333), wk =   0.0005144
        k(    7) = (   0.0000000   0.0000000   0.2500000), wk =   0.0005144
        k(    8) = (   0.0000000   0.0000000   0.2916667), wk =   0.0005144
        k(    9) = (   0.0000000   0.0000000   0.3333333), wk =   0.0005144
        k(   10) = (   0.0000000   0.0000000   0.3750000), wk =   0.0005144
        k(   11) = (   0.0000000   0.0000000   0.4166667), wk =   0.0005144
        k(   12) = (   0.0000000   0.0000000   0.4583333), wk =   0.0005144
        k(   13) = (   0.0000000   0.0000000  -0.5000000), wk =   0.0002572
        k(   14) = (   0.0000000   0.0555556   0.0000000), wk =   0.0010288
        k(   15) = (   0.0000000   0.0555556   0.0416667), wk =   0.0020576
        k(   16) = (   0.0000000   0.0555556   0.0833333), wk =   0.0020576
        k(   17) = (   0.0000000   0.0555556   0.1250000), wk =   0.0020576
        k(   18) = (   0.0000000   0.0555556   0.1666667), wk =   0.0020576
        k(   19) = (   0.0000000   0.0555556   0.2083333), wk =   0.0020576
        k(   20) = (   0.0000000   0.0555556   0.2500000), wk =   0.0020576
        k(   21) = (   0.0000000   0.0555556   0.2916667), wk =   0.0020576
        k(   22) = (   0.0000000   0.0555556   0.3333333), wk =   0.0020576
        k(   23) = (   0.0000000   0.0555556   0.3750000), wk =   0.0020576
        k(   24) = (   0.0000000   0.0555556   0.4166667), wk =   0.0020576
        k(   25) = (   0.0000000   0.0555556   0.4583333), wk =   0.0020576
        k(   26) = (   0.0000000   0.0555556  -0.5000000), wk =   0.0010288
        k(   27) = (   0.0000000   0.1111111   0.0000000), wk =   0.0010288
        k(   28) = (   0.0000000   0.1111111   0.0416667), wk =   0.0020576
        k(   29) = (   0.0000000   0.1111111   0.0833333), wk =   0.0020576
        k(   30) = (   0.0000000   0.1111111   0.1250000), wk =   0.0020576
        k(   31) = (   0.0000000   0.1111111   0.1666667), wk =   0.0020576
        k(   32) = (   0.0000000   0.1111111   0.2083333), wk =   0.0020576
        k(   33) = (   0.0000000   0.1111111   0.2500000), wk =   0.0020576
        k(   34) = (   0.0000000   0.1111111   0.2916667), wk =   0.0020576
        k(   35) = (   0.0000000   0.1111111   0.3333333), wk =   0.0020576
        k(   36) = (   0.0000000   0.1111111   0.3750000), wk =   0.0020576
        k(   37) = (   0.0000000   0.1111111   0.4166667), wk =   0.0020576
        k(   38) = (   0.0000000   0.1111111   0.4583333), wk =   0.0020576
        k(   39) = (   0.0000000   0.1111111  -0.5000000), wk =   0.0010288
        k(   40) = (   0.0000000   0.1666667   0.0000000), wk =   0.0010288
        k(   41) = (   0.0000000   0.1666667   0.0416667), wk =   0.0020576
        k(   42) = (   0.0000000   0.1666667   0.0833333), wk =   0.0020576
        k(   43) = (   0.0000000   0.1666667   0.1250000), wk =   0.0020576
        k(   44) = (   0.0000000   0.1666667   0.1666667), wk =   0.0020576
        k(   45) = (   0.0000000   0.1666667   0.2083333), wk =   0.0020576
        k(   46) = (   0.0000000   0.1666667   0.2500000), wk =   0.0020576
        k(   47) = (   0.0000000   0.1666667   0.2916667), wk =   0.0020576
        k(   48) = (   0.0000000   0.1666667   0.3333333), wk =   0.0020576
        k(   49) = (   0.0000000   0.1666667   0.3750000), wk =   0.0020576
        k(   50) = (   0.0000000   0.1666667   0.4166667), wk =   0.0020576
        k(   51) = (   0.0000000   0.1666667   0.4583333), wk =   0.0020576
        k(   52) = (   0.0000000   0.1666667  -0.5000000), wk =   0.0010288
        k(   53) = (   0.0000000   0.2222222   0.0000000), wk =   0.0010288
        k(   54) = (   0.0000000   0.2222222   0.0416667), wk =   0.0020576
        k(   55) = (   0.0000000   0.2222222   0.0833333), wk =   0.0020576
        k(   56) = (   0.0000000   0.2222222   0.1250000), wk =   0.0020576
        k(   57) = (   0.0000000   0.2222222   0.1666667), wk =   0.0020576
        k(   58) = (   0.0000000   0.2222222   0.2083333), wk =   0.0020576
        k(   59) = (   0.0000000   0.2222222   0.2500000), wk =   0.0020576
        k(   60) = (   0.0000000   0.2222222   0.2916667), wk =   0.0020576
        k(   61) = (   0.0000000   0.2222222   0.3333333), wk =   0.0020576
        k(   62) = (   0.0000000   0.2222222   0.3750000), wk =   0.0020576
        k(   63) = (   0.0000000   0.2222222   0.4166667), wk =   0.0020576
        k(   64) = (   0.0000000   0.2222222   0.4583333), wk =   0.0020576
        k(   65) = (   0.0000000   0.2222222  -0.5000000), wk =   0.0010288
        k(   66) = (   0.0000000   0.2777778   0.0000000), wk =   0.0010288
        k(   67) = (   0.0000000   0.2777778   0.0416667), wk =   0.0020576
        k(   68) = (   0.0000000   0.2777778   0.0833333), wk =   0.0020576
        k(   69) = (   0.0000000   0.2777778   0.1250000), wk =   0.0020576
        k(   70) = (   0.0000000   0.2777778   0.1666667), wk =   0.0020576
        k(   71) = (   0.0000000   0.2777778   0.2083333), wk =   0.0020576
        k(   72) = (   0.0000000   0.2777778   0.2500000), wk =   0.0020576
        k(   73) = (   0.0000000   0.2777778   0.2916667), wk =   0.0020576
        k(   74) = (   0.0000000   0.2777778   0.3333333), wk =   0.0020576
        k(   75) = (   0.0000000   0.2777778   0.3750000), wk =   0.0020576
        k(   76) = (   0.0000000   0.2777778   0.4166667), wk =   0.0020576
        k(   77) = (   0.0000000   0.2777778   0.4583333), wk =   0.0020576
        k(   78) = (   0.0000000   0.2777778  -0.5000000), wk =   0.0010288
        k(   79) = (   0.0000000   0.3333333   0.0000000), wk =   0.0010288
        k(   80) = (   0.0000000   0.3333333   0.0416667), wk =   0.0020576
        k(   81) = (   0.0000000   0.3333333   0.0833333), wk =   0.0020576
        k(   82) = (   0.0000000   0.3333333   0.1250000), wk =   0.0020576
        k(   83) = (   0.0000000   0.3333333   0.1666667), wk =   0.0020576
        k(   84) = (   0.0000000   0.3333333   0.2083333), wk =   0.0020576
        k(   85) = (   0.0000000   0.3333333   0.2500000), wk =   0.0020576
        k(   86) = (   0.0000000   0.3333333   0.2916667), wk =   0.0020576
        k(   87) = (   0.0000000   0.3333333   0.3333333), wk =   0.0020576
        k(   88) = (   0.0000000   0.3333333   0.3750000), wk =   0.0020576
        k(   89) = (   0.0000000   0.3333333   0.4166667), wk =   0.0020576
        k(   90) = (   0.0000000   0.3333333   0.4583333), wk =   0.0020576
        k(   91) = (   0.0000000   0.3333333  -0.5000000), wk =   0.0010288
        k(   92) = (   0.0000000   0.3888889   0.0000000), wk =   0.0010288
        k(   93) = (   0.0000000   0.3888889   0.0416667), wk =   0.0020576
        k(   94) = (   0.0000000   0.3888889   0.0833333), wk =   0.0020576
        k(   95) = (   0.0000000   0.3888889   0.1250000), wk =   0.0020576
        k(   96) = (   0.0000000   0.3888889   0.1666667), wk =   0.0020576
        k(   97) = (   0.0000000   0.3888889   0.2083333), wk =   0.0020576
        k(   98) = (   0.0000000   0.3888889   0.2500000), wk =   0.0020576
        k(   99) = (   0.0000000   0.3888889   0.2916667), wk =   0.0020576
        k(  100) = (   0.0000000   0.3888889   0.3333333), wk =   0.0020576
        k(  101) = (   0.0000000   0.3888889   0.3750000), wk =   0.0020576
        k(  102) = (   0.0000000   0.3888889   0.4166667), wk =   0.0020576
        k(  103) = (   0.0000000   0.3888889   0.4583333), wk =   0.0020576
        k(  104) = (   0.0000000   0.3888889  -0.5000000), wk =   0.0010288
        k(  105) = (   0.0000000   0.4444444   0.0000000), wk =   0.0010288
        k(  106) = (   0.0000000   0.4444444   0.0416667), wk =   0.0020576
        k(  107) = (   0.0000000   0.4444444   0.0833333), wk =   0.0020576
        k(  108) = (   0.0000000   0.4444444   0.1250000), wk =   0.0020576
        k(  109) = (   0.0000000   0.4444444   0.1666667), wk =   0.0020576
        k(  110) = (   0.0000000   0.4444444   0.2083333), wk =   0.0020576
        k(  111) = (   0.0000000   0.4444444   0.2500000), wk =   0.0020576
        k(  112) = (   0.0000000   0.4444444   0.2916667), wk =   0.0020576
        k(  113) = (   0.0000000   0.4444444   0.3333333), wk =   0.0020576
        k(  114) = (   0.0000000   0.4444444   0.3750000), wk =   0.0020576
        k(  115) = (   0.0000000   0.4444444   0.4166667), wk =   0.0020576
        k(  116) = (   0.0000000   0.4444444   0.4583333), wk =   0.0020576
        k(  117) = (   0.0000000   0.4444444  -0.5000000), wk =   0.0010288
        k(  118) = (   0.0000000  -0.5000000   0.0000000), wk =   0.0005144
        k(  119) = (   0.0000000  -0.5000000   0.0416667), wk =   0.0010288
        k(  120) = (   0.0000000  -0.5000000   0.0833333), wk =   0.0010288
        k(  121) = (   0.0000000  -0.5000000   0.1250000), wk =   0.0010288
        k(  122) = (   0.0000000  -0.5000000   0.1666667), wk =   0.0010288
        k(  123) = (   0.0000000  -0.5000000   0.2083333), wk =   0.0010288
        k(  124) = (   0.0000000  -0.5000000   0.2500000), wk =   0.0010288
        k(  125) = (   0.0000000  -0.5000000   0.2916667), wk =   0.0010288
        k(  126) = (   0.0000000  -0.5000000   0.3333333), wk =   0.0010288
        k(  127) = (   0.0000000  -0.5000000   0.3750000), wk =   0.0010288
        k(  128) = (   0.0000000  -0.5000000   0.4166667), wk =   0.0010288
        k(  129) = (   0.0000000  -0.5000000   0.4583333), wk =   0.0010288
        k(  130) = (   0.0000000  -0.5000000  -0.5000000), wk =   0.0005144
        k(  131) = (   0.0555556   0.0555556   0.0000000), wk =   0.0010288
        k(  132) = (   0.0555556   0.0555556   0.0416667), wk =   0.0020576
        k(  133) = (   0.0555556   0.0555556   0.0833333), wk =   0.0020576
        k(  134) = (   0.0555556   0.0555556   0.1250000), wk =   0.0020576
        k(  135) = (   0.0555556   0.0555556   0.1666667), wk =   0.0020576
        k(  136) = (   0.0555556   0.0555556   0.2083333), wk =   0.0020576
        k(  137) = (   0.0555556   0.0555556   0.2500000), wk =   0.0020576
        k(  138) = (   0.0555556   0.0555556   0.2916667), wk =   0.0020576
        k(  139) = (   0.0555556   0.0555556   0.3333333), wk =   0.0020576
        k(  140) = (   0.0555556   0.0555556   0.3750000), wk =   0.0020576
        k(  141) = (   0.0555556   0.0555556   0.4166667), wk =   0.0020576
        k(  142) = (   0.0555556   0.0555556   0.4583333), wk =   0.0020576
        k(  143) = (   0.0555556   0.0555556  -0.5000000), wk =   0.0010288
        k(  144) = (   0.0555556   0.1111111   0.0000000), wk =   0.0020576
        k(  145) = (   0.0555556   0.1111111   0.0416667), wk =   0.0041152
        k(  146) = (   0.0555556   0.1111111   0.0833333), wk =   0.0041152
        k(  147) = (   0.0555556   0.1111111   0.1250000), wk =   0.0041152
        k(  148) = (   0.0555556   0.1111111   0.1666667), wk =   0.0041152
        k(  149) = (   0.0555556   0.1111111   0.2083333), wk =   0.0041152
        k(  150) = (   0.0555556   0.1111111   0.2500000), wk =   0.0041152
        k(  151) = (   0.0555556   0.1111111   0.2916667), wk =   0.0041152
        k(  152) = (   0.0555556   0.1111111   0.3333333), wk =   0.0041152
        k(  153) = (   0.0555556   0.1111111   0.3750000), wk =   0.0041152
        k(  154) = (   0.0555556   0.1111111   0.4166667), wk =   0.0041152
        k(  155) = (   0.0555556   0.1111111   0.4583333), wk =   0.0041152
        k(  156) = (   0.0555556   0.1111111  -0.5000000), wk =   0.0020576
        k(  157) = (   0.0555556   0.1666667   0.0000000), wk =   0.0020576
        k(  158) = (   0.0555556   0.1666667   0.0416667), wk =   0.0041152
        k(  159) = (   0.0555556   0.1666667   0.0833333), wk =   0.0041152
        k(  160) = (   0.0555556   0.1666667   0.1250000), wk =   0.0041152
        k(  161) = (   0.0555556   0.1666667   0.1666667), wk =   0.0041152
        k(  162) = (   0.0555556   0.1666667   0.2083333), wk =   0.0041152
        k(  163) = (   0.0555556   0.1666667   0.2500000), wk =   0.0041152
        k(  164) = (   0.0555556   0.1666667   0.2916667), wk =   0.0041152
        k(  165) = (   0.0555556   0.1666667   0.3333333), wk =   0.0041152
        k(  166) = (   0.0555556   0.1666667   0.3750000), wk =   0.0041152
        k(  167) = (   0.0555556   0.1666667   0.4166667), wk =   0.0041152
        k(  168) = (   0.0555556   0.1666667   0.4583333), wk =   0.0041152
        k(  169) = (   0.0555556   0.1666667  -0.5000000), wk =   0.0020576
        k(  170) = (   0.0555556   0.2222222   0.0000000), wk =   0.0020576
        k(  171) = (   0.0555556   0.2222222   0.0416667), wk =   0.0041152
        k(  172) = (   0.0555556   0.2222222   0.0833333), wk =   0.0041152
        k(  173) = (   0.0555556   0.2222222   0.1250000), wk =   0.0041152
        k(  174) = (   0.0555556   0.2222222   0.1666667), wk =   0.0041152
        k(  175) = (   0.0555556   0.2222222   0.2083333), wk =   0.0041152
        k(  176) = (   0.0555556   0.2222222   0.2500000), wk =   0.0041152
        k(  177) = (   0.0555556   0.2222222   0.2916667), wk =   0.0041152
        k(  178) = (   0.0555556   0.2222222   0.3333333), wk =   0.0041152
        k(  179) = (   0.0555556   0.2222222   0.3750000), wk =   0.0041152
        k(  180) = (   0.0555556   0.2222222   0.4166667), wk =   0.0041152
        k(  181) = (   0.0555556   0.2222222   0.4583333), wk =   0.0041152
        k(  182) = (   0.0555556   0.2222222  -0.5000000), wk =   0.0020576
        k(  183) = (   0.0555556   0.2777778   0.0000000), wk =   0.0020576
        k(  184) = (   0.0555556   0.2777778   0.0416667), wk =   0.0041152
        k(  185) = (   0.0555556   0.2777778   0.0833333), wk =   0.0041152
        k(  186) = (   0.0555556   0.2777778   0.1250000), wk =   0.0041152
        k(  187) = (   0.0555556   0.2777778   0.1666667), wk =   0.0041152
        k(  188) = (   0.0555556   0.2777778   0.2083333), wk =   0.0041152
        k(  189) = (   0.0555556   0.2777778   0.2500000), wk =   0.0041152
        k(  190) = (   0.0555556   0.2777778   0.2916667), wk =   0.0041152
        k(  191) = (   0.0555556   0.2777778   0.3333333), wk =   0.0041152
        k(  192) = (   0.0555556   0.2777778   0.3750000), wk =   0.0041152
        k(  193) = (   0.0555556   0.2777778   0.4166667), wk =   0.0041152
[...]
    16.8740  17.3926

     occupation numbers 
     1.0000   1.0000   1.0000   1.0000   1.0001   0.0000   0.0000   0.0000
     0.0000   0.0000

          k = 0.3889 0.4444 0.3388 (   698 PWs)   bands (ev):

     2.0966   3.0614   4.0144   4.9518  10.0552  10.9431  11.8505  12.7732
    17.1375  17.6569

     occupation numbers 
     1.0000   1.0000   1.0000   1.0000   1.0000   1.0000   0.0000   0.0000
     0.0000   0.0000

          k = 0.3889 0.4444 0.3952 (   698 PWs)   bands (ev):

     2.4570   3.4166   4.3618   5.2833   9.1621  10.0461  10.9526  11.8723
    17.4468  17.9659

     occupation numbers 
     1.0000   1.0000   1.0000   1.0000   1.0000   1.0000   1.0000   0.0000
     0.0000   0.0000

          k = 0.3889 0.4444 0.4517 (   698 PWs)   bands (ev):

     2.8707   3.8230   4.7555   5.6425   8.3383   9.1981  10.0992  11.0161
    17.7982  18.3191

     occupation numbers 
     1.0000   1.0000   1.0000   1.0000   1.0000   1.0000   1.0000   1.0001
     0.0000   0.0000

          k = 0.3889 0.4444 0.5082 (   697 PWs)   bands (ev):

     3.3359   4.2775   5.1858   5.9710   7.6440   8.4115   9.2959  10.2078
    18.1860  18.7153

     occupation numbers 
     1.0000   1.0000   1.0000   1.0000   1.0000   1.0000   1.0000   1.0000
     0.0000   0.0000

          k = 0.3889 0.4444 0.5646 (   701 PWs)   bands (ev):

     3.8504   4.7736   5.6219   6.0231   7.3263   7.7187   8.5510   9.4511
    18.5983  19.1513

     occupation numbers 
     1.0000   1.0000   1.0000   1.0000   1.0000   1.0000   1.0000   1.0000
     0.0000   0.0000

          k = 0.3889 0.4444 0.6211 (   698 PWs)   bands (ev):

     4.4095   5.2937   5.5923   5.9285   7.2562   7.5926   7.8829   8.7513
    19.0067  19.6207

     occupation numbers 
     1.0000   1.0000   1.0000   1.0000   1.0000   1.0000   1.0000   1.0000
     0.0000   0.0000

          k = 0.3889 0.4444-0.6776 (   692 PWs)   bands (ev):

     5.0020   5.0020   5.7696   5.7696   7.3603   7.3603   8.1199   8.1199
    19.3376  19.3377

     occupation numbers 
     1.0000   1.0000   1.0000   1.0000   1.0000   1.0000   1.0000   1.0000
     0.0000   0.0000

          k = 0.3889-0.5000 0.0000 (   692 PWs)   bands (ev):

     1.5524   1.5525   3.4886   3.4887  16.0390  16.0391  16.1130  16.1130
    17.7286  17.7287

     occupation numbers 
     1.0000   1.0000   1.0000   1.0000   0.0000   0.0000   0.0000   0.0000
     0.0000   0.0000

          k = 0.3889-0.5000 0.0565 (   694 PWs)   bands (ev):

     1.5804   1.5805   3.5159   3.5160  15.3448  15.3448  16.4382  16.4382
    17.1140  17.1140

     occupation numbers 
     1.0000   1.0000   1.0000   1.0000   0.0000   0.0000   0.0000   0.0000
     0.0000   0.0000

          k = 0.3889-0.5000 0.1129 (   692 PWs)   bands (ev):

     1.6642   1.6643   3.5977   3.5978  14.4016  14.4016  16.1901  16.1902
    16.6086  16.6087

     occupation numbers 
     1.0000   1.0000   1.0000   1.0000   0.0000   0.0000   0.0000   0.0000
     0.0000   0.0000

          k = 0.3889-0.5000 0.1694 (   696 PWs)   bands (ev):

     1.8038   1.8039   3.7338   3.7339  13.3991  13.3991  15.1984  15.1984
    16.7621  16.7621

     occupation numbers 
     1.0000   1.0000   1.0000   1.0000   0.0000   0.0000   0.0000   0.0000
     0.0000   0.0000

          k = 0.3889-0.5000 0.2259 (   698 PWs)   bands (ev):

     1.9989   1.9990   3.9234   3.9236  12.3965  12.3966  14.2032  14.2033
    16.9451  16.9451

     occupation numbers 
     1.0000   1.0000   1.0000   1.0000   0.0000   0.0000   0.0000   0.0000
     0.0000   0.0000

          k = 0.3889-0.5000 0.2823 (   698 PWs)   bands (ev):

     2.2489   2.2491   4.1659   4.1660  11.4176  11.4177  13.2295  13.2296
    17.1693  17.1693

     occupation numbers 
     1.0000   1.0000   1.0000   1.0000   0.7822   0.7817   0.0000   0.0000
     0.0000   0.0000

          k = 0.3889-0.5000 0.3388 (   694 PWs)   bands (ev):

     2.5535   2.5536   4.4594   4.4594  10.4748  10.4749  12.2890  12.2891
    17.4375  17.4376

     occupation numbers 
     1.0000   1.0000   1.0000   1.0000   1.0000   1.0000   0.0000   0.0000
     0.0000   0.0000

          k = 0.3889-0.5000 0.3952 (   698 PWs)   bands (ev):

     2.9116   2.9117   4.8006   4.8007   9.5771   9.5773  11.3885  11.3887
    17.7501  17.7502

     occupation numbers 
     1.0000   1.0000   1.0000   1.0000   1.0000   1.0000   0.9146   0.9141
     0.0000   0.0000

          k = 0.3889-0.5000 0.4517 (   702 PWs)   bands (ev):

     3.3221   3.3222   5.1824   5.1825   8.7354   8.7356  10.5327  10.5329
    18.1060  18.1060

     occupation numbers 
     1.0000   1.0000   1.0000   1.0000   1.0000   1.0000   1.0000   1.0000
     0.0000   0.0000

          k = 0.3889-0.5000 0.5082 (   700 PWs)   bands (ev):

     3.7829   3.7830   5.5831   5.5831   7.9734   7.9736   9.7258   9.7260
    18.5021  18.5021

     occupation numbers 
     1.0000   1.0000   1.0000   1.0000   1.0000   1.0000   1.0000   1.0000
     0.0000   0.0000

          k = 0.3889-0.5000 0.5646 (   704 PWs)   bands (ev):

     4.2903   4.2904   5.9139   5.9139   7.3812   7.3815   8.9728   8.9729
    18.9325  18.9325

     occupation numbers 
     1.0000   1.0000   1.0000   1.0000   1.0000   1.0000   1.0000   1.0000
     0.0000   0.0000

          k = 0.3889-0.5000 0.6211 (   698 PWs)   bands (ev):

     4.8359   4.8359   5.8630   5.8631   7.2717   7.2719   8.2828   8.2829
    19.3839  19.3840

     occupation numbers 
     1.0000   1.0000   1.0000   1.0000   1.0000   1.0000   1.0000   1.0000
     0.0000   0.0000

          k = 0.3889-0.5000-0.6776 (   696 PWs)   bands (ev):

     5.3947   5.3948   5.3948   5.3949   7.6810   7.6812   7.6812   7.6814
    19.8222  19.8222

     occupation numbers 
     1.0000   1.0000   1.0000   1.0000   1.0000   1.0000   1.0000   1.0000
     0.0000   0.0000

          k = 0.4444 0.4444 0.0000 (   694 PWs)   bands (ev):

     1.4983   2.4713   2.4713   3.4358  15.9928  16.8371  16.8371  16.9718
    16.9718  17.4333

     occupation numbers 
     1.0000   1.0000   1.0000   1.0000   0.0000   0.0000   0.0000   0.0000
     0.0000   0.0000

          k = 0.4444 0.4444 0.0565 (   694 PWs)   bands (ev):

     1.5263   2.4990   2.4990   3.4631  15.3922  16.1824  16.1824  17.1424
    17.2593  17.2593

     occupation numbers 
     1.0000   1.0000   1.0000   1.0000   0.0000   0.0000   0.0000   0.0000
     0.0000   0.0000

          k = 0.4444 0.4444 0.1129 (   698 PWs)   bands (ev):

     1.6102   2.5819   2.5819   3.5450  14.4056  15.2479  15.2479  16.1885
    17.4244  17.4244

     occupation numbers 
     1.0000   1.0000   1.0000   1.0000   0.0000   0.0000   0.0000   0.0000
     0.0000   0.0000

          k = 0.4444 0.4444 0.1694 (   696 PWs)   bands (ev):

     1.7498   2.7200   2.7200   3.6811  13.3787  14.2503  14.2503  15.1764
    17.5748  17.6438

     occupation numbers 
     1.0000   1.0000   1.0000   1.0000   0.0000   0.0000   0.0000   0.0000
     0.0000   0.0000

          k = 0.4444 0.4444 0.2259 (   694 PWs)   bands (ev):

     1.9450   2.9128   2.9128   3.8709  12.3637  13.2508  13.2508  14.1703
    17.7548  17.8073

     occupation numbers 
     1.0000   1.0000   1.0000   1.0000   0.0000   0.0000   0.0000   0.0000
     0.0000   0.0000

          k = 0.4444 0.4444 0.2823 (   693 PWs)   bands (ev):

     2.1952   3.1598   3.1598   4.1135  11.3780  12.2737  12.2737  13.1905
    17.9750  18.0172

     occupation numbers 
     1.0000   1.0000   1.0000   1.0000   0.9541   0.0000   0.0000   0.0000
     0.0000   0.0000

          k = 0.4444 0.4444 0.3388 (   696 PWs)   bands (ev):

     2.5000   3.4601   3.4601   4.4071  10.4311  11.3308  11.3308  12.2463
    18.2375  18.2728

     occupation numbers 
     1.0000   1.0000   1.0000   1.0000   1.0000   1.0640   1.0640   0.0000
     0.0000   0.0000

          k = 0.4444 0.4444 0.3952 (   696 PWs)   bands (ev):

     2.8583   3.8122   3.8123   4.7487   9.5309  10.4292  10.4292  11.3435
    18.5414  18.5735

     occupation numbers 
     1.0000   1.0000   1.0000   1.0000   1.0000   1.0000   1.0000   1.0450
     0.0000   0.0000

          k = 0.4444 0.4444 0.4517 (   702 PWs)   bands (ev):

     3.2691   4.2138   4.2138   5.1307   8.6874   9.5750   9.5750  10.4861
    18.8831  18.9177

     occupation numbers 
     1.0000   1.0000   1.0000   1.0000   1.0000   1.0000   1.0000   1.0000
     0.0000   0.0000

          k = 0.4444 0.4444 0.5082 (   698 PWs)   bands (ev):

     3.7301   4.6597   4.6597   5.5317   7.9242   8.7753   8.7753   9.6779
    19.2538  19.3035

     occupation numbers 
     1.0000   1.0000   1.0000   1.0000   1.0000   1.0000   1.0000   1.0000
     0.0000   0.0000

          k = 0.4444 0.4444 0.5646 (   703 PWs)   bands (ev):

     4.2378   5.1370   5.1370   5.8628   7.3311   8.0445   8.0445   8.9240
    19.6331  19.7252

     occupation numbers 
     1.0000   1.0000   1.0000   1.0000   1.0000   1.0000   1.0000   1.0000
     0.0000   0.0000

          k = 0.4444 0.4444 0.6211 (   699 PWs)   bands (ev):

     4.7838   5.6006   5.6006   5.8119   7.2214   7.4285   7.4286   8.2333
    19.9652  19.9653

     occupation numbers 
     1.0000   1.0000   1.0000   1.0000   1.0000   1.0000   1.0000   1.0000
     0.0000   0.0000

          k = 0.4444 0.4444-0.6776 (   700 PWs)   bands (ev):

     5.3431   5.3431   5.8499   5.8499   7.1283   7.1283   7.6310   7.6310
    20.1146  20.1148

     occupation numbers 
     1.0000   1.0000   1.0000   1.0000   1.0000   1.0000   1.0000   1.0000
     0.0000   0.0000

          k = 0.4444-0.5000 0.0000 (   690 PWs)   bands (ev):

     1.9589   1.9590   2.9279   2.9280  16.3917  16.3917  17.1876  17.1877
    17.2367  17.2367

     occupation numbers 
     1.0000   1.0000   1.0000   1.0000   0.0000   0.0000   0.0000   0.0000
     0.0000   0.0000

          k = 0.4444-0.5000 0.0565 (   692 PWs)   bands (ev):

     1.9867   1.9868   2.9554   2.9555  15.7899  15.7900  16.6671  16.6671
    17.4206  17.4208

     occupation numbers 
     1.0000   1.0000   1.0000   1.0000   0.0000   0.0000   0.0000   0.0000
     0.0000   0.0000

          k = 0.4444-0.5000 0.1129 (   696 PWs)   bands (ev):

     2.0702   2.0703   3.0379   3.0380  14.8163  14.8164  15.7087  15.7087
    17.5951  17.5953

     occupation numbers 
     1.0000   1.0000   1.0000   1.0000   0.0000   0.0000   0.0000   0.0000
     0.0000   0.0000

          k = 0.4444-0.5000 0.1694 (   696 PWs)   bands (ev):

     2.2091   2.2092   3.1751   3.1752  13.7974  13.7975  14.6967  14.6968
    17.7444  17.7445

     occupation numbers 
     1.0000   1.0000   1.0000   1.0000   0.0000   0.0000   0.0000   0.0000
     0.0000   0.0000

          k = 0.4444-0.5000 0.2259 (   698 PWs)   bands (ev):

     2.4032   2.4033   3.3665   3.3667  12.7867  12.7868  13.6904  13.6905
    17.9218  17.9219

     occupation numbers 
     1.0000   1.0000   1.0000   1.0000   0.0000   0.0000   0.0000   0.0000
     0.0000   0.0000

          k = 0.4444-0.5000 0.2823 (   694 PWs)   bands (ev):

     2.6520   2.6521   3.6116   3.6117  11.8033  11.8034  12.7100  12.7101
    18.1393  18.1394

     occupation numbers 
     1.0000   1.0000   1.0000   1.0000   0.0001   0.0001   0.0000   0.0000
     0.0000   0.0000

          k = 0.4444-0.5000 0.3388 (   694 PWs)   bands (ev):

     2.9547   2.9549   3.9091   3.9092  10.8569  10.8570  11.7652  11.7653
    18.3998  18.3999

     occupation numbers 
     1.0000   1.0000   1.0000   1.0000   1.0000   1.0000   0.0003   0.0003
     0.0000   0.0000

          k = 0.4444-0.5000 0.3952 (   698 PWs)   bands (ev):

     3.3104   3.3105   4.2570   4.2571   9.9544   9.9545  10.8619  10.8621
    18.7032  18.7033

     occupation numbers 
     1.0000   1.0000   1.0000   1.0000   1.0000   1.0000   1.0000   1.0000
     0.0000   0.0000

          k = 0.4444-0.5000 0.4517 (   692 PWs)   bands (ev):

     3.7173   3.7174   4.6512   4.6513   9.1027   9.1029  10.0050  10.0051
    19.0478  19.0479

     occupation numbers 
     1.0000   1.0000   1.0000   1.0000   1.0000   1.0000   1.0000   1.0000
     0.0000   0.0000

          k = 0.4444-0.5000 0.5082 (   700 PWs)   bands (ev):

     4.1724   4.1725   5.0822   5.0822   8.3135   8.3137   9.1992   9.1994
    19.4293  19.4293

     occupation numbers 
     1.0000   1.0000   1.0000   1.0000   1.0000   1.0000   1.0000   1.0000
     0.0000   0.0000

          k = 0.4444-0.5000 0.5646 (   706 PWs)   bands (ev):

     4.6693   4.6694   5.5190   5.5190   7.6187   7.6189   8.4524   8.4525
    19.8378  19.8378

     occupation numbers 
     1.0000   1.0000   1.0000   1.0000   1.0000   1.0000   1.0000   1.0000
     0.0000   0.0000

          k = 0.4444-0.5000 0.6211 (   700 PWs)   bands (ev):

     5.1902   5.1902   5.8263   5.8263   7.1548   7.1551   7.7828   7.7830
    20.2487  20.2487

     occupation numbers 
     1.0000   1.0000   1.0000   1.0000   1.0000   1.0000   1.0000   1.0000
     0.0000   0.0000

          k = 0.4444-0.5000-0.6776 (   700 PWs)   bands (ev):

     5.6670   5.6670   5.6671   5.6671   7.2589   7.2592   7.2592   7.2594
    20.5909  20.5909

     occupation numbers 
     1.0000   1.0000   1.0000   1.0000   1.0000   1.0000   1.0000   1.0000
     0.0000   0.0000

          k =-0.5000-0.5000 0.0000 (   688 PWs)   bands (ev):

     2.4176   2.4177   2.4177   2.4178  16.7910  16.7910  16.7911  16.7911
    18.2194  18.2198

     occupation numbers 
     1.0000   1.0000   1.0000   1.0000   0.0000   0.0000   0.0000   0.0000
     0.0000   0.0000

          k =-0.5000-0.5000 0.0565 (   696 PWs)   bands (ev):

     2.4453   2.4454   2.4454   2.4455  16.2206  16.2206  16.2206  16.2206
    18.2425  18.2430

     occupation numbers 
     1.0000   1.0000   1.0000   1.0000   0.0000   0.0000   0.0000   0.0000
     0.0000   0.0000

          k =-0.5000-0.5000 0.1129 (   696 PWs)   bands (ev):

     2.5283   2.5284   2.5284   2.5285  15.2493  15.2493  15.2493  15.2494
    18.3125  18.3128

     occupation numbers 
     1.0000   1.0000   1.0000   1.0000   0.0000   0.0000   0.0000   0.0000
     0.0000   0.0000

          k =-0.5000-0.5000 0.1694 (   696 PWs)   bands (ev):

     2.6664   2.6666   2.6666   2.6667  14.2290  14.2291  14.2291  14.2292
    18.4288  18.4290

     occupation numbers 
     1.0000   1.0000   1.0000   1.0000   0.0000   0.0000   0.0000   0.0000
     0.0000   0.0000

          k =-0.5000-0.5000 0.2259 (   696 PWs)   bands (ev):

     2.8594   2.8595   2.8595   2.8596  13.2178  13.2179  13.2179  13.2180
    18.5908  18.5913

     occupation numbers 
     1.0000   1.0000   1.0000   1.0000   0.0000   0.0000   0.0000   0.0000
     0.0000   0.0000

          k =-0.5000-0.5000 0.2823 (   700 PWs)   bands (ev):

     3.1065   3.1066   3.1066   3.1067  12.2341  12.2343  12.2343  12.2344
    18.7984  18.7988

     occupation numbers 
     1.0000   1.0000   1.0000   1.0000   0.0000   0.0000   0.0000   0.0000
     0.0000   0.0000

          k =-0.5000-0.5000 0.3388 (   700 PWs)   bands (ev):

     3.4070   3.4071   3.4071   3.4072  11.2873  11.2874  11.2874  11.2875
    19.0507  19.0507

     occupation numbers 
     1.0000   1.0000   1.0000   1.0000   1.0823   1.0824   1.0824   1.0824
     0.0000   0.0000

          k =-0.5000-0.5000 0.3952 (   700 PWs)   bands (ev):

     3.7594   3.7595   3.7595   3.7596  10.3832  10.3833  10.3833  10.3835
    19.3452  19.3454

     occupation numbers 
     1.0000   1.0000   1.0000   1.0000   1.0000   1.0000   1.0000   1.0000
     0.0000   0.0000

          k =-0.5000-0.5000 0.4517 (   692 PWs)   bands (ev):

     4.1612   4.1613   4.1613   4.1614   9.5273   9.5274   9.5274   9.5276
    19.6787  19.6791

     occupation numbers 
     1.0000   1.0000   1.0000   1.0000   1.0000   1.0000   1.0000   1.0000
     0.0000   0.0000

          k =-0.5000-0.5000 0.5082 (   704 PWs)   bands (ev):

     4.6074   4.6075   4.6075   4.6076   8.7263   8.7265   8.7265   8.7267
    20.0438  20.0441

     occupation numbers 
     1.0000   1.0000   1.0000   1.0000   1.0000   1.0000   1.0000   1.0000
     0.0000   0.0000

          k =-0.5000-0.5000 0.5646 (   700 PWs)   bands (ev):

     5.0851   5.0852   5.0852   5.0853   7.9945   7.9947   7.9947   7.9949
    20.4217  20.4218

     occupation numbers 
     1.0000   1.0000   1.0000   1.0000   1.0000   1.0000   1.0000   1.0000
     0.0000   0.0000

          k =-0.5000-0.5000 0.6211 (   712 PWs)   bands (ev):

     5.5491   5.5492   5.5492   5.5492   7.3778   7.3780   7.3780   7.3783
    20.7593  20.7594

     occupation numbers 
     1.0000   1.0000   1.0000   1.0000   1.0000   1.0000   1.0000   1.0000
     0.0000   0.0000

          k =-0.5000-0.5000-0.6776 (   696 PWs)   bands (ev):

     5.7988   5.7988   5.7988   5.7989   7.0772   7.0774   7.0774   7.0777
    20.9152  20.9153

     occupation numbers 
     1.0000   1.0000   1.0000   1.0000   1.0000   1.0000   1.0000   1.0000
     0.0000   0.0000

     the Fermi energy is    11.4886 ev

!    total energy              =     -26.65108288 Ry
     Harris-Foulkes estimate   =     -26.65108292 Ry
     estimated scf accuracy    <       0.00000007 Ry

     The total energy is the sum of the following terms:

     one-electron contribution =      15.13615362 Ry
     hartree contribution      =       0.05158899 Ry
     xc contribution           =     -17.90720773 Ry
     ewald contribution        =     -23.93165244 Ry
     smearing contrib. (-TS)   =       0.00003468 Ry

     convergence has been achieved in   5 iterations
 
     init_run     :    596.98s CPU     63.37s WALL (       1 calls)
     electrons    :   7694.20s CPU    801.68s WALL (       1 calls)

     Called by init_run:
     wfcinit      :    596.61s CPU     63.05s WALL (       1 calls)
     wfcinit:atom :      1.36s CPU      0.13s WALL (     715 calls)
     wfcinit:wfcr :    589.14s CPU     62.34s WALL (     715 calls)
     potinit      :      0.05s CPU      0.03s WALL (       1 calls)

     Called by electrons:
     c_bands      :   7208.61s CPU    752.57s WALL (       6 calls)
     sum_band     :    481.78s CPU     48.72s WALL (       6 calls)
     v_of_rho     :      0.87s CPU      0.10s WALL (       6 calls)
     v_h          :      0.01s CPU      0.00s WALL (       6 calls)
     v_xc         :      0.86s CPU      0.09s WALL (       6 calls)
     newd         :      1.05s CPU      0.13s WALL (       6 calls)
     mix_rho      :      1.28s CPU      0.13s WALL (       6 calls)

     Called by c_bands:
     init_us_2    :     25.20s CPU      2.32s WALL (    9295 calls)
     cegterg      :   7147.56s CPU    747.14s WALL (    4290 calls)

     Called by sum_band:
     sum_band:bec :      1.44s CPU      0.14s WALL (    4290 calls)
     addusdens    :      0.94s CPU      0.10s WALL (       6 calls)

     Called by *egterg:
     h_psi        :   4043.27s CPU    414.61s WALL (   14564 calls)
     s_psi        :    775.35s CPU     78.83s WALL (   14564 calls)
     g_psi        :      4.80s CPU      0.42s WALL (    9559 calls)
     cdiaghg      :    241.89s CPU     24.18s WALL (   13134 calls)
     cegterg:over :    863.24s CPU    107.97s WALL (    9559 calls)
     cegterg:upda :    951.19s CPU     96.43s WALL (    9559 calls)
     cegterg:last :    251.69s CPU     25.54s WALL (    4295 calls)

     Called by h_psi:
     h_psi:pot    :   4036.05s CPU    413.97s WALL (   14564 calls)
     h_psi:calbec :   1018.80s CPU    105.70s WALL (   14564 calls)
     vloc_psi     :   2205.83s CPU    225.98s WALL (   14564 calls)
     add_vuspsi   :    805.74s CPU     81.81s WALL (   14564 calls)

     General routines
     calbec       :   1390.16s CPU    143.80s WALL (   18854 calls)
     fft          :      1.32s CPU      0.16s WALL (      80 calls)
     fftw         :   2215.38s CPU    227.34s WALL (  280104 calls)
 
     Parallel routines
 
     PWSCF        :     2h18m CPU        0h14m WALL

 
   This run was terminated on:  17:14:52  24Jan2019            

=------------------------------------------------------------------------------=
   JOB DONE.
=------------------------------------------------------------------------------=
