
     Program PWSCF v.6.2 (svn rev. 14038) starts on 30Jan2019 at 19: 9: 0 

     This program is part of the open-source Quantum ESPRESSO suite
     for quantum simulation of materials; please cite
         "P. Giannozzi et al., J. Phys.:Condens. Matter 21 395502 (2009);
         "P. Giannozzi et al., J. Phys.:Condens. Matter 29 465901 (2017);
          URL http://www.quantum-espresso.org", 
     in publications or presentations arising from this work. More details at
     http://www.quantum-espresso.org/quote

     Parallel version (MPI), running on     1 processors

     MPI processes distributed on     1 nodes
     Reading input from ./Alkpoint18.in
Warning: card &IONS ignored
Warning: card / ignored
Warning: card &CELL ignored
Warning: card / ignored

     Current dimensions of program PWSCF are:
     Max number of different atomic species (ntypx) = 10
     Max number of k-points (npk) =  40000
     Max angular momentum in pseudopotentials (lmaxx) =  3
     Message from routine iosys:
     minimal I/O required, wf_collect reset to FALSE

     Subspace diagonalization in iterative solution of the eigenvalue problem:
     a serial algorithm will be used

 
     G-vector sticks info
     --------------------
     sticks:   dense  smooth     PW     G-vecs:    dense   smooth      PW
     Sum         283     283    129                 3103     3103     887
 


     bravais-lattice index     =            0
     lattice parameter (alat)  =       5.2705  a.u.
     unit-cell volume          =     112.7033 (a.u.)^3
     number of atoms/cell      =            1
     number of atomic types    =            1
     number of electrons       =         3.00
     number of Kohn-Sham states=            6
     kinetic-energy cutoff     =      35.0000  Ry
     charge density cutoff     =     140.0000  Ry
     convergence threshold     =      1.0E-06
     mixing beta               =       0.7000
     number of iterations used =            8  plain     mixing
     Exchange-correlation      = SLA  PW   PBE  PBE ( 1  4  3  4 0 0)

     celldm(1)=   5.270512  celldm(2)=   0.000000  celldm(3)=   0.000000
     celldm(4)=   0.000000  celldm(5)=   0.000000  celldm(6)=   0.000000

     crystal axes: (cart. coord. in units of alat)
               a(1) = (   0.577350   0.577350   0.577350 )  
               a(2) = (   0.577350  -0.577350  -0.577350 )  
               a(3) = (  -0.577350   0.577350  -0.577350 )  

     reciprocal axes: (cart. coord. in units 2 pi/alat)
               b(1) = (  0.866025  0.866025  0.000000 )  
               b(2) = (  0.866025  0.000000 -0.866025 )  
               b(3) = (  0.000000  0.866025 -0.866025 )  


     PseudoPot. # 1 for Al read from file:
     ./al_pbe_v1.uspp.F.UPF
     MD5 check sum: 0a6289f5291fc8f409219462bc851e1f
     Pseudo is Ultrasoft + core correction, Zval =  3.0
     Generated by new atomic code, or converted to UPF format
     Using radial grid of  893 points,  3 beta functions with: 
                l(1) =   0
                l(2) =   1
                l(3) =   2
     Q(r) pseudized with  8 coefficients,  rinner =    0.900   0.900   0.900
                                                       0.900   0.900

     atomic species   valence    mass     pseudopotential
        Al             3.00    26.98150     Al( 1.00)

     48 Sym. Ops., with inversion, found


                                    s                        frac. trans.

      isym =  1     identity                                     

 cryst.   s( 1) = (     1          0          0      )
                  (     0          1          0      )
                  (     0          0          1      )

 cart.    s( 1) = (  1.0000000  0.0000000  0.0000000 )
                  (  0.0000000  1.0000000  0.0000000 )
                  (  0.0000000  0.0000000  1.0000000 )


      isym =  2     180 deg rotation - cart. axis [0,0,1]        

 cryst.   s( 2) = (    -1         -1         -1      )
                  (     0          0          1      )
                  (     0          1          0      )

 cart.    s( 2) = ( -1.0000000  0.0000000  0.0000000 )
                  (  0.0000000 -1.0000000  0.0000000 )
                  (  0.0000000  0.0000000  1.0000000 )


      isym =  3     180 deg rotation - cart. axis [0,1,0]        

 cryst.   s( 3) = (     0          0          1      )
                  (    -1         -1         -1      )
                  (     1          0          0      )

 cart.    s( 3) = ( -1.0000000  0.0000000  0.0000000 )
                  (  0.0000000  1.0000000  0.0000000 )
                  (  0.0000000  0.0000000 -1.0000000 )


      isym =  4     180 deg rotation - cart. axis [1,0,0]        

 cryst.   s( 4) = (     0          1          0      )
                  (     1          0          0      )
                  (    -1         -1         -1      )

 cart.    s( 4) = (  1.0000000  0.0000000  0.0000000 )
                  (  0.0000000 -1.0000000  0.0000000 )
                  (  0.0000000  0.0000000 -1.0000000 )


      isym =  5     180 deg rotation - cart. axis [1,1,0]        

 cryst.   s( 5) = (     1          1          1      )
                  (     0         -1          0      )
                  (     0          0         -1      )

 cart.    s( 5) = (  0.0000000  1.0000000  0.0000000 )
                  (  1.0000000  0.0000000  0.0000000 )
                  (  0.0000000  0.0000000 -1.0000000 )


      isym =  6     180 deg rotation - cart. axis [1,-1,0]       

 cryst.   s( 6) = (    -1          0          0      )
                  (     0          0         -1      )
                  (     0         -1          0      )

 cart.    s( 6) = (  0.0000000 -1.0000000  0.0000000 )
                  ( -1.0000000  0.0000000  0.0000000 )
                  (  0.0000000  0.0000000 -1.0000000 )


      isym =  7      90 deg rotation - cart. axis [0,0,-1]       

 cryst.   s( 7) = (     0          0         -1      )
                  (    -1          0          0      )
                  (     1          1          1      )

 cart.    s( 7) = (  0.0000000  1.0000000  0.0000000 )
                  ( -1.0000000  0.0000000  0.0000000 )
                  (  0.0000000  0.0000000  1.0000000 )


      isym =  8      90 deg rotation - cart. axis [0,0,1]        

 cryst.   s( 8) = (     0         -1          0      )
                  (     1          1          1      )
                  (    -1          0          0      )

 cart.    s( 8) = (  0.0000000 -1.0000000  0.0000000 )
                  (  1.0000000  0.0000000  0.0000000 )
                  (  0.0000000  0.0000000  1.0000000 )


      isym =  9     180 deg rotation - cart. axis [1,0,1]        

 cryst.   s( 9) = (     0          0         -1      )
                  (     0         -1          0      )
                  (    -1          0          0      )

 cart.    s( 9) = (  0.0000000  0.0000000  1.0000000 )
                  (  0.0000000 -1.0000000  0.0000000 )
                  (  1.0000000  0.0000000  0.0000000 )


      isym = 10     180 deg rotation - cart. axis [-1,0,1]       

 cryst.   s(10) = (    -1          0          0      )
                  (     1          1          1      )
                  (     0          0         -1      )

 cart.    s(10) = (  0.0000000  0.0000000 -1.0000000 )
                  (  0.0000000 -1.0000000  0.0000000 )
                  ( -1.0000000  0.0000000  0.0000000 )


      isym = 11      90 deg rotation - cart. axis [0,1,0]        

 cryst.   s(11) = (     1          1          1      )
                  (    -1          0          0      )
                  (     0         -1          0      )

 cart.    s(11) = (  0.0000000  0.0000000  1.0000000 )
                  (  0.0000000  1.0000000  0.0000000 )
                  ( -1.0000000  0.0000000  0.0000000 )


      isym = 12      90 deg rotation - cart. axis [0,-1,0]       

 cryst.   s(12) = (     0         -1          0      )
                  (     0          0         -1      )
                  (     1          1          1      )

 cart.    s(12) = (  0.0000000  0.0000000 -1.0000000 )
                  (  0.0000000  1.0000000  0.0000000 )
                  (  1.0000000  0.0000000  0.0000000 )


      isym = 13     180 deg rotation - cart. axis [0,1,1]        

 cryst.   s(13) = (     0         -1          0      )
                  (    -1          0          0      )
                  (     0          0         -1      )

 cart.    s(13) = ( -1.0000000  0.0000000  0.0000000 )
                  (  0.0000000  0.0000000  1.0000000 )
                  (  0.0000000  1.0000000  0.0000000 )


      isym = 14     180 deg rotation - cart. axis [0,1,-1]       

 cryst.   s(14) = (    -1          0          0      )
                  (     0         -1          0      )
                  (     1          1          1      )

 cart.    s(14) = ( -1.0000000  0.0000000  0.0000000 )
                  (  0.0000000  0.0000000 -1.0000000 )
                  (  0.0000000 -1.0000000  0.0000000 )


      isym = 15      90 deg rotation - cart. axis [-1,0,0]       

 cryst.   s(15) = (     1          1          1      )
                  (     0          0         -1      )
                  (    -1          0          0      )

 cart.    s(15) = (  1.0000000  0.0000000  0.0000000 )
                  (  0.0000000  0.0000000  1.0000000 )
                  (  0.0000000 -1.0000000  0.0000000 )


      isym = 16      90 deg rotation - cart. axis [1,0,0]        

 cryst.   s(16) = (     0          0         -1      )
                  (     1          1          1      )
                  (     0         -1          0      )

 cart.    s(16) = (  1.0000000  0.0000000  0.0000000 )
                  (  0.0000000  0.0000000 -1.0000000 )
                  (  0.0000000  1.0000000  0.0000000 )


      isym = 17     120 deg rotation - cart. axis [-1,-1,-1]     

 cryst.   s(17) = (     1          0          0      )
                  (    -1         -1         -1      )
                  (     0          1          0      )

 cart.    s(17) = (  0.0000000  1.0000000  0.0000000 )
                  (  0.0000000  0.0000000  1.0000000 )
                  (  1.0000000  0.0000000  0.0000000 )


      isym = 18     120 deg rotation - cart. axis [-1,1,1]       

 cryst.   s(18) = (     0          0          1      )
                  (     0          1          0      )
                  (    -1         -1         -1      )

 cart.    s(18) = (  0.0000000 -1.0000000  0.0000000 )
                  (  0.0000000  0.0000000  1.0000000 )
                  ( -1.0000000  0.0000000  0.0000000 )


      isym = 19     120 deg rotation - cart. axis [1,1,-1]       

 cryst.   s(19) = (     0          1          0      )
                  (     0          0          1      )
                  (     1          0          0      )

 cart.    s(19) = (  0.0000000  1.0000000  0.0000000 )
                  (  0.0000000  0.0000000 -1.0000000 )
                  ( -1.0000000  0.0000000  0.0000000 )


      isym = 20     120 deg rotation - cart. axis [1,-1,1]       

 cryst.   s(20) = (    -1         -1         -1      )
                  (     1          0          0      )
                  (     0          0          1      )

 cart.    s(20) = (  0.0000000 -1.0000000  0.0000000 )
                  (  0.0000000  0.0000000 -1.0000000 )
                  (  1.0000000  0.0000000  0.0000000 )


      isym = 21     120 deg rotation - cart. axis [1,1,1]        

 cryst.   s(21) = (     1          0          0      )
                  (     0          0          1      )
                  (    -1         -1         -1      )

 cart.    s(21) = (  0.0000000  0.0000000  1.0000000 )
                  (  1.0000000  0.0000000  0.0000000 )
                  (  0.0000000  1.0000000  0.0000000 )


      isym = 22     120 deg rotation - cart. axis [-1,1,-1]      

 cryst.   s(22) = (     0          1          0      )
                  (    -1         -1         -1      )
                  (     0          0          1      )

 cart.    s(22) = (  0.0000000  0.0000000  1.0000000 )
                  ( -1.0000000  0.0000000  0.0000000 )
                  (  0.0000000 -1.0000000  0.0000000 )


      isym = 23     120 deg rotation - cart. axis [1,-1,-1]      

 cryst.   s(23) = (    -1         -1         -1      )
                  (     0          1          0      )
                  (     1          0          0      )

 cart.    s(23) = (  0.0000000  0.0000000 -1.0000000 )
                  ( -1.0000000  0.0000000  0.0000000 )
                  (  0.0000000  1.0000000  0.0000000 )


      isym = 24     120 deg rotation - cart. axis [-1,-1,1]      

 cryst.   s(24) = (     0          0          1      )
                  (     1          0          0      )
                  (     0          1          0      )

 cart.    s(24) = (  0.0000000  0.0000000 -1.0000000 )
                  (  1.0000000  0.0000000  0.0000000 )
                  (  0.0000000 -1.0000000  0.0000000 )


      isym = 25     inversion                                    

 cryst.   s(25) = (    -1          0          0      )
                  (     0         -1          0      )
                  (     0          0         -1      )

 cart.    s(25) = ( -1.0000000  0.0000000  0.0000000 )
                  (  0.0000000 -1.0000000  0.0000000 )
                  (  0.0000000  0.0000000 -1.0000000 )


      isym = 26     inv. 180 deg rotation - cart. axis [0,0,1]   

 cryst.   s(26) = (     1          1          1      )
                  (     0          0         -1      )
                  (     0         -1          0      )

 cart.    s(26) = (  1.0000000  0.0000000  0.0000000 )
                  (  0.0000000  1.0000000  0.0000000 )
                  (  0.0000000  0.0000000 -1.0000000 )


      isym = 27     inv. 180 deg rotation - cart. axis [0,1,0]   

 cryst.   s(27) = (     0          0         -1      )
                  (     1          1          1      )
                  (    -1          0          0      )

 cart.    s(27) = (  1.0000000  0.0000000  0.0000000 )
                  (  0.0000000 -1.0000000  0.0000000 )
                  (  0.0000000  0.0000000  1.0000000 )


      isym = 28     inv. 180 deg rotation - cart. axis [1,0,0]   

 cryst.   s(28) = (     0         -1          0      )
                  (    -1          0          0      )
                  (     1          1          1      )

 cart.    s(28) = ( -1.0000000  0.0000000  0.0000000 )
                  (  0.0000000  1.0000000  0.0000000 )
                  (  0.0000000  0.0000000  1.0000000 )


      isym = 29     inv. 180 deg rotation - cart. axis [1,1,0]   

 cryst.   s(29) = (    -1         -1         -1      )
                  (     0          1          0      )
                  (     0          0          1      )

 cart.    s(29) = (  0.0000000 -1.0000000  0.0000000 )
                  ( -1.0000000  0.0000000  0.0000000 )
                  (  0.0000000  0.0000000  1.0000000 )


      isym = 30     inv. 180 deg rotation - cart. axis [1,-1,0]  

 cryst.   s(30) = (     1          0          0      )
                  (     0          0          1      )
                  (     0          1          0      )

 cart.    s(30) = (  0.0000000  1.0000000  0.0000000 )
                  (  1.0000000  0.0000000  0.0000000 )
                  (  0.0000000  0.0000000  1.0000000 )


      isym = 31     inv.  90 deg rotation - cart. axis [0,0,-1]  

 cryst.   s(31) = (     0          0          1      )
                  (     1          0          0      )
                  (    -1         -1         -1      )

 cart.    s(31) = (  0.0000000 -1.0000000  0.0000000 )
                  (  1.0000000  0.0000000  0.0000000 )
                  (  0.0000000  0.0000000 -1.0000000 )


      isym = 32     inv.  90 deg rotation - cart. axis [0,0,1]   

 cryst.   s(32) = (     0          1          0      )
                  (    -1         -1         -1      )
                  (     1          0          0      )

 cart.    s(32) = (  0.0000000  1.0000000  0.0000000 )
                  ( -1.0000000  0.0000000  0.0000000 )
                  (  0.0000000  0.0000000 -1.0000000 )


      isym = 33     inv. 180 deg rotation - cart. axis [1,0,1]   

 cryst.   s(33) = (     0          0          1      )
                  (     0          1          0      )
                  (     1          0          0      )

 cart.    s(33) = (  0.0000000  0.0000000 -1.0000000 )
                  (  0.0000000  1.0000000  0.0000000 )
                  ( -1.0000000  0.0000000  0.0000000 )


      isym = 34     inv. 180 deg rotation - cart. axis [-1,0,1]  

 cryst.   s(34) = (     1          0          0      )
                  (    -1         -1         -1      )
                  (     0          0          1      )

 cart.    s(34) = (  0.0000000  0.0000000  1.0000000 )
                  (  0.0000000  1.0000000  0.0000000 )
                  (  1.0000000  0.0000000  0.0000000 )


      isym = 35     inv.  90 deg rotation - cart. axis [0,1,0]   

 cryst.   s(35) = (    -1         -1         -1      )
                  (     1          0          0      )
                  (     0          1          0      )

 cart.    s(35) = (  0.0000000  0.0000000 -1.0000000 )
                  (  0.0000000 -1.0000000  0.0000000 )
                  (  1.0000000  0.0000000  0.0000000 )


      isym = 36     inv.  90 deg rotation - cart. axis [0,-1,0]  

 cryst.   s(36) = (     0          1          0      )
                  (     0          0          1      )
                  (    -1         -1         -1      )

 cart.    s(36) = (  0.0000000  0.0000000  1.0000000 )
                  (  0.0000000 -1.0000000  0.0000000 )
                  ( -1.0000000  0.0000000  0.0000000 )


      isym = 37     inv. 180 deg rotation - cart. axis [0,1,1]   

 cryst.   s(37) = (     0          1          0      )
                  (     1          0          0      )
                  (     0          0          1      )

 cart.    s(37) = (  1.0000000  0.0000000  0.0000000 )
                  (  0.0000000  0.0000000 -1.0000000 )
                  (  0.0000000 -1.0000000  0.0000000 )


      isym = 38     inv. 180 deg rotation - cart. axis [0,1,-1]  

 cryst.   s(38) = (     1          0          0      )
                  (     0          1          0      )
                  (    -1         -1         -1      )

 cart.    s(38) = (  1.0000000  0.0000000  0.0000000 )
                  (  0.0000000  0.0000000  1.0000000 )
                  (  0.0000000  1.0000000  0.0000000 )


      isym = 39     inv.  90 deg rotation - cart. axis [-1,0,0]  

 cryst.   s(39) = (    -1         -1         -1      )
                  (     0          0          1      )
                  (     1          0          0      )

 cart.    s(39) = ( -1.0000000  0.0000000  0.0000000 )
                  (  0.0000000  0.0000000 -1.0000000 )
                  (  0.0000000  1.0000000  0.0000000 )


      isym = 40     inv.  90 deg rotation - cart. axis [1,0,0]   

 cryst.   s(40) = (     0          0          1      )
                  (    -1         -1         -1      )
                  (     0          1          0      )

 cart.    s(40) = ( -1.0000000  0.0000000  0.0000000 )
                  (  0.0000000  0.0000000  1.0000000 )
                  (  0.0000000 -1.0000000  0.0000000 )


      isym = 41     inv. 120 deg rotation - cart. axis [-1,-1,-1]

 cryst.   s(41) = (    -1          0          0      )
                  (     1          1          1      )
                  (     0         -1          0      )

 cart.    s(41) = (  0.0000000 -1.0000000  0.0000000 )
                  (  0.0000000  0.0000000 -1.0000000 )
                  ( -1.0000000  0.0000000  0.0000000 )


      isym = 42     inv. 120 deg rotation - cart. axis [-1,1,1]  

 cryst.   s(42) = (     0          0         -1      )
                  (     0         -1          0      )
                  (     1          1          1      )

 cart.    s(42) = (  0.0000000  1.0000000  0.0000000 )
                  (  0.0000000  0.0000000 -1.0000000 )
                  (  1.0000000  0.0000000  0.0000000 )


      isym = 43     inv. 120 deg rotation - cart. axis [1,1,-1]  

 cryst.   s(43) = (     0         -1          0      )
                  (     0          0         -1      )
                  (    -1          0          0      )

 cart.    s(43) = (  0.0000000 -1.0000000  0.0000000 )
                  (  0.0000000  0.0000000  1.0000000 )
                  (  1.0000000  0.0000000  0.0000000 )


      isym = 44     inv. 120 deg rotation - cart. axis [1,-1,1]  

 cryst.   s(44) = (     1          1          1      )
                  (    -1          0          0      )
                  (     0          0         -1      )

 cart.    s(44) = (  0.0000000  1.0000000  0.0000000 )
                  (  0.0000000  0.0000000  1.0000000 )
                  ( -1.0000000  0.0000000  0.0000000 )


      isym = 45     inv. 120 deg rotation - cart. axis [1,1,1]   

 cryst.   s(45) = (    -1          0          0      )
                  (     0          0         -1      )
                  (     1          1          1      )

 cart.    s(45) = (  0.0000000  0.0000000 -1.0000000 )
                  ( -1.0000000  0.0000000  0.0000000 )
                  (  0.0000000 -1.0000000  0.0000000 )


      isym = 46     inv. 120 deg rotation - cart. axis [-1,1,-1] 

 cryst.   s(46) = (     0         -1          0      )
                  (     1          1          1      )
                  (     0          0         -1      )

 cart.    s(46) = (  0.0000000  0.0000000 -1.0000000 )
                  (  1.0000000  0.0000000  0.0000000 )
                  (  0.0000000  1.0000000  0.0000000 )


      isym = 47     inv. 120 deg rotation - cart. axis [1,-1,-1] 

 cryst.   s(47) = (     1          1          1      )
                  (     0         -1          0      )
                  (    -1          0          0      )

 cart.    s(47) = (  0.0000000  0.0000000  1.0000000 )
                  (  1.0000000  0.0000000  0.0000000 )
                  (  0.0000000 -1.0000000  0.0000000 )


      isym = 48     inv. 120 deg rotation - cart. axis [-1,-1,1] 

 cryst.   s(48) = (     0          0         -1      )
                  (    -1          0          0      )
                  (     0         -1          0      )

 cart.    s(48) = (  0.0000000  0.0000000  1.0000000 )
                  ( -1.0000000  0.0000000  0.0000000 )
                  (  0.0000000  1.0000000  0.0000000 )


   Cartesian axes

     site n.     atom                  positions (alat units)
         1           Al  tau(   1) = (   0.0000000   0.0000000   0.0000000  )

   Crystallographic axes

     site n.     atom                  positions (cryst. coord.)
         1           Al  tau(   1) = (  0.0000000  0.0000000  0.0000000  )

     number of k points=   195  Marzari-Vanderbilt smearing, width (Ry)=  0.0100
                       cart. coord. in units 2pi/alat
        k(    1) = (   0.0000000   0.0000000   0.0000000), wk =   0.0003429
        k(    2) = (   0.0000000   0.0481125  -0.0481125), wk =   0.0041152
        k(    3) = (   0.0000000   0.0962250  -0.0962250), wk =   0.0041152
        k(    4) = (   0.0000000   0.1443376  -0.1443376), wk =   0.0041152
        k(    5) = (   0.0000000   0.1924501  -0.1924501), wk =   0.0041152
        k(    6) = (   0.0000000   0.2405626  -0.2405626), wk =   0.0041152
        k(    7) = (   0.0000000   0.2886751  -0.2886751), wk =   0.0041152
        k(    8) = (   0.0000000   0.3367877  -0.3367877), wk =   0.0041152
        k(    9) = (   0.0000000   0.3849002  -0.3849002), wk =   0.0041152
        k(   10) = (   0.0000000  -0.4330127   0.4330127), wk =   0.0020576
        k(   11) = (   0.0481125   0.0481125  -0.0962250), wk =   0.0082305
        k(   12) = (   0.0481125   0.0962250  -0.1443376), wk =   0.0164609
        k(   13) = (   0.0481125   0.1443376  -0.1924501), wk =   0.0164609
        k(   14) = (   0.0481125   0.1924501  -0.2405626), wk =   0.0164609
        k(   15) = (   0.0481125   0.2405626  -0.2886751), wk =   0.0164609
        k(   16) = (   0.0481125   0.2886751  -0.3367877), wk =   0.0164609
        k(   17) = (   0.0481125   0.3367877  -0.3849002), wk =   0.0164609
        k(   18) = (   0.0481125   0.3849002  -0.4330127), wk =   0.0164609
        k(   19) = (   0.0962250   0.0962250  -0.1924501), wk =   0.0082305
        k(   20) = (   0.0962250   0.1443376  -0.2405626), wk =   0.0164609
        k(   21) = (   0.0962250   0.1924501  -0.2886751), wk =   0.0164609
        k(   22) = (   0.0962250   0.2405626  -0.3367877), wk =   0.0164609
        k(   23) = (   0.0962250   0.2886751  -0.3849002), wk =   0.0164609
        k(   24) = (   0.0962250   0.3367877  -0.4330127), wk =   0.0164609
        k(   25) = (   0.0962250   0.3849002  -0.4811252), wk =   0.0082305
        k(   26) = (   0.1443376   0.1443376  -0.2886751), wk =   0.0082305
        k(   27) = (   0.1443376   0.1924501  -0.3367877), wk =   0.0164609
        k(   28) = (   0.1443376   0.2405626  -0.3849002), wk =   0.0164609
        k(   29) = (   0.1443376   0.2886751  -0.4330127), wk =   0.0164609
        k(   30) = (   0.1443376   0.3367877  -0.4811252), wk =   0.0164609
        k(   31) = (   0.1924501   0.1924501  -0.3849002), wk =   0.0082305
        k(   32) = (   0.1924501   0.2405626  -0.4330127), wk =   0.0164609
        k(   33) = (   0.1924501   0.2886751  -0.4811252), wk =   0.0164609
        k(   34) = (   0.1924501   0.3367877  -0.5292377), wk =   0.0082305
        k(   35) = (   0.2405626   0.2405626  -0.4811252), wk =   0.0082305
        k(   36) = (   0.2405626   0.2886751  -0.5292377), wk =   0.0164609
        k(   37) = (   0.2886751   0.2886751  -0.5773503), wk =   0.0027435
        k(   38) = (   0.0962250   0.0962250  -0.0962250), wk =   0.0027435
        k(   39) = (   0.0962250   0.1443376  -0.1443376), wk =   0.0082305
        k(   40) = (   0.0962250   0.1924501  -0.1924501), wk =   0.0082305
        k(   41) = (   0.0962250   0.2405626  -0.2405626), wk =   0.0082305
        k(   42) = (   0.0962250   0.2886751  -0.2886751), wk =   0.0082305
        k(   43) = (   0.0962250   0.3367877  -0.3367877), wk =   0.0082305
        k(   44) = (   0.0962250   0.3849002  -0.3849002), wk =   0.0082305
        k(   45) = (   0.0962250   0.4330127  -0.4330127), wk =   0.0041152
        k(   46) = (   0.0962250  -0.0000000   0.0000000), wk =   0.0020576
        k(   47) = (   0.1443376   0.1443376  -0.1924501), wk =   0.0082305
        k(   48) = (   0.1443376   0.1924501  -0.2405626), wk =   0.0164609
        k(   49) = (   0.1443376   0.2405626  -0.2886751), wk =   0.0164609
        k(   50) = (   0.1443376   0.2886751  -0.3367877), wk =   0.0164609
        k(   51) = (   0.1443376   0.3367877  -0.3849002), wk =   0.0164609
        k(   52) = (   0.1443376   0.3849002  -0.4330127), wk =   0.0164609
        k(   53) = (   0.1443376  -0.0481125   0.0000000), wk =   0.0082305
        k(   54) = (   0.1924501   0.1924501  -0.2886751), wk =   0.0082305
        k(   55) = (   0.1924501   0.2405626  -0.3367877), wk =   0.0164609
        k(   56) = (   0.1924501   0.2886751  -0.3849002), wk =   0.0164609
        k(   57) = (   0.1924501   0.3367877  -0.4330127), wk =   0.0164609
        k(   58) = (   0.1924501   0.3849002  -0.4811252), wk =   0.0082305
        k(   59) = (   0.1924501  -0.0962250   0.0000000), wk =   0.0082305
        k(   60) = (   0.1924501  -0.0481125  -0.0481125), wk =   0.0082305
        k(   61) = (   0.2405626   0.2405626  -0.3849002), wk =   0.0082305
        k(   62) = (   0.2405626   0.2886751  -0.4330127), wk =   0.0164609
        k(   63) = (   0.2405626   0.3367877  -0.4811252), wk =   0.0164609
        k(   64) = (   0.2405626  -0.1443376   0.0000000), wk =   0.0082305
        k(   65) = (   0.2405626  -0.0962250  -0.0481125), wk =   0.0164609
        k(   66) = (   0.2886751   0.2886751  -0.4811252), wk =   0.0082305
        k(   67) = (   0.2886751   0.3367877  -0.5292377), wk =   0.0082305
        k(   68) = (   0.2886751  -0.1924501   0.0000000), wk =   0.0082305
        k(   69) = (   0.2886751  -0.1443376  -0.0481125), wk =   0.0164609
        k(   70) = (   0.2886751  -0.0962250  -0.0962250), wk =   0.0082305
        k(   71) = (   0.3367877  -0.2405626   0.0000000), wk =   0.0082305
        k(   72) = (   0.3367877  -0.1924501  -0.0481125), wk =   0.0164609
        k(   73) = (   0.3367877  -0.1443376  -0.0962250), wk =   0.0164609
        k(   74) = (   0.3849002  -0.2886751  -0.0000000), wk =   0.0082305
        k(   75) = (   0.3849002  -0.2405626  -0.0481125), wk =   0.0164609
        k(   76) = (   0.3849002  -0.1924501  -0.0962250), wk =   0.0164609
        k(   77) = (   0.3849002  -0.1443376  -0.1443376), wk =   0.0082305
        k(   78) = (   0.4330127  -0.3367877   0.0000000), wk =   0.0082305
        k(   79) = (   0.4330127  -0.2886751  -0.0481125), wk =   0.0164609
        k(   80) = (   0.4330127  -0.2405626  -0.0962250), wk =   0.0164609
        k(   81) = (   0.4330127  -0.1924501  -0.1443376), wk =   0.0164609
        k(   82) = (  -0.3849002  -0.3849002   0.8660254), wk =   0.0041152
        k(   83) = (  -0.3849002  -0.3367877   0.8179129), wk =   0.0164609
        k(   84) = (  -0.3849002  -0.2886751   0.7698004), wk =   0.0164609
        k(   85) = (  -0.3849002  -0.2405626   0.7216878), wk =   0.0164609
        k(   86) = (  -0.3849002  -0.1924501   0.6735753), wk =   0.0082305
        k(   87) = (  -0.3367877  -0.3367877   0.7698004), wk =   0.0082305
        k(   88) = (  -0.3367877  -0.2886751   0.7216878), wk =   0.0164609
        k(   89) = (  -0.3367877  -0.2405626   0.6735753), wk =   0.0164609
        k(   90) = (  -0.2886751  -0.2886751   0.6735753), wk =   0.0082305
        k(   91) = (  -0.2886751  -0.2405626   0.6254628), wk =   0.0082305
        k(   92) = (   0.1924501   0.1924501  -0.1924501), wk =   0.0027435
        k(   93) = (   0.1924501   0.2405626  -0.2405626), wk =   0.0082305
        k(   94) = (   0.1924501   0.2886751  -0.2886751), wk =   0.0082305
        k(   95) = (   0.1924501   0.3367877  -0.3367877), wk =   0.0082305
        k(   96) = (   0.1924501   0.3849002  -0.3849002), wk =   0.0082305
        k(   97) = (   0.1924501   0.4330127  -0.4330127), wk =   0.0041152
        k(   98) = (   0.1924501  -0.0000000   0.0000000), wk =   0.0020576
        k(   99) = (   0.2405626   0.2405626  -0.2886751), wk =   0.0082305
        k(  100) = (   0.2405626   0.2886751  -0.3367877), wk =   0.0164609
        k(  101) = (   0.2405626   0.3367877  -0.3849002), wk =   0.0164609
        k(  102) = (   0.2405626   0.3849002  -0.4330127), wk =   0.0164609
        k(  103) = (   0.2405626  -0.0481125   0.0000000), wk =   0.0082305
        k(  104) = (   0.2886751   0.2886751  -0.3849002), wk =   0.0082305
        k(  105) = (   0.2886751   0.3367877  -0.4330127), wk =   0.0164609
        k(  106) = (   0.2886751   0.3849002  -0.4811252), wk =   0.0082305
        k(  107) = (   0.2886751  -0.0962250   0.0000000), wk =   0.0082305
        k(  108) = (   0.2886751  -0.0481125  -0.0481125), wk =   0.0082305
        k(  109) = (   0.3367877   0.3367877  -0.4811252), wk =   0.0082305
        k(  110) = (   0.3367877  -0.1443376   0.0000000), wk =   0.0082305
        k(  111) = (   0.3367877  -0.0962250  -0.0481125), wk =   0.0164609
        k(  112) = (   0.3849002  -0.1924501   0.0000000), wk =   0.0082305
        k(  113) = (   0.3849002  -0.1443376  -0.0481125), wk =   0.0164609
        k(  114) = (   0.3849002  -0.0962250  -0.0962250), wk =   0.0082305
        k(  115) = (   0.4330127  -0.2405626  -0.0000000), wk =   0.0082305
        k(  116) = (   0.4330127  -0.1924501  -0.0481125), wk =   0.0164609
        k(  117) = (   0.4330127  -0.1443376  -0.0962250), wk =   0.0164609
        k(  118) = (   0.4811252  -0.2886751   0.0000000), wk =   0.0082305
        k(  119) = (   0.4811252  -0.2405626  -0.0481125), wk =   0.0164609
        k(  120) = (   0.4811252  -0.1924501  -0.0962250), wk =   0.0164609
        k(  121) = (   0.4811252  -0.1443376  -0.1443376), wk =   0.0082305
        k(  122) = (  -0.3367877  -0.3367877   0.8660254), wk =   0.0041152
        k(  123) = (  -0.3367877  -0.2886751   0.8179129), wk =   0.0164609
        k(  124) = (  -0.3367877  -0.2405626   0.7698004), wk =   0.0164609
        k(  125) = (  -0.3367877  -0.1924501   0.7216878), wk =   0.0164609
        k(  126) = (  -0.2886751  -0.2886751   0.7698004), wk =   0.0082305
        k(  127) = (  -0.2886751  -0.2405626   0.7216878), wk =   0.0164609
        k(  128) = (  -0.2886751  -0.1924501   0.6735753), wk =   0.0082305
        k(  129) = (  -0.2405626  -0.2405626   0.6735753), wk =   0.0082305
        k(  130) = (   0.2886751   0.2886751  -0.2886751), wk =   0.0027435
        k(  131) = (   0.2886751   0.3367877  -0.3367877), wk =   0.0082305
        k(  132) = (   0.2886751   0.3849002  -0.3849002), wk =   0.0082305
        k(  133) = (   0.2886751   0.4330127  -0.4330127), wk =   0.0041152
        k(  134) = (   0.2886751   0.0000000   0.0000000), wk =   0.0020576
        k(  135) = (   0.3367877   0.3367877  -0.3849002), wk =   0.0082305
        k(  136) = (   0.3367877   0.3849002  -0.4330127), wk =   0.0164609
        k(  137) = (   0.3367877  -0.0481125   0.0000000), wk =   0.0082305
        k(  138) = (   0.3849002   0.3849002  -0.4811252), wk =   0.0027435
        k(  139) = (   0.3849002  -0.0962250   0.0000000), wk =   0.0082305
        k(  140) = (   0.3849002  -0.0481125  -0.0481125), wk =   0.0082305
        k(  141) = (   0.4330127  -0.1443376   0.0000000), wk =   0.0082305
        k(  142) = (   0.4330127  -0.0962250  -0.0481125), wk =   0.0164609
        k(  143) = (   0.4811252  -0.1924501  -0.0000000), wk =   0.0082305
        k(  144) = (   0.4811252  -0.1443376  -0.0481125), wk =   0.0164609
        k(  145) = (   0.4811252  -0.0962250  -0.0962250), wk =   0.0082305
        k(  146) = (   0.5292377  -0.2405626   0.0000000), wk =   0.0082305
        k(  147) = (   0.5292377  -0.1924501  -0.0481125), wk =   0.0164609
        k(  148) = (   0.5292377  -0.1443376  -0.0962250), wk =   0.0164609
        k(  149) = (  -0.2886751  -0.2886751   0.8660254), wk =   0.0041152
        k(  150) = (  -0.2886751  -0.2405626   0.8179129), wk =   0.0164609
        k(  151) = (  -0.2886751  -0.1924501   0.7698004), wk =   0.0164609
        k(  152) = (  -0.2886751  -0.1443376   0.7216878), wk =   0.0082305
        k(  153) = (  -0.2405626  -0.2405626   0.7698004), wk =   0.0082305
        k(  154) = (  -0.2405626  -0.1924501   0.7216878), wk =   0.0164609
        k(  155) = (  -0.1924501  -0.1924501   0.6735753), wk =   0.0027435
        k(  156) = (   0.3849002   0.3849002  -0.3849002), wk =   0.0027435
        k(  157) = (   0.3849002   0.4330127  -0.4330127), wk =   0.0041152
        k(  158) = (   0.3849002   0.0000000   0.0000000), wk =   0.0020576
        k(  159) = (   0.4330127  -0.0481125   0.0000000), wk =   0.0082305
        k(  160) = (   0.4811252  -0.0962250   0.0000000), wk =   0.0082305
        k(  161) = (   0.4811252  -0.0481125  -0.0481125), wk =   0.0082305
        k(  162) = (   0.5292377  -0.1443376  -0.0000000), wk =   0.0082305
        k(  163) = (   0.5292377  -0.0962250  -0.0481125), wk =   0.0164609
        k(  164) = (   0.5773503  -0.1924501   0.0000000), wk =   0.0082305
        k(  165) = (   0.5773503  -0.1443376  -0.0481125), wk =   0.0164609
        k(  166) = (   0.5773503  -0.0962250  -0.0962250), wk =   0.0082305
        k(  167) = (  -0.2405626  -0.2405626   0.8660254), wk =   0.0041152
        k(  168) = (  -0.2405626  -0.1924501   0.8179129), wk =   0.0164609
        k(  169) = (  -0.2405626  -0.1443376   0.7698004), wk =   0.0164609
        k(  170) = (  -0.1924501  -0.1924501   0.7698004), wk =   0.0082305
        k(  171) = (  -0.1924501  -0.1443376   0.7216878), wk =   0.0082305
        k(  172) = (   0.4811252   0.0000000   0.0000000), wk =   0.0020576
        k(  173) = (   0.5292377  -0.0481125   0.0000000), wk =   0.0082305
        k(  174) = (   0.5773503  -0.0962250  -0.0000000), wk =   0.0082305
        k(  175) = (   0.5773503  -0.0481125  -0.0481125), wk =   0.0082305
        k(  176) = (   0.6254628  -0.1443376   0.0000000), wk =   0.0082305
        k(  177) = (   0.6254628  -0.0962250  -0.0481125), wk =   0.0164609
        k(  178) = (  -0.1924501  -0.1924501   0.8660254), wk =   0.0041152
        k(  179) = (  -0.1924501  -0.1443376   0.8179129), wk =   0.0164609
        k(  180) = (  -0.1924501  -0.0962250   0.7698004), wk =   0.0082305
        k(  181) = (  -0.1443376  -0.1443376   0.7698004), wk =   0.0082305
        k(  182) = (   0.5773503  -0.0000000   0.0000000), wk =   0.0020576
        k(  183) = (   0.6254628  -0.0481125  -0.0000000), wk =   0.0082305
        k(  184) = (   0.6735753  -0.0962250   0.0000000), wk =   0.0082305
        k(  185) = (   0.6735753  -0.0481125  -0.0481125), wk =   0.0082305
        k(  186) = (  -0.1443376  -0.1443376   0.8660254), wk =   0.0041152
        k(  187) = (  -0.1443376  -0.0962250   0.8179129), wk =   0.0164609
        k(  188) = (  -0.0962250  -0.0962250   0.7698004), wk =   0.0027435
        k(  189) = (   0.6735753   0.0000000  -0.0000000), wk =   0.0020576
        k(  190) = (   0.7216878  -0.0481125   0.0000000), wk =   0.0082305
        k(  191) = (  -0.0962250  -0.0962250   0.8660254), wk =   0.0041152
        k(  192) = (  -0.0962250  -0.0481125   0.8179129), wk =   0.0082305
        k(  193) = (   0.7698004   0.0000000   0.0000000), wk =   0.0020576
        k(  194) = (  -0.0481125  -0.0481125   0.8660254), wk =   0.0041152
        k(  195) = (  -0.8660254  -0.8660254   0.8660254), wk =   0.0003429

                       cryst. coord.
        k(    1) = (   0.0000000   0.0000000   0.0000000), wk =   0.0003429
        k(    2) = (   0.0000000   0.0000000   0.0555556), wk =   0.0041152
        k(    3) = (   0.0000000   0.0000000   0.1111111), wk =   0.0041152
        k(    4) = (   0.0000000   0.0000000   0.1666667), wk =   0.0041152
        k(    5) = (   0.0000000   0.0000000   0.2222222), wk =   0.0041152
        k(    6) = (   0.0000000   0.0000000   0.2777778), wk =   0.0041152
        k(    7) = (   0.0000000   0.0000000   0.3333333), wk =   0.0041152
        k(    8) = (   0.0000000   0.0000000   0.3888889), wk =   0.0041152
        k(    9) = (   0.0000000   0.0000000   0.4444444), wk =   0.0041152
        k(   10) = (   0.0000000   0.0000000  -0.5000000), wk =   0.0020576
        k(   11) = (   0.0000000   0.0555556   0.0555556), wk =   0.0082305
        k(   12) = (   0.0000000   0.0555556   0.1111111), wk =   0.0164609
        k(   13) = (   0.0000000   0.0555556   0.1666667), wk =   0.0164609
        k(   14) = (   0.0000000   0.0555556   0.2222222), wk =   0.0164609
        k(   15) = (   0.0000000   0.0555556   0.2777778), wk =   0.0164609
        k(   16) = (   0.0000000   0.0555556   0.3333333), wk =   0.0164609
        k(   17) = (   0.0000000   0.0555556   0.3888889), wk =   0.0164609
        k(   18) = (   0.0000000   0.0555556   0.4444444), wk =   0.0164609
        k(   19) = (   0.0000000   0.1111111   0.1111111), wk =   0.0082305
        k(   20) = (   0.0000000   0.1111111   0.1666667), wk =   0.0164609
        k(   21) = (   0.0000000   0.1111111   0.2222222), wk =   0.0164609
        k(   22) = (  -0.0000000   0.1111111   0.2777778), wk =   0.0164609
        k(   23) = (   0.0000000   0.1111111   0.3333333), wk =   0.0164609
        k(   24) = (  -0.0000000   0.1111111   0.3888889), wk =   0.0164609
        k(   25) = (   0.0000000   0.1111111   0.4444444), wk =   0.0082305
        k(   26) = (   0.0000000   0.1666667   0.1666667), wk =   0.0082305
        k(   27) = (   0.0000000   0.1666667   0.2222222), wk =   0.0164609
        k(   28) = (   0.0000000   0.1666667   0.2777778), wk =   0.0164609
        k(   29) = (   0.0000000   0.1666667   0.3333333), wk =   0.0164609
        k(   30) = (   0.0000000   0.1666667   0.3888889), wk =   0.0164609
        k(   31) = (   0.0000000   0.2222222   0.2222222), wk =   0.0082305
        k(   32) = (   0.0000000   0.2222222   0.2777778), wk =   0.0164609
        k(   33) = (   0.0000000   0.2222222   0.3333333), wk =   0.0164609
        k(   34) = (   0.0000000   0.2222222   0.3888889), wk =   0.0082305
        k(   35) = (   0.0000000   0.2777778   0.2777778), wk =   0.0082305
        k(   36) = (   0.0000000   0.2777778   0.3333333), wk =   0.0164609
        k(   37) = (   0.0000000   0.3333333   0.3333333), wk =   0.0027435
        k(   38) = (   0.0555556   0.0555556   0.0555556), wk =   0.0027435
        k(   39) = (   0.0555556   0.0555556   0.1111111), wk =   0.0082305
        k(   40) = (   0.0555556   0.0555556   0.1666667), wk =   0.0082305
        k(   41) = (   0.0555556   0.0555556   0.2222222), wk =   0.0082305
        k(   42) = (   0.0555556   0.0555556   0.2777778), wk =   0.0082305
        k(   43) = (   0.0555556   0.0555556   0.3333333), wk =   0.0082305
        k(   44) = (   0.0555556   0.0555556   0.3888889), wk =   0.0082305
        k(   45) = (   0.0555556   0.0555556   0.4444444), wk =   0.0041152
        k(   46) = (   0.0555556   0.0555556  -0.0555556), wk =   0.0020576
        k(   47) = (   0.0555556   0.1111111   0.1111111), wk =   0.0082305
        k(   48) = (   0.0555556   0.1111111   0.1666667), wk =   0.0164609
        k(   49) = (   0.0555556   0.1111111   0.2222222), wk =   0.0164609
        k(   50) = (   0.0555556   0.1111111   0.2777778), wk =   0.0164609
        k(   51) = (   0.0555556   0.1111111   0.3333333), wk =   0.0164609
        k(   52) = (   0.0555556   0.1111111   0.3888889), wk =   0.0164609
        k(   53) = (   0.0555556   0.1111111  -0.1111111), wk =   0.0082305
        k(   54) = (   0.0555556   0.1666667   0.1666667), wk =   0.0082305
        k(   55) = (   0.0555556   0.1666667   0.2222222), wk =   0.0164609
        k(   56) = (   0.0555556   0.1666667   0.2777778), wk =   0.0164609
        k(   57) = (   0.0555556   0.1666667   0.3333333), wk =   0.0164609
        k(   58) = (   0.0555556   0.1666667   0.3888889), wk =   0.0082305
        k(   59) = (   0.0555556   0.1666667  -0.1666667), wk =   0.0082305
        k(   60) = (   0.0555556   0.1666667  -0.1111111), wk =   0.0082305
        k(   61) = (   0.0555556   0.2222222   0.2222222), wk =   0.0082305
        k(   62) = (   0.0555556   0.2222222   0.2777778), wk =   0.0164609
        k(   63) = (   0.0555556   0.2222222   0.3333333), wk =   0.0164609
        k(   64) = (   0.0555556   0.2222222  -0.2222222), wk =   0.0082305
        k(   65) = (   0.0555556   0.2222222  -0.1666667), wk =   0.0164609
        k(   66) = (   0.0555556   0.2777778   0.2777778), wk =   0.0082305
        k(   67) = (   0.0555556   0.2777778   0.3333333), wk =   0.0082305
        k(   68) = (   0.0555556   0.2777778  -0.2777778), wk =   0.0082305
        k(   69) = (   0.0555556   0.2777778  -0.2222222), wk =   0.0164609
        k(   70) = (   0.0555556   0.2777778  -0.1666667), wk =   0.0082305
        k(   71) = (   0.0555556   0.3333333  -0.3333333), wk =   0.0082305
        k(   72) = (   0.0555556   0.3333333  -0.2777778), wk =   0.0164609
        k(   73) = (   0.0555556   0.3333333  -0.2222222), wk =   0.0164609
        k(   74) = (   0.0555556   0.3888889  -0.3888889), wk =   0.0082305
        k(   75) = (   0.0555556   0.3888889  -0.3333333), wk =   0.0164609
        k(   76) = (   0.0555556   0.3888889  -0.2777778), wk =   0.0164609
        k(   77) = (   0.0555556   0.3888889  -0.2222222), wk =   0.0082305
        k(   78) = (   0.0555556   0.4444444  -0.4444444), wk =   0.0082305
        k(   79) = (   0.0555556   0.4444444  -0.3888889), wk =   0.0164609
        k(   80) = (   0.0555556   0.4444444  -0.3333333), wk =   0.0164609
        k(   81) = (   0.0555556   0.4444444  -0.2777778), wk =   0.0164609
        k(   82) = (   0.0555556  -0.5000000  -0.5000000), wk =   0.0041152
        k(   83) = (   0.0555556  -0.5000000  -0.4444444), wk =   0.0164609
        k(   84) = (   0.0555556  -0.5000000  -0.3888889), wk =   0.0164609
        k(   85) = (   0.0555556  -0.5000000  -0.3333333), wk =   0.0164609
        k(   86) = (   0.0555556  -0.5000000  -0.2777778), wk =   0.0082305
        k(   87) = (   0.0555556  -0.4444444  -0.4444444), wk =   0.0082305
        k(   88) = (   0.0555556  -0.4444444  -0.3888889), wk =   0.0164609
        k(   89) = (   0.0555556  -0.4444444  -0.3333333), wk =   0.0164609
        k(   90) = (   0.0555556  -0.3888889  -0.3888889), wk =   0.0082305
        k(   91) = (   0.0555556  -0.3888889  -0.3333333), wk =   0.0082305
        k(   92) = (   0.1111111   0.1111111   0.1111111), wk =   0.0027435
        k(   93) = (   0.1111111   0.1111111   0.1666667), wk =   0.0082305
        k(   94) = (   0.1111111   0.1111111   0.2222222), wk =   0.0082305
        k(   95) = (   0.1111111   0.1111111   0.2777778), wk =   0.0082305
        k(   96) = (   0.1111111   0.1111111   0.3333333), wk =   0.0082305
        k(   97) = (   0.1111111   0.1111111   0.3888889), wk =   0.0041152
        k(   98) = (   0.1111111   0.1111111  -0.1111111), wk =   0.0020576
        k(   99) = (   0.1111111   0.1666667   0.1666667), wk =   0.0082305
        k(  100) = (   0.1111111   0.1666667   0.2222222), wk =   0.0164609
        k(  101) = (   0.1111111   0.1666667   0.2777778), wk =   0.0164609
        k(  102) = (   0.1111111   0.1666667   0.3333333), wk =   0.0164609
        k(  103) = (   0.1111111   0.1666667  -0.1666667), wk =   0.0082305
        k(  104) = (   0.1111111   0.2222222   0.2222222), wk =   0.0082305
        k(  105) = (   0.1111111   0.2222222   0.2777778), wk =   0.0164609
        k(  106) = (   0.1111111   0.2222222   0.3333333), wk =   0.0082305
        k(  107) = (   0.1111111   0.2222222  -0.2222222), wk =   0.0082305
        k(  108) = (   0.1111111   0.2222222  -0.1666667), wk =   0.0082305
        k(  109) = (   0.1111111   0.2777778   0.2777778), wk =   0.0082305
        k(  110) = (   0.1111111   0.2777778  -0.2777778), wk =   0.0082305
        k(  111) = (   0.1111111   0.2777778  -0.2222222), wk =   0.0164609
        k(  112) = (   0.1111111   0.3333333  -0.3333333), wk =   0.0082305
        k(  113) = (   0.1111111   0.3333333  -0.2777778), wk =   0.0164609
        k(  114) = (   0.1111111   0.3333333  -0.2222222), wk =   0.0082305
        k(  115) = (   0.1111111   0.3888889  -0.3888889), wk =   0.0082305
        k(  116) = (   0.1111111   0.3888889  -0.3333333), wk =   0.0164609
        k(  117) = (   0.1111111   0.3888889  -0.2777778), wk =   0.0164609
        k(  118) = (   0.1111111   0.4444444  -0.4444444), wk =   0.0082305
        k(  119) = (   0.1111111   0.4444444  -0.3888889), wk =   0.0164609
        k(  120) = (   0.1111111   0.4444444  -0.3333333), wk =   0.0164609
        k(  121) = (   0.1111111   0.4444444  -0.2777778), wk =   0.0082305
        k(  122) = (   0.1111111  -0.5000000  -0.5000000), wk =   0.0041152
        k(  123) = (   0.1111111  -0.5000000  -0.4444444), wk =   0.0164609
        k(  124) = (   0.1111111  -0.5000000  -0.3888889), wk =   0.0164609
        k(  125) = (   0.1111111  -0.5000000  -0.3333333), wk =   0.0164609
        k(  126) = (   0.1111111  -0.4444444  -0.4444444), wk =   0.0082305
        k(  127) = (   0.1111111  -0.4444444  -0.3888889), wk =   0.0164609
        k(  128) = (   0.1111111  -0.4444444  -0.3333333), wk =   0.0082305
        k(  129) = (   0.1111111  -0.3888889  -0.3888889), wk =   0.0082305
        k(  130) = (   0.1666667   0.1666667   0.1666667), wk =   0.0027435
        k(  131) = (   0.1666667   0.1666667   0.2222222), wk =   0.0082305
        k(  132) = (   0.1666667   0.1666667   0.2777778), wk =   0.0082305
        k(  133) = (   0.1666667   0.1666667   0.3333333), wk =   0.0041152
        k(  134) = (   0.1666667   0.1666667  -0.1666667), wk =   0.0020576
        k(  135) = (   0.1666667   0.2222222   0.2222222), wk =   0.0082305
        k(  136) = (   0.1666667   0.2222222   0.2777778), wk =   0.0164609
        k(  137) = (   0.1666667   0.2222222  -0.2222222), wk =   0.0082305
        k(  138) = (   0.1666667   0.2777778   0.2777778), wk =   0.0027435
        k(  139) = (   0.1666667   0.2777778  -0.2777778), wk =   0.0082305
        k(  140) = (   0.1666667   0.2777778  -0.2222222), wk =   0.0082305
        k(  141) = (   0.1666667   0.3333333  -0.3333333), wk =   0.0082305
        k(  142) = (   0.1666667   0.3333333  -0.2777778), wk =   0.0164609
        k(  143) = (   0.1666667   0.3888889  -0.3888889), wk =   0.0082305
        k(  144) = (   0.1666667   0.3888889  -0.3333333), wk =   0.0164609
        k(  145) = (   0.1666667   0.3888889  -0.2777778), wk =   0.0082305
        k(  146) = (   0.1666667   0.4444444  -0.4444444), wk =   0.0082305
        k(  147) = (   0.1666667   0.4444444  -0.3888889), wk =   0.0164609
        k(  148) = (   0.1666667   0.4444444  -0.3333333), wk =   0.0164609
        k(  149) = (   0.1666667  -0.5000000  -0.5000000), wk =   0.0041152
        k(  150) = (   0.1666667  -0.5000000  -0.4444444), wk =   0.0164609
        k(  151) = (   0.1666667  -0.5000000  -0.3888889), wk =   0.0164609
        k(  152) = (   0.1666667  -0.5000000  -0.3333333), wk =   0.0082305
        k(  153) = (   0.1666667  -0.4444444  -0.4444444), wk =   0.0082305
        k(  154) = (   0.1666667  -0.4444444  -0.3888889), wk =   0.0164609
        k(  155) = (   0.1666667  -0.3888889  -0.3888889), wk =   0.0027435
        k(  156) = (   0.2222222   0.2222222   0.2222222), wk =   0.0027435
        k(  157) = (   0.2222222   0.2222222   0.2777778), wk =   0.0041152
        k(  158) = (   0.2222222   0.2222222  -0.2222222), wk =   0.0020576
        k(  159) = (   0.2222222   0.2777778  -0.2777778), wk =   0.0082305
        k(  160) = (   0.2222222   0.3333333  -0.3333333), wk =   0.0082305
        k(  161) = (   0.2222222   0.3333333  -0.2777778), wk =   0.0082305
        k(  162) = (   0.2222222   0.3888889  -0.3888889), wk =   0.0082305
        k(  163) = (   0.2222222   0.3888889  -0.3333333), wk =   0.0164609
        k(  164) = (   0.2222222   0.4444444  -0.4444444), wk =   0.0082305
        k(  165) = (   0.2222222   0.4444444  -0.3888889), wk =   0.0164609
        k(  166) = (   0.2222222   0.4444444  -0.3333333), wk =   0.0082305
        k(  167) = (   0.2222222  -0.5000000  -0.5000000), wk =   0.0041152
        k(  168) = (   0.2222222  -0.5000000  -0.4444444), wk =   0.0164609
        k(  169) = (   0.2222222  -0.5000000  -0.3888889), wk =   0.0164609
        k(  170) = (   0.2222222  -0.4444444  -0.4444444), wk =   0.0082305
        k(  171) = (   0.2222222  -0.4444444  -0.3888889), wk =   0.0082305
        k(  172) = (   0.2777778   0.2777778  -0.2777778), wk =   0.0020576
        k(  173) = (   0.2777778   0.3333333  -0.3333333), wk =   0.0082305
        k(  174) = (   0.2777778   0.3888889  -0.3888889), wk =   0.0082305
        k(  175) = (   0.2777778   0.3888889  -0.3333333), wk =   0.0082305
        k(  176) = (   0.2777778   0.4444444  -0.4444444), wk =   0.0082305
        k(  177) = (   0.2777778   0.4444444  -0.3888889), wk =   0.0164609
        k(  178) = (   0.2777778  -0.5000000  -0.5000000), wk =   0.0041152
        k(  179) = (   0.2777778  -0.5000000  -0.4444444), wk =   0.0164609
        k(  180) = (   0.2777778  -0.5000000  -0.3888889), wk =   0.0082305
        k(  181) = (   0.2777778  -0.4444444  -0.4444444), wk =   0.0082305
        k(  182) = (   0.3333333   0.3333333  -0.3333333), wk =   0.0020576
        k(  183) = (   0.3333333   0.3888889  -0.3888889), wk =   0.0082305
        k(  184) = (   0.3333333   0.4444444  -0.4444444), wk =   0.0082305
        k(  185) = (   0.3333333   0.4444444  -0.3888889), wk =   0.0082305
        k(  186) = (   0.3333333  -0.5000000  -0.5000000), wk =   0.0041152
        k(  187) = (   0.3333333  -0.5000000  -0.4444444), wk =   0.0164609
        k(  188) = (   0.3333333  -0.4444444  -0.4444444), wk =   0.0027435
        k(  189) = (   0.3888889   0.3888889  -0.3888889), wk =   0.0020576
        k(  190) = (   0.3888889   0.4444444  -0.4444444), wk =   0.0082305
        k(  191) = (   0.3888889  -0.5000000  -0.5000000), wk =   0.0041152
        k(  192) = (   0.3888889  -0.5000000  -0.4444444), wk =   0.0082305
        k(  193) = (   0.4444444   0.4444444  -0.4444444), wk =   0.0020576
        k(  194) = (   0.4444444  -0.5000000  -0.5000000), wk =   0.0041152
        k(  195) = (  -0.5000000  -0.5000000  -0.5000000), wk =   0.0003429

     Dense  grid:     3103 G-vectors     FFT dimensions: (  20,  20,  20)

     Dynamical RAM for                 wfc:       0.04 MB

     Dynamical RAM for     wfc (w. buffer):       7.07 MB

     Dynamical RAM for           str. fact:       0.05 MB

     Dynamical RAM for           local pot:       0.00 MB

     Dynamical RAM for          nlocal pot:       0.05 MB

     Dynamical RAM for                qrad:       0.23 MB

     Dynamical RAM for          rho,v,vnew:       0.33 MB

     Dynamical RAM for               rhoin:       0.11 MB

     Dynamical RAM for            rho*nmix:       0.76 MB

     Dynamical RAM for           G-vectors:       0.20 MB

     Dynamical RAM for          h,s,v(r/c):       0.03 MB

     Dynamical RAM for          <psi|beta>:       0.00 MB

     Dynamical RAM for                 psi:       0.14 MB

     Dynamical RAM for                hpsi:       0.14 MB

     Dynamical RAM for                spsi:       0.14 MB

     Dynamical RAM for      wfcinit/wfcrot:       0.07 MB

     Dynamical RAM for           addusdens:       2.89 MB

     Estimated static dynamical RAM per process >       9.19 MB

     Estimated max dynamical RAM per process >      12.08 MB

     Initial potential from superposition of free atoms

     starting charge    2.99753, renormalised to    3.00000
     Starting wfc are    4 randomized atomic wfcs +    2 random wfc

     total cpu time spent up to now is        0.6 secs

     Self-consistent Calculation

     iteration #  1     ecut=    35.00 Ry     beta= 0.70
     Davidson diagonalization with overlap
     ethr =  1.00E-02,  avg # of iterations =  4.8

     Threshold (ethr) on eigenvalues was too large:
     Diagonalizing with lowered threshold

     Davidson diagonalization with overlap
     ethr =  1.91E-04,  avg # of iterations =  1.6

     total cpu time spent up to now is        3.7 secs

     total energy              =      -6.70064352 Ry
     Harris-Foulkes estimate   =      -6.70270352 Ry
     estimated scf accuracy    <       0.00570988 Ry

     iteration #  2     ecut=    35.00 Ry     beta= 0.70
     Davidson diagonalization with overlap
     ethr =  1.90E-04,  avg # of iterations =  1.0

     total cpu time spent up to now is        4.5 secs

     total energy              =      -6.70068226 Ry
     Harris-Foulkes estimate   =      -6.70078717 Ry
     estimated scf accuracy    <       0.00030489 Ry

     iteration #  3     ecut=    35.00 Ry     beta= 0.70
     Davidson diagonalization with overlap
     ethr =  1.02E-05,  avg # of iterations =  1.7

     total cpu time spent up to now is        5.5 secs

     End of self-consistent calculation

          k = 0.0000 0.0000 0.0000 (   381 PWs)   bands (ev):

    -3.2975  20.9698  20.9702  22.0559  22.0559  22.0559

     occupation numbers 
     1.0000   0.0000   0.0000   0.0000   0.0000   0.0000

          k = 0.0000 0.0481-0.0481 (   380 PWs)   bands (ev):

    -3.2093  19.7487  20.1994  20.6051  21.7441  22.6121

     occupation numbers 
     1.0000   0.0000   0.0000   0.0000   0.0000   0.0000

          k = 0.0000 0.0962-0.0962 (   384 PWs)   bands (ev):

    -2.9450  17.6456  19.1940  19.7993  21.0213  22.1757

     occupation numbers 
     1.0000   0.0000   0.0000   0.0000   0.0000   0.0000

          k = 0.0000 0.1443-0.1443 (   388 PWs)   bands (ev):

    -2.5053  15.3767  18.2973  18.9040  20.2050  21.4118

     occupation numbers 
     1.0000   0.0000   0.0000   0.0000   0.0000   0.0000

          k = 0.0000 0.1925-0.1925 (   390 PWs)   bands (ev):

    -1.8916  13.1365  17.5338  18.0716  19.4460  20.7300

     occupation numbers 
     1.0000   0.0000   0.0000   0.0000   0.0000   0.0000

          k = 0.0000 0.2406-0.2406 (   392 PWs)   bands (ev):

    -1.1059  10.9900  16.9082  17.3600  18.7989  20.1381

     occupation numbers 
     1.0000   0.0000   0.0000   0.0000   0.0000   0.0000

          k = 0.0000 0.2887-0.2887 (   388 PWs)   bands (ev):

    -0.1508   8.9641  16.4217  16.7935  18.2850  19.6535

     occupation numbers 
     1.0000   0.0000   0.0000   0.0000   0.0000   0.0000

          k = 0.0000 0.3368-0.3368 (   394 PWs)   bands (ev):

     0.9699   7.0734  16.0743  16.3836  17.9140  19.2944

     occupation numbers 
     1.0000   1.0000   0.0000   0.0000   0.0000   0.0000

          k = 0.0000 0.3849-0.3849 (   394 PWs)   bands (ev):

     2.2484   5.3312  15.8660  16.1359  17.6900  19.0739

     occupation numbers 
     1.0000   1.0000   0.0000   0.0000   0.0000   0.0000

          k = 0.0000-0.4330 0.4330 (   392 PWs)   bands (ev):

     3.4822   3.9426  15.7965  16.0531  17.6151  18.9996

     occupation numbers 
     1.0000   1.0000   0.0000   0.0000   0.0000   0.0000

          k = 0.0481 0.0481-0.0962 (   385 PWs)   bands (ev):

    -3.0331  18.7269  18.7551  19.9241  21.7276  22.4935

     occupation numbers 
     1.0000   0.0000   0.0000   0.0000   0.0000   0.0000

          k = 0.0481 0.0962-0.1443 (   390 PWs)   bands (ev):

    -2.6810  16.5571  17.7562  19.0473  21.2066  22.0581

     occupation numbers 
     1.0000   0.0000   0.0000   0.0000   0.0000   0.0000

          k = 0.0481 0.1443-0.1925 (   388 PWs)   bands (ev):

    -2.1544  14.2996  16.8800  18.2092  20.4383  21.6487

     occupation numbers 
     1.0000   0.0000   0.0000   0.0000   0.0000   0.0000

          k = 0.0481 0.1925-0.2406 (   389 PWs)   bands (ev):

    -1.4547  12.1058  16.1336  17.4818  19.7311  21.1503

     occupation numbers 
     1.0000   0.0000   0.0000   0.0000   0.0000   0.0000

          k = 0.0481 0.2406-0.2887 (   388 PWs)   bands (ev):

    -0.5842  10.0198  15.5278  16.8897  19.1420  20.6768

     occupation numbers 
     1.0000   0.0000   0.0000   0.0000   0.0000   0.0000

          k = 0.0481 0.2887-0.3368 (   394 PWs)   bands (ev):

     0.4538   8.0618  15.0688  16.4419  18.6901  20.2904

     occupation numbers 
     1.0000   0.0003   0.0000   0.0000   0.0000   0.0000

          k = 0.0481 0.3368-0.3849 (   396 PWs)   bands (ev):

     1.6545   6.2446  14.7608  16.1422  18.3851  20.0205

     occupation numbers 
     1.0000   1.0000   0.0000   0.0000   0.0000   0.0000

          k = 0.0481 0.3849-0.4330 (   393 PWs)   bands (ev):

     2.9987   4.5913  14.6062  15.9921  18.2316  19.8824

     occupation numbers 
     1.0000   1.0000   0.0000   0.0000   0.0000   0.0000

          k = 0.0962 0.0962-0.1925 (   389 PWs)   bands (ev):

    -2.2420  15.4515  15.7108  18.2292  21.4857  21.5890

     occupation numbers 
     1.0000   0.0000   0.0000   0.0000   0.0000   0.0000

          k = 0.0962 0.1443-0.2406 (   391 PWs)   bands (ev):

    -1.6293  13.3446  14.7618  17.4692  20.8492  21.8622

     occupation numbers 
     1.0000   0.0000   0.0000   0.0000   0.0000   0.0000

          k = 0.0962 0.1925-0.2887 (   386 PWs)   bands (ev):

    -0.8448  11.2177  14.0561  16.8208  20.2208  22.0741

     occupation numbers 
     1.0000   0.0000   0.0000   0.0000   0.0000   0.0000

          k = 0.0962 0.2406-0.3368 (   388 PWs)   bands (ev):

     0.1087   9.2021  13.5052  16.3060  19.7098  22.0257

     occupation numbers 
     1.0000   0.0000   0.0000   0.0000   0.0000   0.0000

          k = 0.0962 0.2887-0.3849 (   394 PWs)   bands (ev):

     1.2274   7.3182  13.1099  15.9340  19.3361  21.8536

     occupation numbers 
     1.0000   1.0002   0.0000   0.0000   0.0000   0.0000

          k = 0.0962 0.3368-0.4330 (   394 PWs)   bands (ev):

     2.5033   5.5810  12.8720  15.7093  19.1089  21.7123

     occupation numbers 
     1.0000   1.0000   0.0000   0.0000   0.0000   0.0000

          k = 0.0962 0.3849-0.4811 (   393 PWs)   bands (ev):

     3.7307   4.1995  12.7926  15.6342  19.0328  21.6607

     occupation numbers 
     1.0000   1.0000   0.0000   0.0000   0.0000   0.0000

          k = 0.1443 0.1443-0.2887 (   389 PWs)   bands (ev):

    -0.9318  12.3483  12.8142  16.7831  21.2987  21.4684

     occupation numbers 
     1.0000   0.0000   0.0000   0.0000   0.0000   0.0000

          k = 0.1443 0.1925-0.3368 (   388 PWs)   bands (ev):

    -0.0642  10.4664  11.9931  16.2073  20.8495  22.0413

     occupation numbers 
     1.0000   0.0000   0.0000   0.0000   0.0000   0.0000

          k = 0.1443 0.2406-0.3849 (   388 PWs)   bands (ev):

     0.9702   8.5386  11.4950  15.7649  20.4297  22.7122

     occupation numbers 
     1.0000   0.0000   0.0000   0.0000   0.0000   0.0000

          k = 0.1443 0.2887-0.4330 (   395 PWs)   bands (ev):

     2.1663   6.7363  11.1678  15.4661  20.1395  23.2245

     occupation numbers 
     1.0000   1.0000   0.0000   0.0000   0.0000   0.0000

          k = 0.1443 0.3368-0.4811 (   397 PWs)   bands (ev):

     3.5037   5.0939  11.0047  15.3158  19.9922  23.4294

     occupation numbers 
     1.0000   1.0000   0.0000   0.0000   0.0000   0.0000

          k = 0.1925 0.1925-0.3849 (   390 PWs)   bands (ev):

     0.8844   9.6636  10.2339  15.7038  21.5171  21.7809

     occupation numbers 
     1.0000   0.0000   0.0000   0.0000   0.0000   0.0000

          k = 0.1925 0.2406-0.4330 (   393 PWs)   bands (ev):

     1.9968   8.0187   9.6025  15.3347  21.3060  22.5776

     occupation numbers 
     1.0000   0.0015   0.0000   0.0000   0.0000   0.0000

          k = 0.1925 0.2887-0.4811 (   393 PWs)   bands (ev):

     3.2644   6.3174   9.3343  15.1104  21.1047  23.5609

     occupation numbers 
     1.0000   1.0000   0.0000   0.0000   0.0000   0.0000

          k = 0.1925 0.3368-0.5292 (   395 PWs)   bands (ev):

     4.4759   4.9576   9.2480  15.0352  21.0354  24.3091

     occupation numbers 
     1.0000   1.0000   0.0000   0.0000   0.0000   0.0000

          k = 0.2406 0.2406-0.4811 (   392 PWs)   bands (ev):

     3.1823   7.4474   8.0558  15.0402  22.2236  22.4690

     occupation numbers 
     1.0000   1.0106   0.0004   0.0000   0.0000   0.0000

          k = 0.2406 0.2887-0.5292 (   392 PWs)   bands (ev):

     4.5040   6.0547   7.6585  14.8911  22.2134  23.4988

     occupation numbers 
     1.0000   1.0000   1.0079   0.0000   0.0000   0.0000

          k = 0.2887 0.2887-0.5774 (   399 PWs)   bands (ev):

     5.7159   5.7159   6.5515  14.8172  23.4049  23.5347

     occupation numbers 
     1.0000   1.0000   1.0000   0.0000   0.0000   0.0000

          k = 0.0962 0.0962-0.0962 (   387 PWs)   bands (ev):

    -2.7690  17.7866  17.7866  17.8128  22.7961  22.7961

     occupation numbers 
     1.0000   0.0000   0.0000   0.0000   0.0000   0.0000

          k = 0.0962 0.1443-0.1443 (   389 PWs)   bands (ev):

    -2.3297  15.5220  16.8233  16.9252  22.3143  22.8531

     occupation numbers 
     1.0000   0.0000   0.0000   0.0000   0.0000   0.0000

          k = 0.0962 0.1925-0.1925 (   387 PWs)   bands (ev):

    -1.7167  13.2869  15.9687  16.1512  21.7098  22.2488

     occupation numbers 
     1.0000   0.0000   0.0000   0.0000   0.0000   0.0000

          k = 0.0962 0.2406-0.2406 (   386 PWs)   bands (ev):

    -0.9318  11.1458  15.2541  15.5056  21.1273  21.7108

     occupation numbers 
     1.0000   0.0000   0.0000   0.0000   0.0000   0.0000

          k = 0.0962 0.2887-0.2887 (   386 PWs)   bands (ev):

     0.0222   9.1243  14.6916  14.9972  20.6397  21.2671

     occupation numbers 
     1.0000   0.0000   0.0000   0.0000   0.0000   0.0000

          k = 0.0962 0.3368-0.3368 (   392 PWs)   bands (ev):

     1.1416   7.2373  14.2870  14.6311  20.2787  20.9372

     occupation numbers 
     1.0000   1.0000   0.0000   0.0000   0.0000   0.0000

          k = 0.0962 0.3849-0.3849 (   390 PWs)   bands (ev):

     2.4184   5.4980  14.0434  14.4104  20.0582  20.7345

     occupation numbers 
     1.0000   1.0000   0.0000   0.0000   0.0000   0.0000

          k = 0.0962 0.4330-0.4330 (   396 PWs)   bands (ev):

     3.6479   4.1141  13.9621  14.3366  19.9840  20.6661

     occupation numbers 
     1.0000   1.0000   0.0000   0.0000   0.0000   0.0000

          k = 0.0962-0.0000 0.0000 (   377 PWs)   bands (ev):

    -3.1212  19.2860  19.2861  21.0992  21.1409  21.9225

     occupation numbers 
     1.0000   0.0000   0.0000   0.0000   0.0000   0.0000

          k = 0.1443 0.1443-0.1925 (   388 PWs)   bands (ev):

    -1.8041  14.4498  14.7731  16.0396  22.8402  23.1425

     occupation numbers 
     1.0000   0.0000   0.0000   0.0000   0.0000   0.0000

          k = 0.1443 0.1925-0.2406 (   389 PWs)   bands (ev):

    -1.1059  12.3987  13.8637  15.3025  22.4696  23.1791

     occupation numbers 
     1.0000   0.0000   0.0000   0.0000   0.0000   0.0000

          k = 0.1443 0.2406-0.2887 (   389 PWs)   bands (ev):

    -0.2374  10.3315  13.2233  14.7009  21.9713  23.0268

     occupation numbers 
     1.0000   0.0000   0.0000   0.0000   0.0000   0.0000

          k = 0.1443 0.2887-0.3368 (   389 PWs)   bands (ev):

     0.7983   8.3840  12.7430  14.2443  21.5658  22.7777

     occupation numbers 
     1.0000   0.0000   0.0000   0.0000   0.0000   0.0000

          k = 0.1443 0.3368-0.3849 (   396 PWs)   bands (ev):

     1.9960   6.5742  12.4219  13.9377  21.2858  22.5709

     occupation numbers 
     1.0000   1.0000   0.0000   0.0000   0.0000   0.0000

          k = 0.1443 0.3849-0.4330 (   393 PWs)   bands (ev):

     3.3357   4.9274  12.2610  13.7839  21.1434  22.4586

     occupation numbers 
     1.0000   1.0000   0.0000   0.0000   0.0000   0.0000

          k = 0.1443-0.0481 0.0000 (   388 PWs)   bands (ev):

    -2.8570  17.6059  18.2353  20.4142  20.7915  21.1001

     occupation numbers 
     1.0000   0.0000   0.0000   0.0000   0.0000   0.0000

          k = 0.1925 0.1925-0.2887 (   389 PWs)   bands (ev):

    -0.3240  11.4638  11.9652  14.6311  23.0655  23.1411

     occupation numbers 
     1.0000   0.0000   0.0000   0.0000   0.0000   0.0000

          k = 0.1925 0.2406-0.3368 (   393 PWs)   bands (ev):

     0.6263   9.6559  11.2051  14.0985  22.7227  23.7216

     occupation numbers 
     1.0000   0.0000   0.0000   0.0000   0.0000   0.0000

          k = 0.1925 0.2887-0.3849 (   391 PWs)   bands (ev):

     1.7409   7.8001  10.7818  13.7137  22.4039  24.1697

     occupation numbers 
     1.0000   0.3361   0.0000   0.0000   0.0000   0.0000

          k = 0.1925 0.3368-0.4330 (   393 PWs)   bands (ev):

     3.0115   6.0765  10.5331  13.4812  22.2030  24.3382

     occupation numbers 
     1.0000   1.0000   0.0000   0.0000   0.0000   0.0000

          k = 0.1925 0.3849-0.4811 (   391 PWs)   bands (ev):

     4.2277   4.7084  10.4506  13.4035  22.1345  24.3654

     occupation numbers 
     1.0000   1.0000   0.0000   0.0000   0.0000   0.0000

          k = 0.1925-0.0962 0.0000 (   388 PWs)   bands (ev):

    -2.4175  15.4205  17.2904  19.5357  20.0285  21.0337

     occupation numbers 
     1.0000   0.0000   0.0000   0.0000   0.0000   0.0000

          k = 0.1925-0.0481-0.0481 (   391 PWs)   bands (ev):

    -2.5053  16.5030  16.6307  19.8663  20.1551  20.7301

     occupation numbers 
     1.0000   0.0000   0.0000   0.0000   0.0000   0.0000

          k = 0.2406 0.2406-0.3849 (   388 PWs)   bands (ev):

     1.6557   8.9287   9.5120  13.6389  23.5633  23.5785

     occupation numbers 
     1.0000   0.0000   0.0000   0.0000   0.0000   0.0000

          k = 0.2406 0.2887-0.4330 (   391 PWs)   bands (ev):

     2.8453   7.3618   8.9555  13.3292  23.3587  24.4874

     occupation numbers 
     1.0000   1.0008   0.0000   0.0000   0.0000   0.0000

          k = 0.2406 0.3368-0.4811 (   392 PWs)   bands (ev):

     4.1732   5.7516   8.7691  13.1735  23.2391  25.3278

     occupation numbers 
     1.0000   1.0000   0.0000   0.0000   0.0000   0.0000

          k = 0.2406-0.1443 0.0000 (   387 PWs)   bands (ev):

    -1.8041  13.2026  16.4769  18.7285  19.2692  20.9652

     occupation numbers 
     1.0000   0.0000   0.0000   0.0000   0.0000   0.0000

          k = 0.2406-0.0962-0.0481 (   388 PWs)   bands (ev):

    -1.9791  14.4057  15.6712  19.0935  19.8027  20.5595

     occupation numbers 
     1.0000   0.0000   0.0000   0.0000   0.0000   0.0000

          k = 0.2887 0.2887-0.4811 (   394 PWs)   bands (ev):

     4.1006   6.8718   7.4893  13.0965  24.4126  24.4332

     occupation numbers 
     1.0000   1.0000   1.0265   0.0000   0.0000   0.0000

          k = 0.2887 0.3368-0.5292 (   392 PWs)   bands (ev):

     5.3032   5.7313   7.1930  13.0186  24.3820  25.4242

     occupation numbers 
     1.0000   1.0000   1.0000   0.0000   0.0000   0.0000

          k = 0.2887-0.1925 0.0000 (   389 PWs)   bands (ev):

    -1.0188  11.0647  15.8041  18.0513  18.6133  20.7083

     occupation numbers 
     1.0000   0.0000   0.0000   0.0000   0.0000   0.0000

          k = 0.2887-0.1443-0.0481 (   389 PWs)   bands (ev):

    -1.2802  12.2451  14.9046  18.3612  19.2208  20.8432

     occupation numbers 
     1.0000   0.0000   0.0000   0.0000   0.0000   0.0000

          k = 0.2887-0.0962-0.0962 (   391 PWs)   bands (ev):

    -1.3674  13.3710  13.7500  18.7635  19.5455  20.1995

     occupation numbers 
     1.0000   0.0000   0.0000   0.0000   0.0000   0.0000

          k = 0.3368-0.2406 0.0000 (   391 PWs)   bands (ev):

    -0.0643   9.0430  15.2769  17.5163  18.0910  20.3790

     occupation numbers 
     1.0000   0.0000   0.0000   0.0000   0.0000   0.0000

          k = 0.3368-0.1925-0.0481 (   389 PWs)   bands (ev):

    -0.4107  10.1728  14.2871  17.7666  18.6630  21.1408

     occupation numbers 
     1.0000   0.0000   0.0000   0.0000   0.0000   0.0000

          k = 0.3368-0.1443-0.0962 (   387 PWs)   bands (ev):

    -0.5842  11.4231  12.8909  18.1962  19.2013  20.4593

     occupation numbers 
     1.0000   0.0000   0.0000   0.0000   0.0000   0.0000

          k = 0.3849-0.2887-0.0000 (   398 PWs)   bands (ev):

     1.0558   7.1549  14.8985  17.1302  17.7140  20.0944

     occupation numbers 
     1.0000   1.0000   0.0000   0.0000   0.0000   0.0000

          k = 0.3849-0.2406-0.0481 (   394 PWs)   bands (ev):

     0.6262   8.2218  13.8214  17.3175  18.2205  21.2186

     occupation numbers 
     1.0000   0.0000   0.0000   0.0000   0.0000   0.0000

          k = 0.3849-0.1925-0.0962 (   392 PWs)   bands (ev):

     0.3677   9.4326  12.3239  17.7090  18.7412  21.1092

     occupation numbers 
     1.0000   0.0000   0.0000   0.0000   0.0000   0.0000

          k = 0.3849-0.1443-0.1443 (   389 PWs)   bands (ev):

     0.2815  10.5551  11.0857  17.7595  19.5598  20.1783

     occupation numbers 
     1.0000   0.0000   0.0000   0.0000   0.0000   0.0000

          k = 0.4330-0.3368 0.0000 (   396 PWs)   bands (ev):

     2.3334   5.4144  14.6706  16.8971  17.4864  19.9090

     occupation numbers 
     1.0000   1.0000   0.0000   0.0000   0.0000   0.0000

          k = 0.4330-0.2887-0.0481 (   395 PWs)   bands (ev):

     1.8253   6.4091  13.5098  17.0166  17.9179  21.1467

     occupation numbers 
     1.0000   1.0000   0.0000   0.0000   0.0000   0.0000

          k = 0.4330-0.2406-0.0962 (   393 PWs)   bands (ev):

     1.4844   7.5596  11.9219  17.3526  18.3771  21.8385

     occupation numbers 
     1.0000   1.0713   0.0000   0.0000   0.0000   0.0000

          k = 0.4330-0.1925-0.1443 (   394 PWs)   bands (ev):

     1.3134   8.8341  10.3923  17.3622  19.3782  20.7670

     occupation numbers 
     1.0000   0.0000   0.0000   0.0000   0.0000   0.0000

          k =-0.3849-0.3849 0.8660 (   394 PWs)   bands (ev):

     3.5650   4.0283  14.5946  16.8192  17.4105  19.8451

     occupation numbers 
     1.0000   1.0000   0.0000   0.0000   0.0000   0.0000

          k =-0.3849-0.3368 0.8179 (   397 PWs)   bands (ev):

     3.1672   4.7593  13.3536  16.8657  17.7647  21.0788

     occupation numbers 
     1.0000   1.0000   0.0000   0.0000   0.0000   0.0000

          k =-0.3849-0.2887 0.7698 (   399 PWs)   bands (ev):

     2.7576   5.8290  11.6809  17.1369  18.1504  22.4126

     occupation numbers 
     1.0000   1.0000   0.0000   0.0000   0.0000   0.0000

          k =-0.3849-0.2406 0.7217 (   398 PWs)   bands (ev):

     2.5063   7.0568  10.0466  17.0837  19.1161  21.7136

     occupation numbers 
     1.0000   1.0000   0.0000   0.0000   0.0000   0.0000

          k =-0.3849-0.1925 0.6736 (   396 PWs)   bands (ev):

     2.4220   8.1851   8.7786  17.0422  20.0957  20.6448

     occupation numbers 
     1.0000   0.0000   0.0000   0.0000   0.0000   0.0000

          k =-0.3368-0.3368 0.7698 (   396 PWs)   bands (ev):

     3.9791   4.4546  11.6005  17.0648  18.0737  22.6074

     occupation numbers 
     1.0000   1.0000   0.0000   0.0000   0.0000   0.0000

          k =-0.3368-0.2887 0.7217 (   398 PWs)   bands (ev):

     3.8389   5.4251   9.8786  16.9419  18.9742  22.7686

     occupation numbers 
     1.0000   1.0000   0.0000   0.0000   0.0000   0.0000

          k =-0.3368-0.2406 0.6736 (   395 PWs)   bands (ev):

     3.6842   6.7025   8.3005  16.8375  20.1099  21.5075

     occupation numbers 
     1.0000   1.0000   0.0000   0.0000   0.0000   0.0000

          k =-0.2887-0.2887 0.6736 (   398 PWs)   bands (ev):

     4.8892   5.3644   8.2000  16.7679  20.0566  22.7484

     occupation numbers 
     1.0000   1.0000   0.0000   0.0000   0.0000   0.0000

          k =-0.2887-0.2406 0.6255 (   392 PWs)   bands (ev):

     4.9905   6.2928   6.9390  16.7051  21.1277  21.5089

     occupation numbers 
     1.0000   1.0000   1.0000   0.0000   0.0000   0.0000

          k = 0.1925 0.1925-0.1925 (   390 PWs)   bands (ev):

    -1.1930  13.5762  13.5762  14.2226  24.1855  24.1860

     occupation numbers 
     1.0000   0.0000   0.0000   0.0000   0.0000   0.0000

          k = 0.1925 0.2406-0.2406 (   388 PWs)   bands (ev):

    -0.4107  11.5836  12.8517  13.4164  23.9949  24.2249

     occupation numbers 
     1.0000   0.0000   0.0000   0.0000   0.0000   0.0000

          k = 0.1925 0.2887-0.2887 (   392 PWs)   bands (ev):

     0.5402   9.5941  12.2841  12.8637  23.6957  23.9199

     occupation numbers 
     1.0000   0.0000   0.0000   0.0000   0.0000   0.0000

          k = 0.1925 0.3368-0.3368 (   394 PWs)   bands (ev):

     1.6555   7.7234  11.8770  12.4722  23.4243  23.6663

     occupation numbers 
     1.0000   0.7426   0.0000   0.0000   0.0000   0.0000

          k = 0.1925 0.3849-0.3849 (   394 PWs)   bands (ev):

     2.9271   5.9953  11.6321  12.2372  23.2445  23.5032

     occupation numbers 
     1.0000   1.0000   0.0000   0.0000   0.0000   0.0000

          k = 0.1925 0.4330-0.4330 (   394 PWs)   bands (ev):

     4.1449   4.6247  11.5504  12.1588  23.1823  23.4473

     occupation numbers 
     1.0000   1.0000   0.0000   0.0000   0.0000   0.0000

          k = 0.1925-0.0000 0.0000 (   397 PWs)   bands (ev):

    -2.5931  17.1403  17.1403  19.3834  19.5005  21.6541

     occupation numbers 
     1.0000   0.0000   0.0000   0.0000   0.0000   0.0000

          k = 0.2406 0.2406-0.2887 (   395 PWs)   bands (ev):

     0.4540  10.7331  11.1960  12.5992  24.7093  24.9192

     occupation numbers 
     1.0000   0.0000   0.0000   0.0000   0.0000   0.0000

          k = 0.2406 0.2887-0.3368 (   395 PWs)   bands (ev):

     1.4848   8.9983  10.5300  12.1058  24.6322  25.2389

     occupation numbers 
     1.0000   0.0000   0.0000   0.0000   0.0000   0.0000

          k = 0.2406 0.3368-0.3849 (   392 PWs)   bands (ev):

     2.6762   7.2216  10.1883  11.7828  24.4428  25.3521

     occupation numbers 
     1.0000   1.0000   0.0000   0.0000   0.0000   0.0000

          k = 0.2406 0.3849-0.4330 (   393 PWs)   bands (ev):

     4.0069   5.5921  10.0211  11.6217  24.3354  25.3559

     occupation numbers 
     1.0000   1.0000   0.0000   0.0000   0.0000   0.0000

          k = 0.2406-0.0481 0.0000 (   391 PWs)   bands (ev):

    -2.1543  15.4966  16.1686  18.4464  19.1368  21.4477

     occupation numbers 
     1.0000   0.0000   0.0000   0.0000   0.0000   0.0000

          k = 0.2887 0.2887-0.3849 (   392 PWs)   bands (ev):

     2.5921   8.3549   8.9259  11.6867  25.4292  25.5947

     occupation numbers 
     1.0000   0.0000   0.0000   0.0000   0.0000   0.0000

          k = 0.2887 0.3368-0.4330 (   393 PWs)   bands (ev):

     3.8526   6.8682   8.4570  11.4412  25.4361  26.3330

     occupation numbers 
     1.0000   1.0000   0.0000   0.0000   0.0000   0.0000

          k = 0.2887 0.3849-0.4811 (   389 PWs)   bands (ev):

     5.0553   5.5319   8.3578  11.3598  25.4006  26.7461

     occupation numbers 
     1.0000   1.0000   0.0000   0.0000   0.0000   0.0000

          k = 0.2887-0.0962 0.0000 (   387 PWs)   bands (ev):

    -1.5419  13.3892  15.3376  17.6349  19.4281  20.8203

     occupation numbers 
     1.0000   0.0000   0.0000   0.0000   0.0000   0.0000

          k = 0.2887-0.0481-0.0481 (   389 PWs)   bands (ev):

    -1.6293  14.4694  14.6785  17.9954  18.4307  21.3572

     occupation numbers 
     1.0000   0.0000   0.0000   0.0000   0.0000   0.0000

          k = 0.3368 0.3368-0.4811 (   391 PWs)   bands (ev):

     5.1574   6.4599   7.0985  11.2756  26.3487  26.6196

     occupation numbers 
     1.0000   1.0000   1.0000   0.0000   0.0000   0.0000

          k = 0.3368-0.1443 0.0000 (   387 PWs)   bands (ev):

    -0.7579  11.2850  14.6533  16.9455  19.9290  20.2094

     occupation numbers 
     1.0000   0.0000   0.0000   0.0000   0.0000   0.0000

          k = 0.3368-0.0962-0.0481 (   389 PWs)   bands (ev):

    -0.9318  12.5048  13.8204  17.4165  18.6516  20.8480

     occupation numbers 
     1.0000   0.0000   0.0000   0.0000   0.0000   0.0000

          k = 0.3849-0.1925 0.0000 (   391 PWs)   bands (ev):

     0.1951   9.2782  14.1187  16.3984  19.7066  20.4609

     occupation numbers 
     1.0000   0.0000   0.0000   0.0000   0.0000   0.0000

          k = 0.3849-0.1443-0.0481 (   392 PWs)   bands (ev):

    -0.0642  10.4726  13.1921  16.8207  19.2127  20.4002

     occupation numbers 
     1.0000   0.0000   0.0000   0.0000   0.0000   0.0000

          k = 0.3849-0.0962-0.0962 (   393 PWs)   bands (ev):

    -0.1507  11.5912  12.0367  17.7451  18.1302  20.4487

     occupation numbers 
     1.0000   0.0000   0.0000   0.0000   0.0000   0.0000

          k = 0.4330-0.2406-0.0000 (   395 PWs)   bands (ev):

     1.3131   7.3985  13.7358  16.0028  19.3396  20.8309

     occupation numbers 
     1.0000   1.0028   0.0000   0.0000   0.0000   0.0000

          k = 0.4330-0.1925-0.0481 (   396 PWs)   bands (ev):

     0.9703   8.5392  12.7208  16.3591  19.5454  20.4339

     occupation numbers 
     1.0000   0.0000   0.0000   0.0000   0.0000   0.0000

          k = 0.4330-0.1443-0.0962 (   394 PWs)   bands (ev):

     0.7985   9.8003  11.3024  17.3861  18.6210  20.1079

     occupation numbers 
     1.0000   0.0000   0.0000   0.0000   0.0000   0.0000

          k = 0.4811-0.2887 0.0000 (   395 PWs)   bands (ev):

     2.5881   5.6636  13.5056  15.7635  19.1168  20.9619

     occupation numbers 
     1.0000   1.0000   0.0000   0.0000   0.0000   0.0000

          k = 0.4811-0.2406-0.0481 (   399 PWs)   bands (ev):

     2.1663   6.7364  12.4060  16.0473  19.4124  21.1117

     occupation numbers 
     1.0000   1.0000   0.0000   0.0000   0.0000   0.0000

          k = 0.4811-0.1925-0.0962 (   397 PWs)   bands (ev):

     1.9116   7.9567  10.8852  17.0171  19.0826  20.2191

     occupation numbers 
     1.0000   0.0115   0.0000   0.0000   0.0000   0.0000

          k = 0.4811-0.1443-0.1443 (   400 PWs)   bands (ev):

     1.8265   9.0814   9.6407  18.0960  18.2212  19.8385

     occupation numbers 
     1.0000   0.0000   0.0000   0.0000   0.0000   0.0000

          k =-0.3368-0.3368 0.8660 (   394 PWs)   bands (ev):

     3.8134   4.2846  13.4288  15.6835  19.0423  20.9816

     occupation numbers 
     1.0000   1.0000   0.0000   0.0000   0.0000   0.0000

          k =-0.3368-0.2887 0.8179 (   396 PWs)   bands (ev):

     3.5037   5.0940  12.2484  15.8904  19.2954  21.7306

     occupation numbers 
     1.0000   1.0000   0.0000   0.0000   0.0000   0.0000

          k =-0.3368-0.2406 0.7698 (   401 PWs)   bands (ev):

     3.1803   6.2395  10.6393  16.7900  19.1030  21.0401

     occupation numbers 
     1.0000   1.0000   0.0000   0.0000   0.0000   0.0000

          k =-0.3368-0.1925 0.7217 (   398 PWs)   bands (ev):

     3.0143   7.5198   9.0950  17.8676  18.7686  19.9657

     occupation numbers 
     1.0000   1.0446   0.0000   0.0000   0.0000   0.0000

          k =-0.2887-0.2887 0.7698 (   396 PWs)   bands (ev):

     4.3927   4.8765  10.5576  16.7137  19.0701  22.1187

     occupation numbers 
     1.0000   1.0000   0.0000   0.0000   0.0000   0.0000

          k =-0.2887-0.2406 0.7217 (   397 PWs)   bands (ev):

     4.3397   5.9153   8.9108  17.7191  18.9115  20.8016

     occupation numbers 
     1.0000   1.0000   0.0000   0.0000   0.0000   0.0000

          k =-0.2887-0.1925 0.6736 (   400 PWs)   bands (ev):

     4.2674   7.0325   7.6409  18.3579  18.9652  19.9221

     occupation numbers 
     1.0000   1.0000   1.0463   0.0000   0.0000   0.0000

          k =-0.2406-0.2406 0.6736 (   393 PWs)   bands (ev):

     5.4670   5.8949   7.3480  18.3436  19.2564  20.3293

     occupation numbers 
     1.0000   1.0000   1.0005   0.0000   0.0000   0.0000

          k = 0.2887 0.2887-0.2887 (   390 PWs)   bands (ev):

     1.3992  10.1618  10.1618  11.0880  26.1335  26.1335

     occupation numbers 
     1.0000   0.0000   0.0000   0.0000   0.0000   0.0000

          k = 0.2887 0.3368-0.3368 (   393 PWs)   bands (ev):

     2.5074   8.4878   9.7526  10.4995  26.3879  26.4212

     occupation numbers 
     1.0000   0.0000   0.0000   0.0000   0.0000   0.0000

          k = 0.2887 0.3849-0.3849 (   394 PWs)   bands (ev):

     3.7694   6.8051   9.5066  10.2236  26.4041  26.4099

     occupation numbers 
     1.0000   1.0000   0.0000   0.0000   0.0000   0.0000

          k = 0.2887 0.4330-0.4330 (   390 PWs)   bands (ev):

     4.9727   5.4571   9.4246  10.1356  26.3883  26.4030

     occupation numbers 
     1.0000   1.0000   0.0000   0.0000   0.0000   0.0000

          k = 0.2887 0.0000 0.0000 (   390 PWs)   bands (ev):

    -1.7167  15.1813  15.1813  17.1313  17.8531  22.5077

     occupation numbers 
     1.0000   0.0000   0.0000   0.0000   0.0000   0.0000

          k = 0.3368 0.3368-0.3849 (   391 PWs)   bands (ev):

     3.6879   7.9442   8.4400   9.9192  27.2359  27.3899

     occupation numbers 
     1.0000   0.0165   0.0000   0.0000   0.0000   0.0000

          k = 0.3368 0.3849-0.4330 (   392 PWs)   bands (ev):

     5.0031   6.5447   8.0899   9.7234  27.4193  27.8876

     occupation numbers 
     1.0000   1.0000   0.0001   0.0000   0.0000   0.0000

          k = 0.3368-0.0481 0.0000 (   394 PWs)   bands (ev):

    -1.1059  13.6294  14.3403  16.4710  17.4816  22.4354

     occupation numbers 
     1.0000   0.0000   0.0000   0.0000   0.0000   0.0000

          k = 0.3849 0.3849-0.4811 (   393 PWs)   bands (ev):

     6.2125   6.2125   7.0034   9.6173  28.0769  28.5103

     occupation numbers 
     1.0000   1.0000   1.0000   0.0000   0.0000   0.0000

          k = 0.3849-0.0962 0.0000 (   392 PWs)   bands (ev):

    -0.3239  11.6346  13.6495  15.8750  17.8822  21.9393

     occupation numbers 
     1.0000   0.0000   0.0000   0.0000   0.0000   0.0000

          k = 0.3849-0.0481-0.0481 (   394 PWs)   bands (ev):

    -0.4106  12.7209  12.9827  16.1429  16.9299  22.4543

     occupation numbers 
     1.0000   0.0000   0.0000   0.0000   0.0000   0.0000

          k = 0.4330-0.1443 0.0000 (   397 PWs)   bands (ev):

     0.6263   9.6637  13.1109  15.3442  18.6056  21.4728

     occupation numbers 
     1.0000   0.0000   0.0000   0.0000   0.0000   0.0000

          k = 0.4330-0.0962-0.0481 (   399 PWs)   bands (ev):

     0.4541  10.8977  12.2531  15.8084  17.2338  22.0424

     occupation numbers 
     1.0000   0.0000   0.0000   0.0000   0.0000   0.0000

          k = 0.4811-0.1925-0.0000 (   402 PWs)   bands (ev):

     1.7410   7.8010  12.7255  14.9498  19.4929  21.1190

     occupation numbers 
     1.0000   0.3318   0.0000   0.0000   0.0000   0.0000

          k = 0.4811-0.1443-0.0481 (   399 PWs)   bands (ev):

     1.4848   9.0063  11.7736  15.3858  18.0231  21.6482

     occupation numbers 
     1.0000   0.0000   0.0000   0.0000   0.0000   0.0000

          k = 0.4811-0.0962-0.0962 (   400 PWs)   bands (ev):

     1.3993  10.1266  10.6083  16.2539  16.9276  21.6915

     occupation numbers 
     1.0000   0.0000   0.0000   0.0000   0.0000   0.0000

          k = 0.5292-0.2406 0.0000 (   399 PWs)   bands (ev):

     3.0115   6.0767  12.4940  14.7093  20.4594  20.9023

     occupation numbers 
     1.0000   1.0000   0.0000   0.0000   0.0000   0.0000

          k = 0.5292-0.1925-0.0481 (   399 PWs)   bands (ev):

     2.6762   7.2229  11.4555  15.0813  19.0014  21.3496

     occupation numbers 
     1.0000   1.0000   0.0000   0.0000   0.0000   0.0000

          k = 0.5292-0.1443-0.0962 (   401 PWs)   bands (ev):

     2.5074   8.4924  10.0165  16.1297  17.5884  21.3016

     occupation numbers 
     1.0000   0.0000   0.0000   0.0000   0.0000   0.0000

          k =-0.2887-0.2887 0.8660 (   398 PWs)   bands (ev):

     4.2272   4.7091  12.4168  14.6286  20.8297  21.1536

     occupation numbers 
     1.0000   1.0000   0.0000   0.0000   0.0000   0.0000

          k =-0.2887-0.2406 0.8179 (   398 PWs)   bands (ev):

     4.0067   5.5928  11.2965  14.9257  20.0518  21.0634

     occupation numbers 
     1.0000   1.0000   0.0000   0.0000   0.0000   0.0000

          k =-0.2887-0.1925 0.7698 (   398 PWs)   bands (ev):

     3.7693   6.8064   9.7566  15.9288  18.6310  20.7748

     occupation numbers 
     1.0000   1.0000   0.0000   0.0000   0.0000   0.0000

          k =-0.2887-0.1443 0.7217 (   402 PWs)   bands (ev):

     3.6878   7.9322   8.5053  16.9455  17.4737  20.6891

     occupation numbers 
     1.0000   0.0230   0.0000   0.0000   0.0000   0.0000

          k =-0.2406-0.2406 0.7698 (   398 PWs)   bands (ev):

     4.9710   5.4594   9.6723  15.8567  19.7137  19.8460

     occupation numbers 
     1.0000   1.0000   0.0000   0.0000   0.0000   0.0000

          k =-0.2406-0.1925 0.7217 (   398 PWs)   bands (ev):

     5.0025   6.5453   8.1231  17.0133  18.4025  19.6193

     occupation numbers 
     1.0000   1.0000   0.0000   0.0000   0.0000   0.0000

          k =-0.1925-0.1925 0.6736 (   400 PWs)   bands (ev):

     6.2080   6.2080   7.0299  18.1500  18.1500  18.5864

     occupation numbers 
     1.0000   1.0000   1.0000   0.0000   0.0000   0.0000

          k = 0.3849 0.3849-0.3849 (   396 PWs)   bands (ev):

     4.9312   7.6974   7.6974   8.7195  28.6409  28.6410

     occupation numbers 
     1.0000   0.8696   0.8696   0.0000   0.0000   0.0000

          k = 0.3849 0.4330-0.4330 (   398 PWs)   bands (ev):

     6.1300   6.5135   7.6151   8.4710  28.9257  29.1470

     occupation numbers 
     1.0000   1.0000   1.0769   0.0000   0.0000   0.0000

          k = 0.3849 0.0000 0.0000 (   398 PWs)   bands (ev):

    -0.4973  13.4930  13.4930  15.2125  16.3072  23.6981

     occupation numbers 
     1.0000   0.0000   0.0000   0.0000   0.0000   0.0000

          k = 0.4330-0.0481 0.0000 (   402 PWs)   bands (ev):

     0.2816  12.0498  12.7982  14.7751  16.0175  23.7441

     occupation numbers 
     1.0000   0.0000   0.0000   0.0000   0.0000   0.0000

          k = 0.4811-0.0962 0.0000 (   402 PWs)   bands (ev):

     1.2280  10.1826  12.2569  14.3809  16.5376  23.3724

     occupation numbers 
     1.0000   0.0000   0.0000   0.0000   0.0000   0.0000

          k = 0.4811-0.0481-0.0481 (   401 PWs)   bands (ev):

     1.1422  11.2784  11.5754  14.6210  15.5982  23.6556

     occupation numbers 
     1.0000   0.0000   0.0000   0.0000   0.0000   0.0000

          k = 0.5292-0.1443-0.0000 (   400 PWs)   bands (ev):

     2.3377   8.3557  11.8699  14.0164  17.4292  22.4968

     occupation numbers 
     1.0000   0.0000   0.0000   0.0000   0.0000   0.0000

          k = 0.5292-0.0962-0.0481 (   405 PWs)   bands (ev):

     2.1679   9.6011  10.9871  14.4869  16.0234  22.3847

     occupation numbers 
     1.0000   0.0000   0.0000   0.0000   0.0000   0.0000

          k = 0.5774-0.1925 0.0000 (   402 PWs)   bands (ev):

     3.6017   6.6497  11.6375  13.7830  18.5166  21.0921

     occupation numbers 
     1.0000   1.0000   0.0000   0.0000   0.0000   0.0000

          k = 0.5774-0.1443-0.0481 (   401 PWs)   bands (ev):

     3.3527   7.8599  10.6619  14.2349  16.9704  20.9057

     occupation numbers 
     1.0000   0.1239   0.0000   0.0000   0.0000   0.0000

          k = 0.5774-0.0962-0.0962 (   402 PWs)   bands (ev):

     3.2691   8.9836   9.4847  15.0886  15.8802  20.8380

     occupation numbers 
     1.0000   0.0000   0.0000   0.0000   0.0000   0.0000

          k =-0.2406-0.2406 0.8660 (   392 PWs)   bands (ev):

     4.8057   5.2972  11.5601  13.7037  19.6844  19.8156

     occupation numbers 
     1.0000   1.0000   0.0000   0.0000   0.0000   0.0000

          k =-0.2406-0.1925 0.8179 (   404 PWs)   bands (ev):

     4.6740   6.2503  10.5009  14.0904  18.1242  19.4912

     occupation numbers 
     1.0000   1.0000   0.0000   0.0000   0.0000   0.0000

          k =-0.2406-0.1443 0.7698 (   403 PWs)   bands (ev):

     4.5217   7.5110   9.0471  15.1492  16.6709  19.3455

     occupation numbers 
     1.0000   1.0389   0.0000   0.0000   0.0000   0.0000

          k =-0.1925-0.1925 0.7698 (   402 PWs)   bands (ev):

     5.7129   6.1912   8.9523  15.1029  17.6587  18.1903

     occupation numbers 
     1.0000   1.0000   0.0000   0.0000   0.0000   0.0000

          k =-0.1925-0.1443 0.7217 (   400 PWs)   bands (ev):

     5.8166   7.1099   7.7221  16.1199  16.6435  17.9521

     occupation numbers 
     1.0000   1.0000   0.7496   0.0000   0.0000   0.0000

          k = 0.4811 0.0000 0.0000 (   410 PWs)   bands (ev):

     1.0564  12.1007  12.1007  13.6380  14.9462  24.0189

     occupation numbers 
     1.0000   0.0000   0.0000   0.0000   0.0000   0.0000

          k = 0.5292-0.0481 0.0000 (   407 PWs)   bands (ev):

     1.9977  10.7750  11.5577  13.4052  14.7795  22.3696

     occupation numbers 
     1.0000   0.0000   0.0000   0.0000   0.0000   0.0000

          k = 0.5774-0.0962-0.0000 (   399 PWs)   bands (ev):

     3.1008   9.0458  11.1695  13.1936  15.4424  20.7445

     occupation numbers 
     1.0000   0.0000   0.0000   0.0000   0.0000   0.0000

          k = 0.5774-0.0481-0.0481 (   405 PWs)   bands (ev):

     3.0166  10.1507  10.4711  13.4362  14.4989  20.6813

     occupation numbers 
     1.0000   0.0000   0.0000   0.0000   0.0000   0.0000

          k = 0.6255-0.1443 0.0000 (   402 PWs)   bands (ev):

     4.3562   7.3748  10.9366  12.9946  16.4854  19.2208

     occupation numbers 
     1.0000   1.0013   0.0000   0.0000   0.0000   0.0000

          k = 0.6255-0.0962-0.0481 (   398 PWs)   bands (ev):

     4.1926   8.6249  10.0318  13.4810  15.0632  19.0773

     occupation numbers 
     1.0000   0.0000   0.0000   0.0000   0.0000   0.0000

          k =-0.1925-0.1925 0.8660 (   398 PWs)   bands (ev):

     5.5478   6.0410  10.8589  12.9218  17.4946  18.0593

     occupation numbers 
     1.0000   1.0000   0.0000   0.0000   0.0000   0.0000

          k =-0.1925-0.1443 0.8179 (   400 PWs)   bands (ev):

     5.5020   7.0563   9.8647  13.3895  16.1191  17.6406

     occupation numbers 
     1.0000   1.0000   0.0000   0.0000   0.0000   0.0000

          k =-0.1925-0.0962 0.7698 (   398 PWs)   bands (ev):

     5.4315   8.1653   8.6843  14.2545  15.0361  17.5474

     occupation numbers 
     1.0000   0.0000   0.0000   0.0000   0.0000   0.0000

          k =-0.1443-0.1443 0.7698 (   397 PWs)   bands (ev):

     6.6160   7.0352   8.4231  14.4467  15.6234  16.5223

     occupation numbers 
     1.0000   1.0000   0.0000   0.0000   0.0000   0.0000

          k = 0.5774-0.0000 0.0000 (   402 PWs)   bands (ev):

     2.9322  11.0135  11.0135  12.4114  13.8230  20.6192

     occupation numbers 
     1.0000   0.0000   0.0000   0.0000   0.0000   0.0000

          k = 0.6255-0.0481-0.0000 (   400 PWs)   bands (ev):

     4.0267   9.8136  10.6246  12.3719  13.7974  18.9344

     occupation numbers 
     1.0000   0.0000   0.0000   0.0000   0.0000   0.0000

          k = 0.6736-0.0962 0.0000 (   398 PWs)   bands (ev):

     5.2704   8.2344  10.3913  12.3271  14.5976  17.3887

     occupation numbers 
     1.0000   0.0000   0.0000   0.0000   0.0000   0.0000

          k = 0.6736-0.0481-0.0481 (   396 PWs)   bands (ev):

     5.1906   9.3427   9.6788  12.5899  13.6443  17.3068

     occupation numbers 
     1.0000   0.0000   0.0000   0.0000   0.0000   0.0000

          k =-0.1443-0.1443 0.8660 (   394 PWs)   bands (ev):

     6.4512   6.9270  10.3135  12.2805  15.4578  16.3248

     occupation numbers 
     1.0000   1.0000   0.0000   0.0000   0.0000   0.0000

          k =-0.1443-0.0962 0.8179 (   397 PWs)   bands (ev):

     6.4837   7.9853   9.3953  12.7897  14.2720  15.9141

     occupation numbers 
     1.0000   0.0048   0.0000   0.0000   0.0000   0.0000

          k =-0.0962-0.0962 0.7698 (   394 PWs)   bands (ev):

     7.6737   7.6737   8.3731  13.7537  13.7537  15.1541

     occupation numbers 
     0.9625   0.9625   0.0000   0.0000   0.0000   0.0000

          k = 0.6736 0.0000-0.0000 (   402 PWs)   bands (ev):

     5.1094  10.2353  10.2353  11.5346  12.9541  17.2267

     occupation numbers 
     1.0000   0.0000   0.0000   0.0000   0.0000   0.0000

          k = 0.7217-0.0481 0.0000 (   390 PWs)   bands (ev):

     6.3368   9.1722  10.0017  11.6755  13.0357  15.6996

     occupation numbers 
     1.0000   0.0000   0.0000   0.0000   0.0000   0.0000

          k =-0.0962-0.0962 0.8660 (   390 PWs)   bands (ev):

     7.5097   7.9273   9.9238  11.7512  13.5868  14.7632

     occupation numbers 
     1.0381   0.0263   0.0000   0.0000   0.0000   0.0000

          k =-0.0962-0.0481 0.8179 (   392 PWs)   bands (ev):

     7.6006   8.8569   9.2126  12.0822  12.7989  14.4499

     occupation numbers 
     1.0828   0.0000   0.0000   0.0000   0.0000   0.0000

          k = 0.7698 0.0000 0.0000 (   394 PWs)   bands (ev):

     7.5371   9.7679   9.7679  11.0083  12.1849  14.2735

     occupation numbers 
     1.0564   0.0000   0.0000   0.0000   0.0000   0.0000

          k =-0.0481-0.0481 0.8660 (   390 PWs)   bands (ev):

     8.6948   8.9626   9.6900  11.2426  11.9131  13.5747

     occupation numbers 
     0.0000   0.0000   0.0000   0.0000   0.0000   0.0000

          k =-0.8660-0.8660 0.8660 (   370 PWs)   bands (ev):

     9.6120   9.6120   9.6120  10.8328  10.8328  13.1135

     occupation numbers 
     0.0000   0.0000   0.0000   0.0000   0.0000   0.0000

     the Fermi energy is     7.7868 ev

!    total energy              =      -6.70069668 Ry
     Harris-Foulkes estimate   =      -6.70069665 Ry
     estimated scf accuracy    <       0.00000079 Ry

     The total energy is the sum of the following terms:

     one-electron contribution =       2.96223636 Ry
     hartree contribution      =       0.00558589 Ry
     xc contribution           =      -4.28672204 Ry
     ewald contribution        =      -5.38183349 Ry
     smearing contrib. (-TS)   =       0.00003660 Ry

     convergence has been achieved in   3 iterations
 
     init_run     :      5.40s CPU      0.50s WALL (       1 calls)
     electrons    :     61.15s CPU      4.95s WALL (       1 calls)

     Called by init_run:
     wfcinit      :      5.21s CPU      0.40s WALL (       1 calls)
     wfcinit:atom :      0.15s CPU      0.01s WALL (     195 calls)
     wfcinit:wfcr :      4.74s CPU      0.37s WALL (     195 calls)
     potinit      :      0.01s CPU      0.00s WALL (       1 calls)

     Called by electrons:
     c_bands      :     56.06s CPU      4.38s WALL (       4 calls)
     sum_band     :      4.89s CPU      0.55s WALL (       4 calls)
     v_of_rho     :      0.04s CPU      0.01s WALL (       4 calls)
     v_h          :      0.00s CPU      0.00s WALL (       4 calls)
     v_xc         :      0.03s CPU      0.01s WALL (       4 calls)
     newd         :      0.16s CPU      0.01s WALL (       4 calls)
     mix_rho      :      0.00s CPU      0.00s WALL (       4 calls)

     Called by c_bands:
     init_us_2    :      1.33s CPU      0.13s WALL (    1755 calls)
     cegterg      :     51.26s CPU      3.93s WALL (     780 calls)

     Called by sum_band:
     sum_band:bec :      0.08s CPU      0.01s WALL (     780 calls)
     addusdens    :      0.05s CPU      0.01s WALL (       4 calls)

     Called by *egterg:
     h_psi        :     46.66s CPU      3.63s WALL (    2724 calls)
     s_psi        :      0.51s CPU      0.04s WALL (    2724 calls)
     g_psi        :      0.26s CPU      0.02s WALL (    1749 calls)
     cdiaghg      :      2.98s CPU      0.22s WALL (    2334 calls)
     cegterg:over :      0.81s CPU      0.06s WALL (    1749 calls)
     cegterg:upda :      0.63s CPU      0.05s WALL (    1749 calls)
     cegterg:last :      0.50s CPU      0.04s WALL (     888 calls)

     Called by h_psi:
     h_psi:pot    :     46.11s CPU      3.59s WALL (    2724 calls)
     h_psi:calbec :      0.84s CPU      0.06s WALL (    2724 calls)
     vloc_psi     :     43.83s CPU      3.44s WALL (    2724 calls)
     add_vuspsi   :      0.59s CPU      0.05s WALL (    2724 calls)

     General routines
     calbec       :      0.54s CPU      0.05s WALL (    3504 calls)
     fft          :      0.01s CPU      0.02s WALL (      54 calls)
     fftw         :     39.17s CPU      3.25s WALL (   31506 calls)
 
     Parallel routines
 
     PWSCF        :  1m 6.69s CPU     0m 5.51s WALL

 
   This run was terminated on:  19: 9: 5  30Jan2019            

=------------------------------------------------------------------------------=
   JOB DONE.
=------------------------------------------------------------------------------=
