
     Program PWSCF v.6.2 (svn rev. 14038) starts on 31Jan2019 at  0: 9:14 

     This program is part of the open-source Quantum ESPRESSO suite
     for quantum simulation of materials; please cite
         "P. Giannozzi et al., J. Phys.:Condens. Matter 21 395502 (2009);
         "P. Giannozzi et al., J. Phys.:Condens. Matter 29 465901 (2017);
          URL http://www.quantum-espresso.org", 
     in publications or presentations arising from this work. More details at
     http://www.quantum-espresso.org/quote

     Parallel version (MPI), running on     1 processors

     MPI processes distributed on     1 nodes
     Reading input from ./57bbff0d649a.in
Warning: card &CELL ignored
Warning: card / ignored

     Current dimensions of program PWSCF are:
     Max number of different atomic species (ntypx) = 10
     Max number of k-points (npk) =  40000
     Max angular momentum in pseudopotentials (lmaxx) =  3
     Message from routine iosys:
     minimal I/O required, wf_collect reset to FALSE

     Subspace diagonalization in iterative solution of the eigenvalue problem:
     a serial algorithm will be used

 
     G-vector sticks info
     --------------------
     sticks:   dense  smooth     PW     G-vecs:    dense   smooth      PW
     Sum         241     241     85                 2397     2397     531
 


     bravais-lattice index     =            0
     lattice parameter (alat)  =       4.9120  a.u.
     unit-cell volume          =      83.8044 (a.u.)^3
     number of atoms/cell      =            1
     number of atomic types    =            1
     number of electrons       =         4.00
     number of Kohn-Sham states=            6
     kinetic-energy cutoff     =      35.0000  Ry
     charge density cutoff     =     140.0000  Ry
     convergence threshold     =      1.0E-06
     mixing beta               =       0.7000
     number of iterations used =            8  plain     mixing
     Exchange-correlation      = SLA  PW   PBE  PBE ( 1  4  3  4 0 0)
     nstep                     =           50


     celldm(1)=   4.912026  celldm(2)=   0.000000  celldm(3)=   0.000000
     celldm(4)=   0.000000  celldm(5)=   0.000000  celldm(6)=   0.000000

     crystal axes: (cart. coord. in units of alat)
               a(1) = (   0.866025   0.000000   0.500000 )  
               a(2) = (   0.288675   0.816497   0.500000 )  
               a(3) = (   0.000000   0.000000   1.000000 )  

     reciprocal axes: (cart. coord. in units 2 pi/alat)
               b(1) = (  1.154700 -0.408248  0.000000 )  
               b(2) = (  0.000000  1.224745  0.000000 )  
               b(3) = ( -0.577350 -0.408248  1.000000 )  


     PseudoPot. # 1 for Si read from file:
     ./si_pbe_v1.uspp.F.UPF
     MD5 check sum: a056efeee980c13900f22a371efd63c1
     Pseudo is Ultrasoft + core correction, Zval =  4.0
     Generated by new atomic code, or converted to UPF format
     Using radial grid of  899 points,  6 beta functions with: 
                l(1) =   0
                l(2) =   0
                l(3) =   1
                l(4) =   1
                l(5) =   2
                l(6) =   2
     Q(r) pseudized with  8 coefficients,  rinner =    0.900   0.900   0.900
                                                       0.900   0.900

     atomic species   valence    mass     pseudopotential
        Si             4.00    28.08550     Si( 1.00)

      4 Sym. Ops., with inversion, found


                                    s                        frac. trans.

      isym =  1     identity                                     

 cryst.   s( 1) = (     1          0          0      )
                  (     0          1          0      )
                  (     0          0          1      )

 cart.    s( 1) = (  1.0000000  0.0000000  0.0000000 )
                  (  0.0000000  1.0000000  0.0000000 )
                  (  0.0000000  0.0000000  1.0000000 )


      isym =  2     180 deg rotation - cart. axis [0,0,1]        

 cryst.   s( 2) = (    -1          0          1      )
                  (     0         -1          1      )
                  (     0          0          1      )

 cart.    s( 2) = ( -1.0000000  0.0000000  0.0000000 )
                  (  0.0000000 -1.0000000  0.0000000 )
                  (  0.0000000  0.0000000  1.0000000 )


      isym =  3     inversion                                    

 cryst.   s( 3) = (    -1          0          0      )
                  (     0         -1          0      )
                  (     0          0         -1      )

 cart.    s( 3) = ( -1.0000000  0.0000000  0.0000000 )
                  (  0.0000000 -1.0000000  0.0000000 )
                  (  0.0000000  0.0000000 -1.0000000 )


      isym =  4     inv. 180 deg rotation - cart. axis [0,0,1]   

 cryst.   s( 4) = (     1          0         -1      )
                  (     0          1         -1      )
                  (     0          0         -1      )

 cart.    s( 4) = (  1.0000000  0.0000000  0.0000000 )
                  (  0.0000000  1.0000000  0.0000000 )
                  (  0.0000000  0.0000000 -1.0000000 )


   Cartesian axes

     site n.     atom                  positions (alat units)
         1           Si  tau(   1) = (   0.0000000   0.0000000   0.0000000  )

   Crystallographic axes

     site n.     atom                  positions (cryst. coord.)
         1           Si  tau(   1) = (  0.0000000  0.0000000  0.0000000  )

     number of k points=   476  Marzari-Vanderbilt smearing, width (Ry)=  0.0038
                       cart. coord. in units 2pi/alat
        k(    1) = (   0.0000000   0.0000000   0.0000000), wk =   0.0011574
        k(    2) = (  -0.0481125  -0.0340207   0.0833333), wk =   0.0046296
        k(    3) = (  -0.0962250  -0.0680414   0.1666667), wk =   0.0046296
        k(    4) = (  -0.1443376  -0.1020621   0.2500000), wk =   0.0046296
        k(    5) = (  -0.1924501  -0.1360828   0.3333334), wk =   0.0046296
        k(    6) = (  -0.2405626  -0.1701035   0.4166667), wk =   0.0046296
        k(    7) = (   0.2886751   0.2041242  -0.5000001), wk =   0.0023148
        k(    8) = (   0.0000000   0.1020621   0.0000000), wk =   0.0023148
        k(    9) = (  -0.0481125   0.0680414   0.0833333), wk =   0.0046296
        k(   10) = (  -0.0962250   0.0340207   0.1666667), wk =   0.0046296
        k(   11) = (  -0.1443376  -0.0000000   0.2500000), wk =   0.0046296
        k(   12) = (  -0.1924501  -0.0340208   0.3333334), wk =   0.0046296
        k(   13) = (  -0.2405626  -0.0680415   0.4166667), wk =   0.0046296
        k(   14) = (   0.2886751   0.3061863  -0.5000001), wk =   0.0046296
        k(   15) = (   0.2405626   0.2721656  -0.4166667), wk =   0.0046296
        k(   16) = (   0.1924501   0.2381449  -0.3333334), wk =   0.0046296
        k(   17) = (   0.1443376   0.2041242  -0.2500000), wk =   0.0046296
        k(   18) = (   0.0962250   0.1701035  -0.1666667), wk =   0.0046296
        k(   19) = (   0.0481125   0.1360828  -0.0833333), wk =   0.0046296
        k(   20) = (   0.0000000   0.2041241   0.0000000), wk =   0.0023148
        k(   21) = (  -0.0481125   0.1701034   0.0833333), wk =   0.0046296
        k(   22) = (  -0.0962250   0.1360827   0.1666667), wk =   0.0046296
        k(   23) = (  -0.1443376   0.1020620   0.2500000), wk =   0.0046296
        k(   24) = (  -0.1924501   0.0680413   0.3333334), wk =   0.0046296
        k(   25) = (  -0.2405626   0.0340206   0.4166667), wk =   0.0046296
        k(   26) = (   0.2886751   0.4082484  -0.5000001), wk =   0.0046296
        k(   27) = (   0.2405626   0.3742277  -0.4166667), wk =   0.0046296
        k(   28) = (   0.1924501   0.3402070  -0.3333334), wk =   0.0046296
        k(   29) = (   0.1443376   0.3061863  -0.2500000), wk =   0.0046296
        k(   30) = (   0.0962250   0.2721656  -0.1666667), wk =   0.0046296
        k(   31) = (   0.0481125   0.2381449  -0.0833333), wk =   0.0046296
        k(   32) = (   0.0000000   0.3061862   0.0000000), wk =   0.0023148
        k(   33) = (  -0.0481125   0.2721655   0.0833333), wk =   0.0046296
        k(   34) = (  -0.0962250   0.2381448   0.1666667), wk =   0.0046296
        k(   35) = (  -0.1443376   0.2041241   0.2500000), wk =   0.0046296
        k(   36) = (  -0.1924501   0.1701034   0.3333334), wk =   0.0046296
        k(   37) = (  -0.2405626   0.1360827   0.4166667), wk =   0.0046296
        k(   38) = (   0.2886751   0.5103105  -0.5000001), wk =   0.0046296
        k(   39) = (   0.2405626   0.4762898  -0.4166667), wk =   0.0046296
        k(   40) = (   0.1924501   0.4422690  -0.3333334), wk =   0.0046296
        k(   41) = (   0.1443376   0.4082483  -0.2500000), wk =   0.0046296
        k(   42) = (   0.0962250   0.3742276  -0.1666667), wk =   0.0046296
        k(   43) = (   0.0481125   0.3402069  -0.0833333), wk =   0.0046296
        k(   44) = (   0.0000000   0.4082483   0.0000000), wk =   0.0023148
        k(   45) = (  -0.0481125   0.3742276   0.0833333), wk =   0.0046296
        k(   46) = (  -0.0962250   0.3402069   0.1666667), wk =   0.0046296
        k(   47) = (  -0.1443376   0.3061862   0.2500000), wk =   0.0046296
        k(   48) = (  -0.1924501   0.2721655   0.3333334), wk =   0.0046296
        k(   49) = (  -0.2405626   0.2381448   0.4166667), wk =   0.0046296
        k(   50) = (   0.2886751   0.6123725  -0.5000001), wk =   0.0046296
        k(   51) = (   0.2405626   0.5783518  -0.4166667), wk =   0.0046296
        k(   52) = (   0.1924501   0.5443311  -0.3333334), wk =   0.0046296
        k(   53) = (   0.1443376   0.5103104  -0.2500000), wk =   0.0046296
        k(   54) = (   0.0962250   0.4762897  -0.1666667), wk =   0.0046296
        k(   55) = (   0.0481125   0.4422690  -0.0833333), wk =   0.0046296
        k(   56) = (   0.0000000   0.5103104   0.0000000), wk =   0.0023148
        k(   57) = (  -0.0481125   0.4762897   0.0833333), wk =   0.0046296
        k(   58) = (  -0.0962250   0.4422690   0.1666667), wk =   0.0046296
        k(   59) = (  -0.1443376   0.4082482   0.2500000), wk =   0.0046296
        k(   60) = (  -0.1924501   0.3742275   0.3333334), wk =   0.0046296
        k(   61) = (  -0.2405626   0.3402068   0.4166667), wk =   0.0046296
        k(   62) = (   0.2886751   0.7144346  -0.5000001), wk =   0.0046296
        k(   63) = (   0.2405626   0.6804139  -0.4166667), wk =   0.0046296
        k(   64) = (   0.1924501   0.6463932  -0.3333334), wk =   0.0046296
        k(   65) = (   0.1443376   0.6123725  -0.2500000), wk =   0.0046296
        k(   66) = (   0.0962250   0.5783518  -0.1666667), wk =   0.0046296
        k(   67) = (   0.0481125   0.5443311  -0.0833333), wk =   0.0046296
        k(   68) = (   0.0000000  -0.6123724   0.0000000), wk =   0.0011574
        k(   69) = (  -0.0481125  -0.6463931   0.0833333), wk =   0.0046296
        k(   70) = (  -0.0962250  -0.6804139   0.1666667), wk =   0.0046296
        k(   71) = (  -0.1443376  -0.7144346   0.2500000), wk =   0.0046296
        k(   72) = (  -0.1924501  -0.7484553   0.3333334), wk =   0.0046296
        k(   73) = (  -0.2405626  -0.7824760   0.4166667), wk =   0.0046296
        k(   74) = (   0.2886751  -0.4082482  -0.5000001), wk =   0.0023148
        k(   75) = (   0.0962250  -0.0340207   0.0000000), wk =   0.0023148
        k(   76) = (   0.0000000  -0.1020621   0.1666667), wk =   0.0046296
        k(   77) = (  -0.0481125  -0.1360828   0.2500000), wk =   0.0046296
        k(   78) = (  -0.0962250  -0.1701035   0.3333334), wk =   0.0046296
        k(   79) = (  -0.1443376  -0.2041242   0.4166667), wk =   0.0046296
        k(   80) = (   0.3849002   0.1701036  -0.5000001), wk =   0.0046296
        k(   81) = (   0.3367876   0.1360829  -0.4166667), wk =   0.0046296
        k(   82) = (   0.2886751   0.1020622  -0.3333334), wk =   0.0046296
        k(   83) = (   0.2405626   0.0680415  -0.2500000), wk =   0.0046296
        k(   84) = (   0.1924501   0.0340208  -0.1666667), wk =   0.0046296
        k(   85) = (   0.1443376   0.0000000  -0.0833333), wk =   0.0046296
        k(   86) = (   0.0962250   0.0680414   0.0000000), wk =   0.0023148
        k(   87) = (   0.0000000  -0.0000000   0.1666667), wk =   0.0023148
        k(   88) = (  -0.0481125  -0.0340207   0.2500000), wk =   0.0046296
        k(   89) = (  -0.0962250  -0.0680414   0.3333334), wk =   0.0046296
        k(   90) = (  -0.1443376  -0.1020621   0.4166667), wk =   0.0046296
        k(   91) = (   0.3849002   0.2721656  -0.5000001), wk =   0.0046296
        k(   92) = (   0.3367876   0.2381449  -0.4166667), wk =   0.0046296
        k(   93) = (   0.2886751   0.2041242  -0.3333334), wk =   0.0046296
        k(   94) = (   0.2405626   0.1701035  -0.2500000), wk =   0.0046296
        k(   95) = (   0.1924501   0.1360828  -0.1666667), wk =   0.0046296
        k(   96) = (   0.1443376   0.1020621  -0.0833333), wk =   0.0046296
        k(   97) = (   0.0962250   0.1701035   0.0000000), wk =   0.0023148
        k(   98) = (  -0.0481125   0.0680414   0.2500000), wk =   0.0046296
        k(   99) = (  -0.0962250   0.0340207   0.3333334), wk =   0.0046296
        k(  100) = (  -0.1443376  -0.0000000   0.4166667), wk =   0.0046296
        k(  101) = (   0.3849002   0.3742277  -0.5000001), wk =   0.0046296
        k(  102) = (   0.3367876   0.3402070  -0.4166667), wk =   0.0046296
        k(  103) = (   0.2886751   0.3061863  -0.3333334), wk =   0.0046296
        k(  104) = (   0.2405626   0.2721656  -0.2500000), wk =   0.0046296
        k(  105) = (   0.1924501   0.2381449  -0.1666667), wk =   0.0046296
        k(  106) = (   0.1443376   0.2041242  -0.0833333), wk =   0.0046296
        k(  107) = (   0.0962250   0.2721656   0.0000000), wk =   0.0023148
        k(  108) = (   0.0000000   0.2041241   0.1666667), wk =   0.0046296
        k(  109) = (  -0.0481125   0.1701034   0.2500000), wk =   0.0046296
        k(  110) = (  -0.0962250   0.1360827   0.3333334), wk =   0.0046296
        k(  111) = (  -0.1443376   0.1020620   0.4166667), wk =   0.0046296
        k(  112) = (   0.3849002   0.4762898  -0.5000001), wk =   0.0046296
        k(  113) = (   0.3367876   0.4422691  -0.4166667), wk =   0.0046296
        k(  114) = (   0.2886751   0.4082484  -0.3333334), wk =   0.0046296
        k(  115) = (   0.2405626   0.3742277  -0.2500000), wk =   0.0046296
        k(  116) = (   0.1924501   0.3402070  -0.1666667), wk =   0.0046296
        k(  117) = (   0.1443376   0.3061863  -0.0833333), wk =   0.0046296
        k(  118) = (   0.0962250   0.3742276   0.0000000), wk =   0.0023148
        k(  119) = (   0.0000000   0.3061862   0.1666667), wk =   0.0046296
        k(  120) = (  -0.0481125   0.2721655   0.2500000), wk =   0.0046296
        k(  121) = (  -0.0962250   0.2381448   0.3333334), wk =   0.0046296
        k(  122) = (  -0.1443376   0.2041241   0.4166667), wk =   0.0046296
        k(  123) = (   0.3849002   0.5783519  -0.5000001), wk =   0.0046296
        k(  124) = (   0.3367876   0.5443312  -0.4166667), wk =   0.0046296
        k(  125) = (   0.2886751   0.5103105  -0.3333334), wk =   0.0046296
        k(  126) = (   0.2405626   0.4762898  -0.2500000), wk =   0.0046296
        k(  127) = (   0.1924501   0.4422690  -0.1666667), wk =   0.0046296
        k(  128) = (   0.1443376   0.4082483  -0.0833333), wk =   0.0046296
        k(  129) = (   0.0962250   0.4762897   0.0000000), wk =   0.0023148
        k(  130) = (   0.0000000   0.4082483   0.1666667), wk =   0.0046296
        k(  131) = (  -0.0481125   0.3742276   0.2500000), wk =   0.0046296
        k(  132) = (  -0.0962250   0.3402069   0.3333334), wk =   0.0046296
        k(  133) = (  -0.1443376   0.3061862   0.4166667), wk =   0.0046296
        k(  134) = (   0.3849002   0.6804139  -0.5000001), wk =   0.0046296
        k(  135) = (   0.3367876   0.6463932  -0.4166667), wk =   0.0046296
        k(  136) = (   0.2886751   0.6123725  -0.3333334), wk =   0.0046296
        k(  137) = (   0.2405626   0.5783518  -0.2500000), wk =   0.0046296
        k(  138) = (   0.1924501   0.5443311  -0.1666667), wk =   0.0046296
        k(  139) = (   0.1443376   0.5103104  -0.0833333), wk =   0.0046296
        k(  140) = (   0.0962250  -0.6463931   0.0000000), wk =   0.0023148
        k(  141) = (   0.0000000  -0.7144345   0.1666667), wk =   0.0046296
        k(  142) = (  -0.0481125  -0.7484552   0.2500000), wk =   0.0046296
        k(  143) = (  -0.0962250  -0.7824759   0.3333334), wk =   0.0046296
        k(  144) = (  -0.1443376  -0.8164966   0.4166667), wk =   0.0046296
        k(  145) = (   0.3849002  -0.4422689  -0.5000001), wk =   0.0046296
        k(  146) = (   0.3367876  -0.4762896  -0.4166667), wk =   0.0046296
        k(  147) = (   0.2886751  -0.5103103  -0.3333334), wk =   0.0046296
        k(  148) = (   0.2405626  -0.5443310  -0.2500000), wk =   0.0046296
        k(  149) = (   0.1924501  -0.5783517  -0.1666667), wk =   0.0046296
        k(  150) = (   0.1443376  -0.6123724  -0.0833333), wk =   0.0046296
        k(  151) = (   0.0962250  -0.5443310   0.0000000), wk =   0.0023148
        k(  152) = (   0.0000000  -0.6123724   0.1666667), wk =   0.0023148
        k(  153) = (  -0.0481125  -0.6463931   0.2500000), wk =   0.0046296
        k(  154) = (  -0.0962250  -0.6804139   0.3333334), wk =   0.0046296
        k(  155) = (  -0.1443376  -0.7144346   0.4166667), wk =   0.0046296
        k(  156) = (   0.3849002  -0.3402068  -0.5000001), wk =   0.0046296
        k(  157) = (   0.3367876  -0.3742275  -0.4166667), wk =   0.0046296
        k(  158) = (   0.2886751  -0.4082482  -0.3333334), wk =   0.0046296
        k(  159) = (   0.2405626  -0.4422689  -0.2500000), wk =   0.0046296
        k(  160) = (   0.1924501  -0.4762896  -0.1666667), wk =   0.0046296
        k(  161) = (   0.1443376  -0.5103103  -0.0833333), wk =   0.0046296
        k(  162) = (   0.0962250  -0.4422690   0.0000000), wk =   0.0023148
        k(  163) = (  -0.0481125  -0.5443311   0.2500000), wk =   0.0046296
        k(  164) = (  -0.0962250  -0.5783518   0.3333334), wk =   0.0046296
        k(  165) = (  -0.1443376  -0.6123725   0.4166667), wk =   0.0046296
        k(  166) = (   0.3849002  -0.2381447  -0.5000001), wk =   0.0046296
        k(  167) = (   0.3367876  -0.2721654  -0.4166667), wk =   0.0046296
        k(  168) = (   0.2886751  -0.3061861  -0.3333334), wk =   0.0046296
        k(  169) = (   0.2405626  -0.3402068  -0.2500000), wk =   0.0046296
        k(  170) = (   0.1924501  -0.3742275  -0.1666667), wk =   0.0046296
        k(  171) = (   0.1443376  -0.4082482  -0.0833333), wk =   0.0046296
        k(  172) = (   0.0962250  -0.3402069   0.0000000), wk =   0.0023148
        k(  173) = (  -0.0481125  -0.4422690   0.2500000), wk =   0.0046296
        k(  174) = (  -0.0962250  -0.4762897   0.3333334), wk =   0.0046296
        k(  175) = (  -0.1443376  -0.5103104   0.4166667), wk =   0.0046296
        k(  176) = (   0.3849002  -0.1360826  -0.5000001), wk =   0.0046296
        k(  177) = (   0.3367876  -0.1701033  -0.4166667), wk =   0.0046296
        k(  178) = (   0.2886751  -0.2041241  -0.3333334), wk =   0.0046296
        k(  179) = (   0.2405626  -0.2381448  -0.2500000), wk =   0.0046296
        k(  180) = (   0.1924501  -0.2721655  -0.1666667), wk =   0.0046296
        k(  181) = (   0.1443376  -0.3061862  -0.0833333), wk =   0.0046296
        k(  182) = (   0.0962250  -0.2381448   0.0000000), wk =   0.0023148
        k(  183) = (  -0.0481125  -0.3402069   0.2500000), wk =   0.0046296
        k(  184) = (  -0.0962250  -0.3742276   0.3333334), wk =   0.0046296
        k(  185) = (  -0.1443376  -0.4082483   0.4166667), wk =   0.0046296
        k(  186) = (   0.3849002  -0.0340206  -0.5000001), wk =   0.0046296
        k(  187) = (   0.3367876  -0.0680413  -0.4166667), wk =   0.0046296
        k(  188) = (   0.2886751  -0.1020620  -0.3333334), wk =   0.0046296
        k(  189) = (   0.2405626  -0.1360827  -0.2500000), wk =   0.0046296
        k(  190) = (   0.1924501  -0.1701034  -0.1666667), wk =   0.0046296
        k(  191) = (   0.1443376  -0.2041241  -0.0833333), wk =   0.0046296
        k(  192) = (   0.0962250  -0.1360827   0.0000000), wk =   0.0023148
        k(  193) = (  -0.0481125  -0.2381449   0.2500000), wk =   0.0046296
        k(  194) = (  -0.0962250  -0.2721656   0.3333334), wk =   0.0046296
        k(  195) = (  -0.1443376  -0.3061863   0.4166667), wk =   0.0046296
        k(  196) = (   0.3849002   0.0680415  -0.5000001), wk =   0.0046296
        k(  197) = (   0.3367876   0.0340208  -0.4166667), wk =   0.0046296
        k(  198) = (   0.2886751   0.0000001  -0.3333334), wk =   0.0046296
        k(  199) = (   0.2405626  -0.0340206  -0.2500000), wk =   0.0046296
        k(  200) = (   0.1924501  -0.0680413  -0.1666667), wk =   0.0046296
        k(  201) = (   0.1443376  -0.1020620  -0.0833333), wk =   0.0046296
        k(  202) = (   0.1924501  -0.0680413   0.0000000), wk =   0.0023148
        k(  203) = (   0.0000000  -0.2041241   0.3333334), wk =   0.0046296
        k(  204) = (  -0.0481125  -0.2381449   0.4166667), wk =   0.0046296
        k(  205) = (   0.4811252   0.1360829  -0.5000001), wk =   0.0046296
        k(  206) = (   0.4330127   0.1020622  -0.4166667), wk =   0.0046296
        k(  207) = (   0.3849002   0.0680415  -0.3333334), wk =   0.0046296
        k(  208) = (   0.3367876   0.0340208  -0.2500000), wk =   0.0046296
        k(  209) = (   0.2886751   0.0000001  -0.1666667), wk =   0.0046296
        k(  210) = (   0.2405626  -0.0340206  -0.0833333), wk =   0.0046296
        k(  211) = (   0.1924501   0.0340208   0.0000000), wk =   0.0023148
        k(  212) = (   0.0000000  -0.1020621   0.3333334), wk =   0.0046296
        k(  213) = (  -0.0481125  -0.1360828   0.4166667), wk =   0.0046296
        k(  214) = (   0.4811252   0.2381450  -0.5000001), wk =   0.0046296
        k(  215) = (   0.4330127   0.2041243  -0.4166667), wk =   0.0046296
        k(  216) = (   0.3849002   0.1701036  -0.3333334), wk =   0.0046296
        k(  217) = (   0.3367876   0.1360829  -0.2500000), wk =   0.0046296
        k(  218) = (   0.2886751   0.1020622  -0.1666667), wk =   0.0046296
        k(  219) = (   0.2405626   0.0680415  -0.0833333), wk =   0.0046296
        k(  220) = (   0.1924501   0.1360828   0.0000000), wk =   0.0023148
        k(  221) = (   0.0000000  -0.0000000   0.3333334), wk =   0.0023148
        k(  222) = (  -0.0481125  -0.0340207   0.4166667), wk =   0.0046296
        k(  223) = (   0.4811252   0.3402071  -0.5000001), wk =   0.0046296
        k(  224) = (   0.4330127   0.3061864  -0.4166667), wk =   0.0046296
        k(  225) = (   0.3849002   0.2721656  -0.3333334), wk =   0.0046296
        k(  226) = (   0.3367876   0.2381449  -0.2500000), wk =   0.0046296
        k(  227) = (   0.2886751   0.2041242  -0.1666667), wk =   0.0046296
        k(  228) = (   0.2405626   0.1701035  -0.0833333), wk =   0.0046296
        k(  229) = (   0.1924501   0.2381449   0.0000000), wk =   0.0023148
        k(  230) = (  -0.0481125   0.0680414   0.4166667), wk =   0.0046296
        k(  231) = (   0.4811252   0.4422691  -0.5000001), wk =   0.0046296
        k(  232) = (   0.4330127   0.4082484  -0.4166667), wk =   0.0046296
        k(  233) = (   0.3849002   0.3742277  -0.3333334), wk =   0.0046296
        k(  234) = (   0.3367876   0.3402070  -0.2500000), wk =   0.0046296
        k(  235) = (   0.2886751   0.3061863  -0.1666667), wk =   0.0046296
        k(  236) = (   0.2405626   0.2721656  -0.0833333), wk =   0.0046296
        k(  237) = (   0.1924501   0.3402070   0.0000000), wk =   0.0023148
        k(  238) = (  -0.0481125   0.1701034   0.4166667), wk =   0.0046296
        k(  239) = (   0.4811252   0.5443312  -0.5000001), wk =   0.0046296
        k(  240) = (   0.4330127   0.5103105  -0.4166667), wk =   0.0046296
        k(  241) = (   0.3849002   0.4762898  -0.3333334), wk =   0.0046296
        k(  242) = (   0.3367876   0.4422691  -0.2500000), wk =   0.0046296
        k(  243) = (   0.2886751   0.4082484  -0.1666667), wk =   0.0046296
        k(  244) = (   0.2405626   0.3742277  -0.0833333), wk =   0.0046296
        k(  245) = (   0.1924501   0.4422690   0.0000000), wk =   0.0023148
        k(  246) = (   0.0000000   0.3061862   0.3333334), wk =   0.0046296
        k(  247) = (  -0.0481125   0.2721655   0.4166667), wk =   0.0046296
        k(  248) = (   0.4811252   0.6463933  -0.5000001), wk =   0.0046296
        k(  249) = (   0.4330127   0.6123726  -0.4166667), wk =   0.0046296
        k(  250) = (   0.3849002   0.5783519  -0.3333334), wk =   0.0046296
        k(  251) = (   0.3367876   0.5443312  -0.2500000), wk =   0.0046296
        k(  252) = (   0.2886751   0.5103105  -0.1666667), wk =   0.0046296
        k(  253) = (   0.2405626   0.4762898  -0.0833333), wk =   0.0046296
        k(  254) = (   0.1924501  -0.6804138   0.0000000), wk =   0.0023148
        k(  255) = (   0.0000000  -0.8164966   0.3333334), wk =   0.0046296
        k(  256) = (  -0.0481125  -0.8505173   0.4166667), wk =   0.0046296
        k(  257) = (   0.4811252  -0.4762895  -0.5000001), wk =   0.0046296
        k(  258) = (   0.4330127  -0.5103102  -0.4166667), wk =   0.0046296
        k(  259) = (   0.3849002  -0.5443309  -0.3333334), wk =   0.0046296
        k(  260) = (   0.3367876  -0.5783516  -0.2500000), wk =   0.0046296
        k(  261) = (   0.2886751  -0.6123723  -0.1666667), wk =   0.0046296
        k(  262) = (   0.2405626  -0.6463931  -0.0833333), wk =   0.0046296
        k(  263) = (   0.1924501  -0.5783517   0.0000000), wk =   0.0023148
        k(  264) = (   0.0000000  -0.7144345   0.3333334), wk =   0.0046296
        k(  265) = (  -0.0481125  -0.7484552   0.4166667), wk =   0.0046296
        k(  266) = (   0.4811252  -0.3742275  -0.5000001), wk =   0.0046296
        k(  267) = (   0.4330127  -0.4082482  -0.4166667), wk =   0.0046296
        k(  268) = (   0.3849002  -0.4422689  -0.3333334), wk =   0.0046296
        k(  269) = (   0.3367876  -0.4762896  -0.2500000), wk =   0.0046296
        k(  270) = (   0.2886751  -0.5103103  -0.1666667), wk =   0.0046296
        k(  271) = (   0.2405626  -0.5443310  -0.0833333), wk =   0.0046296
        k(  272) = (   0.1924501  -0.4762896   0.0000000), wk =   0.0023148
        k(  273) = (   0.0000000  -0.6123724   0.3333334), wk =   0.0023148
        k(  274) = (  -0.0481125  -0.6463931   0.4166667), wk =   0.0046296
        k(  275) = (   0.4811252  -0.2721654  -0.5000001), wk =   0.0046296
        k(  276) = (   0.4330127  -0.3061861  -0.4166667), wk =   0.0046296
        k(  277) = (   0.3849002  -0.3402068  -0.3333334), wk =   0.0046296
        k(  278) = (   0.3367876  -0.3742275  -0.2500000), wk =   0.0046296
        k(  279) = (   0.2886751  -0.4082482  -0.1666667), wk =   0.0046296
        k(  280) = (   0.2405626  -0.4422689  -0.0833333), wk =   0.0046296
        k(  281) = (   0.1924501  -0.3742275   0.0000000), wk =   0.0023148
        k(  282) = (  -0.0481125  -0.5443311   0.4166667), wk =   0.0046296
        k(  283) = (   0.4811252  -0.1701033  -0.5000001), wk =   0.0046296
        k(  284) = (   0.4330127  -0.2041240  -0.4166667), wk =   0.0046296
        k(  285) = (   0.3849002  -0.2381447  -0.3333334), wk =   0.0046296
        k(  286) = (   0.3367876  -0.2721654  -0.2500000), wk =   0.0046296
        k(  287) = (   0.2886751  -0.3061861  -0.1666667), wk =   0.0046296
        k(  288) = (   0.2405626  -0.3402068  -0.0833333), wk =   0.0046296
        k(  289) = (   0.1924501  -0.2721655   0.0000000), wk =   0.0023148
        k(  290) = (  -0.0481125  -0.4422690   0.4166667), wk =   0.0046296
        k(  291) = (   0.4811252  -0.0680412  -0.5000001), wk =   0.0046296
        k(  292) = (   0.4330127  -0.1020619  -0.4166667), wk =   0.0046296
        k(  293) = (   0.3849002  -0.1360826  -0.3333334), wk =   0.0046296
        k(  294) = (   0.3367876  -0.1701033  -0.2500000), wk =   0.0046296
        k(  295) = (   0.2886751  -0.2041241  -0.1666667), wk =   0.0046296
        k(  296) = (   0.2405626  -0.2381448  -0.0833333), wk =   0.0046296
        k(  297) = (   0.1924501  -0.1701034   0.0000000), wk =   0.0023148
        k(  298) = (  -0.0481125  -0.3402069   0.4166667), wk =   0.0046296
        k(  299) = (   0.4811252   0.0340208  -0.5000001), wk =   0.0046296
        k(  300) = (   0.4330127   0.0000001  -0.4166667), wk =   0.0046296
        k(  301) = (   0.3849002  -0.0340206  -0.3333334), wk =   0.0046296
        k(  302) = (   0.3367876  -0.0680413  -0.2500000), wk =   0.0046296
        k(  303) = (   0.2886751  -0.1020620  -0.1666667), wk =   0.0046296
        k(  304) = (   0.2405626  -0.1360827  -0.0833333), wk =   0.0046296
        k(  305) = (   0.2886751  -0.1020620   0.0000000), wk =   0.0023148
        k(  306) = (   0.5773502   0.1020623  -0.5000001), wk =   0.0046296
        k(  307) = (   0.5292377   0.0680415  -0.4166667), wk =   0.0046296
        k(  308) = (   0.4811252   0.0340208  -0.3333334), wk =   0.0046296
        k(  309) = (   0.4330127   0.0000001  -0.2500000), wk =   0.0046296
        k(  310) = (   0.3849002  -0.0340206  -0.1666667), wk =   0.0046296
        k(  311) = (   0.3367876  -0.0680413  -0.0833333), wk =   0.0046296
        k(  312) = (   0.2886751   0.0000001   0.0000000), wk =   0.0023148
        k(  313) = (   0.5773502   0.2041243  -0.5000001), wk =   0.0046296
        k(  314) = (   0.5292377   0.1701036  -0.4166667), wk =   0.0046296
        k(  315) = (   0.4811252   0.1360829  -0.3333334), wk =   0.0046296
        k(  316) = (   0.4330127   0.1020622  -0.2500000), wk =   0.0046296
        k(  317) = (   0.3849002   0.0680415  -0.1666667), wk =   0.0046296
        k(  318) = (   0.3367876   0.0340208  -0.0833333), wk =   0.0046296
        k(  319) = (   0.2886751   0.1020622   0.0000000), wk =   0.0023148
        k(  320) = (   0.5773502   0.3061864  -0.5000001), wk =   0.0046296
        k(  321) = (   0.5292377   0.2721657  -0.4166667), wk =   0.0046296
        k(  322) = (   0.4811252   0.2381450  -0.3333334), wk =   0.0046296
        k(  323) = (   0.4330127   0.2041243  -0.2500000), wk =   0.0046296
        k(  324) = (   0.3849002   0.1701036  -0.1666667), wk =   0.0046296
        k(  325) = (   0.3367876   0.1360829  -0.0833333), wk =   0.0046296
        k(  326) = (   0.2886751   0.2041242   0.0000000), wk =   0.0023148
        k(  327) = (   0.5773502   0.4082485  -0.5000001), wk =   0.0023148
        k(  328) = (   0.5292377   0.3742278  -0.4166667), wk =   0.0046296
        k(  329) = (   0.4811252   0.3402071  -0.3333334), wk =   0.0046296
        k(  330) = (   0.4330127   0.3061864  -0.2500000), wk =   0.0046296
        k(  331) = (   0.3849002   0.2721656  -0.1666667), wk =   0.0046296
        k(  332) = (   0.3367876   0.2381449  -0.0833333), wk =   0.0046296
        k(  333) = (   0.2886751   0.3061863   0.0000000), wk =   0.0023148
        k(  334) = (   0.5292377   0.4762898  -0.4166667), wk =   0.0046296
        k(  335) = (   0.4811252   0.4422691  -0.3333334), wk =   0.0046296
        k(  336) = (   0.4330127   0.4082484  -0.2500000), wk =   0.0046296
        k(  337) = (   0.3849002   0.3742277  -0.1666667), wk =   0.0046296
        k(  338) = (   0.3367876   0.3402070  -0.0833333), wk =   0.0046296
        k(  339) = (   0.2886751   0.4082484   0.0000000), wk =   0.0023148
        k(  340) = (   0.5292377   0.5783519  -0.4166667), wk =   0.0046296
        k(  341) = (   0.4811252   0.5443312  -0.3333334), wk =   0.0046296
        k(  342) = (   0.4330127   0.5103105  -0.2500000), wk =   0.0046296
        k(  343) = (   0.3849002   0.4762898  -0.1666667), wk =   0.0046296
        k(  344) = (   0.3367876   0.4422691  -0.0833333), wk =   0.0046296
        k(  345) = (   0.2886751  -0.7144344   0.0000000), wk =   0.0023148
        k(  346) = (   0.5292377  -0.5443309  -0.4166667), wk =   0.0046296
        k(  347) = (   0.4811252  -0.5783516  -0.3333334), wk =   0.0046296
        k(  348) = (   0.4330127  -0.6123723  -0.2500000), wk =   0.0046296
        k(  349) = (   0.3849002  -0.6463930  -0.1666667), wk =   0.0046296
        k(  350) = (   0.3367876  -0.6804137  -0.0833333), wk =   0.0046296
        k(  351) = (   0.2886751  -0.6123723   0.0000000), wk =   0.0023148
        k(  352) = (   0.5773502  -0.4082481  -0.5000001), wk =   0.0046296
        k(  353) = (   0.5292377  -0.4422688  -0.4166667), wk =   0.0046296
        k(  354) = (   0.4811252  -0.4762895  -0.3333334), wk =   0.0046296
        k(  355) = (   0.4330127  -0.5103102  -0.2500000), wk =   0.0046296
        k(  356) = (   0.3849002  -0.5443309  -0.1666667), wk =   0.0046296
        k(  357) = (   0.3367876  -0.5783516  -0.0833333), wk =   0.0046296
        k(  358) = (   0.2886751  -0.5103103   0.0000000), wk =   0.0023148
        k(  359) = (   0.5773502  -0.3061860  -0.5000001), wk =   0.0046296
        k(  360) = (   0.5292377  -0.3402067  -0.4166667), wk =   0.0046296
        k(  361) = (   0.4811252  -0.3742275  -0.3333334), wk =   0.0046296
        k(  362) = (   0.4330127  -0.4082482  -0.2500000), wk =   0.0046296
        k(  363) = (   0.3849002  -0.4422689  -0.1666667), wk =   0.0046296
        k(  364) = (   0.3367876  -0.4762896  -0.0833333), wk =   0.0046296
        k(  365) = (   0.2886751  -0.4082482   0.0000000), wk =   0.0023148
        k(  366) = (   0.5773502  -0.2041240  -0.5000001), wk =   0.0023148
        k(  367) = (   0.5292377  -0.2381447  -0.4166667), wk =   0.0046296
        k(  368) = (   0.4811252  -0.2721654  -0.3333334), wk =   0.0046296
        k(  369) = (   0.4330127  -0.3061861  -0.2500000), wk =   0.0046296
        k(  370) = (   0.3849002  -0.3402068  -0.1666667), wk =   0.0046296
        k(  371) = (   0.3367876  -0.3742275  -0.0833333), wk =   0.0046296
        k(  372) = (   0.2886751  -0.3061861   0.0000000), wk =   0.0023148
        k(  373) = (   0.5292377  -0.1360826  -0.4166667), wk =   0.0046296
        k(  374) = (   0.4811252  -0.1701033  -0.3333334), wk =   0.0046296
        k(  375) = (   0.4330127  -0.2041240  -0.2500000), wk =   0.0046296
        k(  376) = (   0.3849002  -0.2381447  -0.1666667), wk =   0.0046296
        k(  377) = (   0.3367876  -0.2721654  -0.0833333), wk =   0.0046296
        k(  378) = (   0.2886751  -0.2041241   0.0000000), wk =   0.0023148
        k(  379) = (   0.5292377  -0.0340205  -0.4166667), wk =   0.0046296
        k(  380) = (   0.4811252  -0.0680412  -0.3333334), wk =   0.0046296
        k(  381) = (   0.4330127  -0.1020619  -0.2500000), wk =   0.0046296
        k(  382) = (   0.3849002  -0.1360826  -0.1666667), wk =   0.0046296
        k(  383) = (   0.3367876  -0.1701033  -0.0833333), wk =   0.0046296
        k(  384) = (   0.3849002  -0.1360826   0.0000000), wk =   0.0023148
        k(  385) = (   0.5773502   0.0000002  -0.3333334), wk =   0.0046296
        k(  386) = (   0.5292377  -0.0340205  -0.2500000), wk =   0.0046296
        k(  387) = (   0.4811252  -0.0680412  -0.1666667), wk =   0.0046296
        k(  388) = (   0.4330127  -0.1020619  -0.0833333), wk =   0.0046296
        k(  389) = (   0.3849002  -0.0340206   0.0000000), wk =   0.0023148
        k(  390) = (   0.5773502   0.1020623  -0.3333334), wk =   0.0046296
        k(  391) = (   0.5292377   0.0680415  -0.2500000), wk =   0.0046296
        k(  392) = (   0.4811252   0.0340208  -0.1666667), wk =   0.0046296
        k(  393) = (   0.4330127   0.0000001  -0.0833333), wk =   0.0046296
        k(  394) = (   0.3849002   0.0680415   0.0000000), wk =   0.0023148
        k(  395) = (   0.5773502   0.2041243  -0.3333334), wk =   0.0046296
        k(  396) = (   0.5292377   0.1701036  -0.2500000), wk =   0.0046296
        k(  397) = (   0.4811252   0.1360829  -0.1666667), wk =   0.0046296
        k(  398) = (   0.4330127   0.1020622  -0.0833333), wk =   0.0046296
        k(  399) = (   0.3849002   0.1701036   0.0000000), wk =   0.0023148
        k(  400) = (   0.5773502   0.3061864  -0.3333334), wk =   0.0046296
        k(  401) = (   0.5292377   0.2721657  -0.2500000), wk =   0.0046296
        k(  402) = (   0.4811252   0.2381450  -0.1666667), wk =   0.0046296
        k(  403) = (   0.4330127   0.2041243  -0.0833333), wk =   0.0046296
        k(  404) = (   0.3849002   0.2721656   0.0000000), wk =   0.0023148
        k(  405) = (   0.5773502   0.4082485  -0.3333334), wk =   0.0023148
        k(  406) = (   0.5292377   0.3742278  -0.2500000), wk =   0.0046296
        k(  407) = (   0.4811252   0.3402071  -0.1666667), wk =   0.0046296
        k(  408) = (   0.4330127   0.3061864  -0.0833333), wk =   0.0046296
        k(  409) = (   0.3849002   0.3742277   0.0000000), wk =   0.0023148
        k(  410) = (   0.5292377   0.4762898  -0.2500000), wk =   0.0046296
        k(  411) = (   0.4811252   0.4422691  -0.1666667), wk =   0.0046296
        k(  412) = (   0.4330127   0.4082484  -0.0833333), wk =   0.0046296
        k(  413) = (   0.3849002  -0.7484551   0.0000000), wk =   0.0023148
        k(  414) = (   0.5292377  -0.6463930  -0.2500000), wk =   0.0046296
        k(  415) = (   0.4811252  -0.6804137  -0.1666667), wk =   0.0046296
        k(  416) = (   0.4330127  -0.7144344  -0.0833333), wk =   0.0046296
        k(  417) = (   0.3849002  -0.6463930   0.0000000), wk =   0.0023148
        k(  418) = (   0.5292377  -0.5443309  -0.2500000), wk =   0.0046296
        k(  419) = (   0.4811252  -0.5783516  -0.1666667), wk =   0.0046296
        k(  420) = (   0.4330127  -0.6123723  -0.0833333), wk =   0.0046296
        k(  421) = (   0.3849002  -0.5443309   0.0000000), wk =   0.0023148
        k(  422) = (   0.5292377  -0.4422688  -0.2500000), wk =   0.0046296
        k(  423) = (   0.4811252  -0.4762895  -0.1666667), wk =   0.0046296
        k(  424) = (   0.4330127  -0.5103102  -0.0833333), wk =   0.0046296
        k(  425) = (   0.3849002  -0.4422689   0.0000000), wk =   0.0023148
        k(  426) = (   0.5773502  -0.3061860  -0.3333334), wk =   0.0046296
        k(  427) = (   0.5292377  -0.3402067  -0.2500000), wk =   0.0046296
        k(  428) = (   0.4811252  -0.3742275  -0.1666667), wk =   0.0046296
        k(  429) = (   0.4330127  -0.4082482  -0.0833333), wk =   0.0046296
        k(  430) = (   0.3849002  -0.3402068   0.0000000), wk =   0.0023148
        k(  431) = (   0.5773502  -0.2041240  -0.3333334), wk =   0.0023148
        k(  432) = (   0.5292377  -0.2381447  -0.2500000), wk =   0.0046296
        k(  433) = (   0.4811252  -0.2721654  -0.1666667), wk =   0.0046296
        k(  434) = (   0.4330127  -0.3061861  -0.0833333), wk =   0.0046296
        k(  435) = (   0.3849002  -0.2381447   0.0000000), wk =   0.0023148
        k(  436) = (   0.5292377  -0.1360826  -0.2500000), wk =   0.0046296
        k(  437) = (   0.4811252  -0.1701033  -0.1666667), wk =   0.0046296
        k(  438) = (   0.4330127  -0.2041240  -0.0833333), wk =   0.0046296
        k(  439) = (   0.4811252  -0.1701033   0.0000000), wk =   0.0023148
        k(  440) = (   0.5773502  -0.1020619  -0.1666667), wk =   0.0046296
        k(  441) = (   0.5292377  -0.1360826  -0.0833333), wk =   0.0046296
        k(  442) = (   0.4811252  -0.0680412   0.0000000), wk =   0.0023148
        k(  443) = (   0.5773502   0.0000002  -0.1666667), wk =   0.0046296
        k(  444) = (   0.5292377  -0.0340205  -0.0833333), wk =   0.0046296
        k(  445) = (   0.4811252   0.0340208   0.0000000), wk =   0.0023148
        k(  446) = (   0.5773502   0.1020623  -0.1666667), wk =   0.0046296
        k(  447) = (   0.5292377   0.0680415  -0.0833333), wk =   0.0046296
        k(  448) = (   0.4811252   0.1360829   0.0000000), wk =   0.0023148
        k(  449) = (   0.5773502   0.2041243  -0.1666667), wk =   0.0046296
        k(  450) = (   0.5292377   0.1701036  -0.0833333), wk =   0.0046296
        k(  451) = (   0.4811252   0.2381450   0.0000000), wk =   0.0023148
        k(  452) = (   0.5773502   0.3061864  -0.1666667), wk =   0.0046296
        k(  453) = (   0.5292377   0.2721657  -0.0833333), wk =   0.0046296
        k(  454) = (   0.4811252   0.3402071   0.0000000), wk =   0.0023148
        k(  455) = (   0.5773502   0.4082485  -0.1666667), wk =   0.0023148
        k(  456) = (   0.5292377   0.3742278  -0.0833333), wk =   0.0046296
        k(  457) = (   0.4811252  -0.7824757   0.0000000), wk =   0.0023148
        k(  458) = (   0.5292377  -0.7484550  -0.0833333), wk =   0.0046296
        k(  459) = (   0.4811252  -0.6804137   0.0000000), wk =   0.0023148
        k(  460) = (   0.5292377  -0.6463930  -0.0833333), wk =   0.0046296
        k(  461) = (   0.4811252  -0.5783516   0.0000000), wk =   0.0023148
        k(  462) = (   0.5292377  -0.5443309  -0.0833333), wk =   0.0046296
        k(  463) = (   0.4811252  -0.4762895   0.0000000), wk =   0.0023148
        k(  464) = (   0.5292377  -0.4422688  -0.0833333), wk =   0.0046296
        k(  465) = (   0.4811252  -0.3742275   0.0000000), wk =   0.0023148
        k(  466) = (   0.5292377  -0.3402067  -0.0833333), wk =   0.0046296
        k(  467) = (   0.4811252  -0.2721654   0.0000000), wk =   0.0023148
        k(  468) = (   0.5773502  -0.2041240  -0.1666667), wk =   0.0023148
        k(  469) = (   0.5292377  -0.2381447  -0.0833333), wk =   0.0046296
        k(  470) = (  -0.5773502   0.2041240   0.0000000), wk =   0.0011574
        k(  471) = (  -0.5773502   0.3061860   0.0000000), wk =   0.0023148
        k(  472) = (  -0.5773502   0.4082481   0.0000000), wk =   0.0023148
        k(  473) = (  -0.5773502   0.5103102   0.0000000), wk =   0.0023148
        k(  474) = (  -0.5773502   0.6123723   0.0000000), wk =   0.0023148
        k(  475) = (  -0.5773502   0.7144343   0.0000000), wk =   0.0023148
        k(  476) = (  -0.5773502  -0.4082485   0.0000000), wk =   0.0011574

                       cryst. coord.
        k(    1) = (   0.0000000   0.0000000   0.0000000), wk =   0.0011574
        k(    2) = (  -0.0000000  -0.0000000   0.0833333), wk =   0.0046296
        k(    3) = (  -0.0000000  -0.0000000   0.1666667), wk =   0.0046296
        k(    4) = (  -0.0000000   0.0000000   0.2500000), wk =   0.0046296
        k(    5) = (  -0.0000000  -0.0000000   0.3333333), wk =   0.0046296
        k(    6) = (  -0.0000000  -0.0000000   0.4166667), wk =   0.0046296
        k(    7) = (   0.0000000   0.0000000  -0.5000000), wk =   0.0023148
        k(    8) = (   0.0000000   0.0833333   0.0000000), wk =   0.0023148
        k(    9) = (  -0.0000000   0.0833333   0.0833333), wk =   0.0046296
        k(   10) = (  -0.0000000   0.0833333   0.1666667), wk =   0.0046296
        k(   11) = (  -0.0000000   0.0833333   0.2500000), wk =   0.0046296
        k(   12) = (  -0.0000000   0.0833333   0.3333333), wk =   0.0046296
        k(   13) = (  -0.0000000   0.0833333   0.4166667), wk =   0.0046296
        k(   14) = (   0.0000000   0.0833333  -0.5000000), wk =   0.0046296
        k(   15) = (   0.0000000   0.0833333  -0.4166667), wk =   0.0046296
        k(   16) = (   0.0000000   0.0833333  -0.3333333), wk =   0.0046296
        k(   17) = (   0.0000000   0.0833333  -0.2500000), wk =   0.0046296
        k(   18) = (   0.0000000   0.0833333  -0.1666667), wk =   0.0046296
        k(   19) = (   0.0000000   0.0833333  -0.0833333), wk =   0.0046296
        k(   20) = (   0.0000000   0.1666667   0.0000000), wk =   0.0023148
        k(   21) = (  -0.0000000   0.1666667   0.0833333), wk =   0.0046296
        k(   22) = (  -0.0000000   0.1666667   0.1666667), wk =   0.0046296
        k(   23) = (  -0.0000000   0.1666667   0.2500000), wk =   0.0046296
        k(   24) = (  -0.0000000   0.1666667   0.3333333), wk =   0.0046296
        k(   25) = (  -0.0000000   0.1666667   0.4166667), wk =   0.0046296
        k(   26) = (   0.0000000   0.1666667  -0.5000000), wk =   0.0046296
        k(   27) = (   0.0000000   0.1666667  -0.4166667), wk =   0.0046296
        k(   28) = (   0.0000000   0.1666667  -0.3333333), wk =   0.0046296
        k(   29) = (   0.0000000   0.1666667  -0.2500000), wk =   0.0046296
        k(   30) = (   0.0000000   0.1666667  -0.1666667), wk =   0.0046296
        k(   31) = (   0.0000000   0.1666667  -0.0833333), wk =   0.0046296
        k(   32) = (   0.0000000   0.2500000   0.0000000), wk =   0.0023148
        k(   33) = (  -0.0000000   0.2500000   0.0833333), wk =   0.0046296
        k(   34) = (  -0.0000000   0.2500000   0.1666667), wk =   0.0046296
        k(   35) = (  -0.0000000   0.2500000   0.2500000), wk =   0.0046296
        k(   36) = (  -0.0000000   0.2500000   0.3333333), wk =   0.0046296
        k(   37) = (  -0.0000000   0.2500000   0.4166667), wk =   0.0046296
        k(   38) = (   0.0000000   0.2500000  -0.5000000), wk =   0.0046296
        k(   39) = (   0.0000000   0.2500000  -0.4166667), wk =   0.0046296
        k(   40) = (   0.0000000   0.2500000  -0.3333333), wk =   0.0046296
        k(   41) = (   0.0000000   0.2500000  -0.2500000), wk =   0.0046296
        k(   42) = (   0.0000000   0.2500000  -0.1666667), wk =   0.0046296
        k(   43) = (   0.0000000   0.2500000  -0.0833333), wk =   0.0046296
        k(   44) = (   0.0000000   0.3333333   0.0000000), wk =   0.0023148
        k(   45) = (  -0.0000000   0.3333333   0.0833333), wk =   0.0046296
        k(   46) = (  -0.0000000   0.3333333   0.1666667), wk =   0.0046296
        k(   47) = (  -0.0000000   0.3333333   0.2500000), wk =   0.0046296
        k(   48) = (  -0.0000000   0.3333333   0.3333333), wk =   0.0046296
        k(   49) = (  -0.0000000   0.3333333   0.4166667), wk =   0.0046296
        k(   50) = (   0.0000000   0.3333333  -0.5000000), wk =   0.0046296
        k(   51) = (   0.0000000   0.3333333  -0.4166667), wk =   0.0046296
        k(   52) = (   0.0000000   0.3333333  -0.3333333), wk =   0.0046296
        k(   53) = (   0.0000000   0.3333333  -0.2500000), wk =   0.0046296
        k(   54) = (   0.0000000   0.3333333  -0.1666667), wk =   0.0046296
        k(   55) = (   0.0000000   0.3333333  -0.0833333), wk =   0.0046296
        k(   56) = (   0.0000000   0.4166667   0.0000000), wk =   0.0023148
        k(   57) = (  -0.0000000   0.4166667   0.0833333), wk =   0.0046296
        k(   58) = (  -0.0000000   0.4166667   0.1666667), wk =   0.0046296
        k(   59) = (  -0.0000000   0.4166667   0.2500000), wk =   0.0046296
        k(   60) = (  -0.0000000   0.4166667   0.3333333), wk =   0.0046296
        k(   61) = (  -0.0000000   0.4166667   0.4166667), wk =   0.0046296
        k(   62) = (   0.0000000   0.4166667  -0.5000000), wk =   0.0046296
        k(   63) = (   0.0000000   0.4166667  -0.4166667), wk =   0.0046296
        k(   64) = (   0.0000000   0.4166667  -0.3333333), wk =   0.0046296
        k(   65) = (   0.0000000   0.4166667  -0.2500000), wk =   0.0046296
        k(   66) = (   0.0000000   0.4166667  -0.1666667), wk =   0.0046296
        k(   67) = (   0.0000000   0.4166667  -0.0833333), wk =   0.0046296
        k(   68) = (   0.0000000  -0.5000000   0.0000000), wk =   0.0011574
        k(   69) = (  -0.0000000  -0.5000000   0.0833333), wk =   0.0046296
        k(   70) = (  -0.0000000  -0.5000000   0.1666667), wk =   0.0046296
        k(   71) = (  -0.0000000  -0.5000000   0.2500000), wk =   0.0046296
        k(   72) = (  -0.0000000  -0.5000000   0.3333333), wk =   0.0046296
        k(   73) = (  -0.0000000  -0.5000000   0.4166667), wk =   0.0046296
        k(   74) = (   0.0000000  -0.5000000  -0.5000000), wk =   0.0023148
        k(   75) = (   0.0833333   0.0000000   0.0000000), wk =   0.0023148
        k(   76) = (   0.0833333   0.0000000   0.1666667), wk =   0.0046296
        k(   77) = (   0.0833333  -0.0000000   0.2500000), wk =   0.0046296
        k(   78) = (   0.0833333  -0.0000000   0.3333333), wk =   0.0046296
        k(   79) = (   0.0833333  -0.0000000   0.4166667), wk =   0.0046296
        k(   80) = (   0.0833333   0.0000000  -0.5000000), wk =   0.0046296
        k(   81) = (   0.0833333   0.0000000  -0.4166667), wk =   0.0046296
        k(   82) = (   0.0833333   0.0000000  -0.3333333), wk =   0.0046296
        k(   83) = (   0.0833333   0.0000000  -0.2500000), wk =   0.0046296
        k(   84) = (   0.0833333   0.0000000  -0.1666667), wk =   0.0046296
        k(   85) = (   0.0833333   0.0000000  -0.0833333), wk =   0.0046296
        k(   86) = (   0.0833333   0.0833333   0.0000000), wk =   0.0023148
        k(   87) = (   0.0833333   0.0833333   0.1666667), wk =   0.0023148
        k(   88) = (   0.0833333   0.0833333   0.2500000), wk =   0.0046296
        k(   89) = (   0.0833333   0.0833333   0.3333333), wk =   0.0046296
        k(   90) = (   0.0833333   0.0833333   0.4166667), wk =   0.0046296
        k(   91) = (   0.0833333   0.0833333  -0.5000000), wk =   0.0046296
        k(   92) = (   0.0833333   0.0833333  -0.4166667), wk =   0.0046296
        k(   93) = (   0.0833333   0.0833333  -0.3333333), wk =   0.0046296
        k(   94) = (   0.0833333   0.0833333  -0.2500000), wk =   0.0046296
        k(   95) = (   0.0833333   0.0833333  -0.1666667), wk =   0.0046296
        k(   96) = (   0.0833333   0.0833333  -0.0833333), wk =   0.0046296
        k(   97) = (   0.0833333   0.1666667   0.0000000), wk =   0.0023148
        k(   98) = (   0.0833333   0.1666667   0.2500000), wk =   0.0046296
        k(   99) = (   0.0833333   0.1666667   0.3333333), wk =   0.0046296
        k(  100) = (   0.0833333   0.1666667   0.4166667), wk =   0.0046296
        k(  101) = (   0.0833333   0.1666667  -0.5000000), wk =   0.0046296
        k(  102) = (   0.0833333   0.1666667  -0.4166667), wk =   0.0046296
        k(  103) = (   0.0833333   0.1666667  -0.3333333), wk =   0.0046296
        k(  104) = (   0.0833333   0.1666667  -0.2500000), wk =   0.0046296
        k(  105) = (   0.0833333   0.1666667  -0.1666667), wk =   0.0046296
        k(  106) = (   0.0833333   0.1666667  -0.0833333), wk =   0.0046296
        k(  107) = (   0.0833333   0.2500000   0.0000000), wk =   0.0023148
        k(  108) = (   0.0833333   0.2500000   0.1666667), wk =   0.0046296
        k(  109) = (   0.0833333   0.2500000   0.2500000), wk =   0.0046296
        k(  110) = (   0.0833333   0.2500000   0.3333333), wk =   0.0046296
        k(  111) = (   0.0833333   0.2500000   0.4166667), wk =   0.0046296
        k(  112) = (   0.0833333   0.2500000  -0.5000000), wk =   0.0046296
        k(  113) = (   0.0833333   0.2500000  -0.4166667), wk =   0.0046296
        k(  114) = (   0.0833333   0.2500000  -0.3333333), wk =   0.0046296
        k(  115) = (   0.0833333   0.2500000  -0.2500000), wk =   0.0046296
        k(  116) = (   0.0833333   0.2500000  -0.1666667), wk =   0.0046296
        k(  117) = (   0.0833333   0.2500000  -0.0833333), wk =   0.0046296
        k(  118) = (   0.0833333   0.3333333   0.0000000), wk =   0.0023148
        k(  119) = (   0.0833333   0.3333333   0.1666667), wk =   0.0046296
        k(  120) = (   0.0833333   0.3333333   0.2500000), wk =   0.0046296
        k(  121) = (   0.0833333   0.3333333   0.3333333), wk =   0.0046296
        k(  122) = (   0.0833333   0.3333333   0.4166667), wk =   0.0046296
        k(  123) = (   0.0833333   0.3333333  -0.5000000), wk =   0.0046296
        k(  124) = (   0.0833333   0.3333333  -0.4166667), wk =   0.0046296
        k(  125) = (   0.0833333   0.3333333  -0.3333333), wk =   0.0046296
        k(  126) = (   0.0833333   0.3333333  -0.2500000), wk =   0.0046296
        k(  127) = (   0.0833333   0.3333333  -0.1666667), wk =   0.0046296
        k(  128) = (   0.0833333   0.3333333  -0.0833333), wk =   0.0046296
        k(  129) = (   0.0833333   0.4166667   0.0000000), wk =   0.0023148
        k(  130) = (   0.0833333   0.4166667   0.1666667), wk =   0.0046296
        k(  131) = (   0.0833333   0.4166667   0.2500000), wk =   0.0046296
        k(  132) = (   0.0833333   0.4166667   0.3333333), wk =   0.0046296
        k(  133) = (   0.0833333   0.4166667   0.4166667), wk =   0.0046296
        k(  134) = (   0.0833333   0.4166667  -0.5000000), wk =   0.0046296
        k(  135) = (   0.0833333   0.4166667  -0.4166667), wk =   0.0046296
        k(  136) = (   0.0833333   0.4166667  -0.3333333), wk =   0.0046296
        k(  137) = (   0.0833333   0.4166667  -0.2500000), wk =   0.0046296
        k(  138) = (   0.0833333   0.4166667  -0.1666667), wk =   0.0046296
        k(  139) = (   0.0833333   0.4166667  -0.0833333), wk =   0.0046296
        k(  140) = (   0.0833333  -0.5000000   0.0000000), wk =   0.0023148
        k(  141) = (   0.0833333  -0.5000000   0.1666667), wk =   0.0046296
        k(  142) = (   0.0833333  -0.5000000   0.2500000), wk =   0.0046296
        k(  143) = (   0.0833333  -0.5000000   0.3333333), wk =   0.0046296
        k(  144) = (   0.0833333  -0.5000000   0.4166667), wk =   0.0046296
        k(  145) = (   0.0833333  -0.5000000  -0.5000000), wk =   0.0046296
        k(  146) = (   0.0833333  -0.5000000  -0.4166667), wk =   0.0046296
        k(  147) = (   0.0833333  -0.5000000  -0.3333333), wk =   0.0046296
        k(  148) = (   0.0833333  -0.5000000  -0.2500000), wk =   0.0046296
        k(  149) = (   0.0833333  -0.5000000  -0.1666667), wk =   0.0046296
        k(  150) = (   0.0833333  -0.5000000  -0.0833333), wk =   0.0046296
        k(  151) = (   0.0833333  -0.4166667   0.0000000), wk =   0.0023148
        k(  152) = (   0.0833333  -0.4166667   0.1666667), wk =   0.0023148
        k(  153) = (   0.0833333  -0.4166667   0.2500000), wk =   0.0046296
        k(  154) = (   0.0833333  -0.4166667   0.3333333), wk =   0.0046296
        k(  155) = (   0.0833333  -0.4166667   0.4166667), wk =   0.0046296
        k(  156) = (   0.0833333  -0.4166667  -0.5000000), wk =   0.0046296
        k(  157) = (   0.0833333  -0.4166667  -0.4166667), wk =   0.0046296
        k(  158) = (   0.0833333  -0.4166667  -0.3333333), wk =   0.0046296
        k(  159) = (   0.0833333  -0.4166667  -0.2500000), wk =   0.0046296
        k(  160) = (   0.0833333  -0.4166667  -0.1666667), wk =   0.0046296
        k(  161) = (   0.0833333  -0.4166667  -0.0833333), wk =   0.0046296
        k(  162) = (   0.0833333  -0.3333333   0.0000000), wk =   0.0023148
        k(  163) = (   0.0833333  -0.3333333   0.2500000), wk =   0.0046296
        k(  164) = (   0.0833333  -0.3333333   0.3333333), wk =   0.0046296
        k(  165) = (   0.0833333  -0.3333333   0.4166667), wk =   0.0046296
        k(  166) = (   0.0833333  -0.3333333  -0.5000000), wk =   0.0046296
        k(  167) = (   0.0833333  -0.3333333  -0.4166667), wk =   0.0046296
        k(  168) = (   0.0833333  -0.3333333  -0.3333333), wk =   0.0046296
        k(  169) = (   0.0833333  -0.3333333  -0.2500000), wk =   0.0046296
        k(  170) = (   0.0833333  -0.3333333  -0.1666667), wk =   0.0046296
        k(  171) = (   0.0833333  -0.3333333  -0.0833333), wk =   0.0046296
        k(  172) = (   0.0833333  -0.2500000   0.0000000), wk =   0.0023148
        k(  173) = (   0.0833333  -0.2500000   0.2500000), wk =   0.0046296
        k(  174) = (   0.0833333  -0.2500000   0.3333333), wk =   0.0046296
        k(  175) = (   0.0833333  -0.2500000   0.4166667), wk =   0.0046296
        k(  176) = (   0.0833333  -0.2500000  -0.5000000), wk =   0.0046296
        k(  177) = (   0.0833333  -0.2500000  -0.4166667), wk =   0.0046296
        k(  178) = (   0.0833333  -0.2500000  -0.3333333), wk =   0.0046296
        k(  179) = (   0.0833333  -0.2500000  -0.2500000), wk =   0.0046296
        k(  180) = (   0.0833333  -0.2500000  -0.1666667), wk =   0.0046296
        k(  181) = (   0.0833333  -0.2500000  -0.0833333), wk =   0.0046296
        k(  182) = (   0.0833333  -0.1666667   0.0000000), wk =   0.0023148
        k(  183) = (   0.0833333  -0.1666667   0.2500000), wk =   0.0046296
        k(  184) = (   0.0833333  -0.1666667   0.3333333), wk =   0.0046296
        k(  185) = (   0.0833333  -0.1666667   0.4166667), wk =   0.0046296
        k(  186) = (   0.0833333  -0.1666667  -0.5000000), wk =   0.0046296
        k(  187) = (   0.0833333  -0.1666667  -0.4166667), wk =   0.0046296
        k(  188) = (   0.0833333  -0.1666667  -0.3333333), wk =   0.0046296
        k(  189) = (   0.0833333  -0.1666667  -0.2500000), wk =   0.0046296
        k(  190) = (   0.0833333  -0.1666667  -0.1666667), wk =   0.0046296
        k(  191) = (   0.0833333  -0.1666667  -0.0833333), wk =   0.0046296
        k(  192) = (   0.0833333  -0.0833333   0.0000000), wk =   0.0023148
        k(  193) = (   0.0833333  -0.0833333   0.2500000), wk =   0.0046296
        k(  194) = (   0.0833333  -0.0833333   0.3333333), wk =   0.0046296
        k(  195) = (   0.0833333  -0.0833333   0.4166667), wk =   0.0046296
        k(  196) = (   0.0833333  -0.0833333  -0.5000000), wk =   0.0046296
        k(  197) = (   0.0833333  -0.0833333  -0.4166667), wk =   0.0046296
        k(  198) = (   0.0833333  -0.0833333  -0.3333333), wk =   0.0046296
        k(  199) = (   0.0833333  -0.0833333  -0.2500000), wk =   0.0046296
        k(  200) = (   0.0833333  -0.0833333  -0.1666667), wk =   0.0046296
        k(  201) = (   0.0833333  -0.0833333  -0.0833333), wk =   0.0046296
        k(  202) = (   0.1666667   0.0000000   0.0000000), wk =   0.0023148
        k(  203) = (   0.1666667   0.0000000   0.3333333), wk =   0.0046296
        k(  204) = (   0.1666667   0.0000000   0.4166667), wk =   0.0046296
        k(  205) = (   0.1666667   0.0000000  -0.5000000), wk =   0.0046296
        k(  206) = (   0.1666667   0.0000000  -0.4166667), wk =   0.0046296
        k(  207) = (   0.1666667   0.0000000  -0.3333333), wk =   0.0046296
        k(  208) = (   0.1666667   0.0000000  -0.2500000), wk =   0.0046296
        k(  209) = (   0.1666667   0.0000000  -0.1666667), wk =   0.0046296
        k(  210) = (   0.1666667   0.0000000  -0.0833333), wk =   0.0046296
        k(  211) = (   0.1666667   0.0833333   0.0000000), wk =   0.0023148
        k(  212) = (   0.1666667   0.0833333   0.3333333), wk =   0.0046296
        k(  213) = (   0.1666667   0.0833333   0.4166667), wk =   0.0046296
        k(  214) = (   0.1666667   0.0833333  -0.5000000), wk =   0.0046296
        k(  215) = (   0.1666667   0.0833333  -0.4166667), wk =   0.0046296
        k(  216) = (   0.1666667   0.0833333  -0.3333333), wk =   0.0046296
        k(  217) = (   0.1666667   0.0833333  -0.2500000), wk =   0.0046296
        k(  218) = (   0.1666667   0.0833333  -0.1666667), wk =   0.0046296
        k(  219) = (   0.1666667   0.0833333  -0.0833333), wk =   0.0046296
        k(  220) = (   0.1666667   0.1666667   0.0000000), wk =   0.0023148
        k(  221) = (   0.1666667   0.1666667   0.3333333), wk =   0.0023148
        k(  222) = (   0.1666667   0.1666667   0.4166667), wk =   0.0046296
        k(  223) = (   0.1666667   0.1666667  -0.5000000), wk =   0.0046296
        k(  224) = (   0.1666667   0.1666667  -0.4166667), wk =   0.0046296
        k(  225) = (   0.1666667   0.1666667  -0.3333333), wk =   0.0046296
        k(  226) = (   0.1666667   0.1666667  -0.2500000), wk =   0.0046296
        k(  227) = (   0.1666667   0.1666667  -0.1666667), wk =   0.0046296
        k(  228) = (   0.1666667   0.1666667  -0.0833333), wk =   0.0046296
        k(  229) = (   0.1666667   0.2500000   0.0000000), wk =   0.0023148
        k(  230) = (   0.1666667   0.2500000   0.4166667), wk =   0.0046296
        k(  231) = (   0.1666667   0.2500000  -0.5000000), wk =   0.0046296
        k(  232) = (   0.1666667   0.2500000  -0.4166667), wk =   0.0046296
        k(  233) = (   0.1666667   0.2500000  -0.3333333), wk =   0.0046296
        k(  234) = (   0.1666667   0.2500000  -0.2500000), wk =   0.0046296
        k(  235) = (   0.1666667   0.2500000  -0.1666667), wk =   0.0046296
        k(  236) = (   0.1666667   0.2500000  -0.0833333), wk =   0.0046296
        k(  237) = (   0.1666667   0.3333333   0.0000000), wk =   0.0023148
        k(  238) = (   0.1666667   0.3333333   0.4166667), wk =   0.0046296
        k(  239) = (   0.1666667   0.3333333  -0.5000000), wk =   0.0046296
        k(  240) = (   0.1666667   0.3333333  -0.4166667), wk =   0.0046296
        k(  241) = (   0.1666667   0.3333333  -0.3333333), wk =   0.0046296
        k(  242) = (   0.1666667   0.3333333  -0.2500000), wk =   0.0046296
        k(  243) = (   0.1666667   0.3333333  -0.1666667), wk =   0.0046296
        k(  244) = (   0.1666667   0.3333333  -0.0833333), wk =   0.0046296
        k(  245) = (   0.1666667   0.4166667   0.0000000), wk =   0.0023148
        k(  246) = (   0.1666667   0.4166667   0.3333333), wk =   0.0046296
        k(  247) = (   0.1666667   0.4166667   0.4166667), wk =   0.0046296
        k(  248) = (   0.1666667   0.4166667  -0.5000000), wk =   0.0046296
        k(  249) = (   0.1666667   0.4166667  -0.4166667), wk =   0.0046296
        k(  250) = (   0.1666667   0.4166667  -0.3333333), wk =   0.0046296
        k(  251) = (   0.1666667   0.4166667  -0.2500000), wk =   0.0046296
        k(  252) = (   0.1666667   0.4166667  -0.1666667), wk =   0.0046296
        k(  253) = (   0.1666667   0.4166667  -0.0833333), wk =   0.0046296
        k(  254) = (   0.1666667  -0.5000000   0.0000000), wk =   0.0023148
        k(  255) = (   0.1666667  -0.5000000   0.3333333), wk =   0.0046296
        k(  256) = (   0.1666667  -0.5000000   0.4166667), wk =   0.0046296
        k(  257) = (   0.1666667  -0.5000000  -0.5000000), wk =   0.0046296
        k(  258) = (   0.1666667  -0.5000000  -0.4166667), wk =   0.0046296
        k(  259) = (   0.1666667  -0.5000000  -0.3333333), wk =   0.0046296
        k(  260) = (   0.1666667  -0.5000000  -0.2500000), wk =   0.0046296
        k(  261) = (   0.1666667  -0.5000000  -0.1666667), wk =   0.0046296
        k(  262) = (   0.1666667  -0.5000000  -0.0833333), wk =   0.0046296
        k(  263) = (   0.1666667  -0.4166667   0.0000000), wk =   0.0023148
        k(  264) = (   0.1666667  -0.4166667   0.3333333), wk =   0.0046296
        k(  265) = (   0.1666667  -0.4166667   0.4166667), wk =   0.0046296
        k(  266) = (   0.1666667  -0.4166667  -0.5000000), wk =   0.0046296
        k(  267) = (   0.1666667  -0.4166667  -0.4166667), wk =   0.0046296
        k(  268) = (   0.1666667  -0.4166667  -0.3333333), wk =   0.0046296
        k(  269) = (   0.1666667  -0.4166667  -0.2500000), wk =   0.0046296
        k(  270) = (   0.1666667  -0.4166667  -0.1666667), wk =   0.0046296
        k(  271) = (   0.1666667  -0.4166667  -0.0833333), wk =   0.0046296
        k(  272) = (   0.1666667  -0.3333333   0.0000000), wk =   0.0023148
        k(  273) = (   0.1666667  -0.3333333   0.3333333), wk =   0.0023148
        k(  274) = (   0.1666667  -0.3333333   0.4166667), wk =   0.0046296
        k(  275) = (   0.1666667  -0.3333333  -0.5000000), wk =   0.0046296
        k(  276) = (   0.1666667  -0.3333333  -0.4166667), wk =   0.0046296
        k(  277) = (   0.1666667  -0.3333333  -0.3333333), wk =   0.0046296
        k(  278) = (   0.1666667  -0.3333333  -0.2500000), wk =   0.0046296
        k(  279) = (   0.1666667  -0.3333333  -0.1666667), wk =   0.0046296
        k(  280) = (   0.1666667  -0.3333333  -0.0833333), wk =   0.0046296
        k(  281) = (   0.1666667  -0.2500000   0.0000000), wk =   0.0023148
        k(  282) = (   0.1666667  -0.2500000   0.4166667), wk =   0.0046296
        k(  283) = (   0.1666667  -0.2500000  -0.5000000), wk =   0.0046296
        k(  284) = (   0.1666667  -0.2500000  -0.4166667), wk =   0.0046296
        k(  285) = (   0.1666667  -0.2500000  -0.3333333), wk =   0.0046296
        k(  286) = (   0.1666667  -0.2500000  -0.2500000), wk =   0.0046296
        k(  287) = (   0.1666667  -0.2500000  -0.1666667), wk =   0.0046296
        k(  288) = (   0.1666667  -0.2500000  -0.0833333), wk =   0.0046296
        k(  289) = (   0.1666667  -0.1666667   0.0000000), wk =   0.0023148
        k(  290) = (   0.1666667  -0.1666667   0.4166667), wk =   0.0046296
        k(  291) = (   0.1666667  -0.1666667  -0.5000000), wk =   0.0046296
        k(  292) = (   0.1666667  -0.1666667  -0.4166667), wk =   0.0046296
        k(  293) = (   0.1666667  -0.1666667  -0.3333333), wk =   0.0046296
        k(  294) = (   0.1666667  -0.1666667  -0.2500000), wk =   0.0046296
        k(  295) = (   0.1666667  -0.1666667  -0.1666667), wk =   0.0046296
        k(  296) = (   0.1666667  -0.1666667  -0.0833333), wk =   0.0046296
        k(  297) = (   0.1666667  -0.0833333   0.0000000), wk =   0.0023148
        k(  298) = (   0.1666667  -0.0833333   0.4166667), wk =   0.0046296
        k(  299) = (   0.1666667  -0.0833333  -0.5000000), wk =   0.0046296
        k(  300) = (   0.1666667  -0.0833333  -0.4166667), wk =   0.0046296
        k(  301) = (   0.1666667  -0.0833333  -0.3333333), wk =   0.0046296
        k(  302) = (   0.1666667  -0.0833333  -0.2500000), wk =   0.0046296
        k(  303) = (   0.1666667  -0.0833333  -0.1666667), wk =   0.0046296
        k(  304) = (   0.1666667  -0.0833333  -0.0833333), wk =   0.0046296
        k(  305) = (   0.2500000   0.0000000   0.0000000), wk =   0.0023148
        k(  306) = (   0.2500000   0.0000000  -0.5000000), wk =   0.0046296
        k(  307) = (   0.2500000   0.0000000  -0.4166667), wk =   0.0046296
        k(  308) = (   0.2500000   0.0000000  -0.3333333), wk =   0.0046296
        k(  309) = (   0.2500000   0.0000000  -0.2500000), wk =   0.0046296
        k(  310) = (   0.2500000   0.0000000  -0.1666667), wk =   0.0046296
        k(  311) = (   0.2500000   0.0000000  -0.0833333), wk =   0.0046296
        k(  312) = (   0.2500000   0.0833333   0.0000000), wk =   0.0023148
        k(  313) = (   0.2500000   0.0833333  -0.5000000), wk =   0.0046296
        k(  314) = (   0.2500000   0.0833333  -0.4166667), wk =   0.0046296
        k(  315) = (   0.2500000   0.0833333  -0.3333333), wk =   0.0046296
        k(  316) = (   0.2500000   0.0833333  -0.2500000), wk =   0.0046296
        k(  317) = (   0.2500000   0.0833333  -0.1666667), wk =   0.0046296
        k(  318) = (   0.2500000   0.0833333  -0.0833333), wk =   0.0046296
        k(  319) = (   0.2500000   0.1666667   0.0000000), wk =   0.0023148
        k(  320) = (   0.2500000   0.1666667  -0.5000000), wk =   0.0046296
        k(  321) = (   0.2500000   0.1666667  -0.4166667), wk =   0.0046296
        k(  322) = (   0.2500000   0.1666667  -0.3333333), wk =   0.0046296
        k(  323) = (   0.2500000   0.1666667  -0.2500000), wk =   0.0046296
        k(  324) = (   0.2500000   0.1666667  -0.1666667), wk =   0.0046296
        k(  325) = (   0.2500000   0.1666667  -0.0833333), wk =   0.0046296
        k(  326) = (   0.2500000   0.2500000   0.0000000), wk =   0.0023148
        k(  327) = (   0.2500000   0.2500000  -0.5000000), wk =   0.0023148
        k(  328) = (   0.2500000   0.2500000  -0.4166667), wk =   0.0046296
        k(  329) = (   0.2500000   0.2500000  -0.3333333), wk =   0.0046296
        k(  330) = (   0.2500000   0.2500000  -0.2500000), wk =   0.0046296
        k(  331) = (   0.2500000   0.2500000  -0.1666667), wk =   0.0046296
        k(  332) = (   0.2500000   0.2500000  -0.0833333), wk =   0.0046296
        k(  333) = (   0.2500000   0.3333333   0.0000000), wk =   0.0023148
        k(  334) = (   0.2500000   0.3333333  -0.4166667), wk =   0.0046296
        k(  335) = (   0.2500000   0.3333333  -0.3333333), wk =   0.0046296
        k(  336) = (   0.2500000   0.3333333  -0.2500000), wk =   0.0046296
        k(  337) = (   0.2500000   0.3333333  -0.1666667), wk =   0.0046296
        k(  338) = (   0.2500000   0.3333333  -0.0833333), wk =   0.0046296
        k(  339) = (   0.2500000   0.4166667   0.0000000), wk =   0.0023148
        k(  340) = (   0.2500000   0.4166667  -0.4166667), wk =   0.0046296
        k(  341) = (   0.2500000   0.4166667  -0.3333333), wk =   0.0046296
        k(  342) = (   0.2500000   0.4166667  -0.2500000), wk =   0.0046296
        k(  343) = (   0.2500000   0.4166667  -0.1666667), wk =   0.0046296
        k(  344) = (   0.2500000   0.4166667  -0.0833333), wk =   0.0046296
        k(  345) = (   0.2500000  -0.5000000   0.0000000), wk =   0.0023148
        k(  346) = (   0.2500000  -0.5000000  -0.4166667), wk =   0.0046296
        k(  347) = (   0.2500000  -0.5000000  -0.3333333), wk =   0.0046296
        k(  348) = (   0.2500000  -0.5000000  -0.2500000), wk =   0.0046296
        k(  349) = (   0.2500000  -0.5000000  -0.1666667), wk =   0.0046296
        k(  350) = (   0.2500000  -0.5000000  -0.0833333), wk =   0.0046296
        k(  351) = (   0.2500000  -0.4166667   0.0000000), wk =   0.0023148
        k(  352) = (   0.2500000  -0.4166667  -0.5000000), wk =   0.0046296
        k(  353) = (   0.2500000  -0.4166667  -0.4166667), wk =   0.0046296
        k(  354) = (   0.2500000  -0.4166667  -0.3333333), wk =   0.0046296
        k(  355) = (   0.2500000  -0.4166667  -0.2500000), wk =   0.0046296
        k(  356) = (   0.2500000  -0.4166667  -0.1666667), wk =   0.0046296
        k(  357) = (   0.2500000  -0.4166667  -0.0833333), wk =   0.0046296
        k(  358) = (   0.2500000  -0.3333333   0.0000000), wk =   0.0023148
        k(  359) = (   0.2500000  -0.3333333  -0.5000000), wk =   0.0046296
        k(  360) = (   0.2500000  -0.3333333  -0.4166667), wk =   0.0046296
        k(  361) = (   0.2500000  -0.3333333  -0.3333333), wk =   0.0046296
        k(  362) = (   0.2500000  -0.3333333  -0.2500000), wk =   0.0046296
        k(  363) = (   0.2500000  -0.3333333  -0.1666667), wk =   0.0046296
        k(  364) = (   0.2500000  -0.3333333  -0.0833333), wk =   0.0046296
        k(  365) = (   0.2500000  -0.2500000   0.0000000), wk =   0.0023148
        k(  366) = (   0.2500000  -0.2500000  -0.5000000), wk =   0.0023148
        k(  367) = (   0.2500000  -0.2500000  -0.4166667), wk =   0.0046296
        k(  368) = (   0.2500000  -0.2500000  -0.3333333), wk =   0.0046296
        k(  369) = (   0.2500000  -0.2500000  -0.2500000), wk =   0.0046296
        k(  370) = (   0.2500000  -0.2500000  -0.1666667), wk =   0.0046296
        k(  371) = (   0.2500000  -0.2500000  -0.0833333), wk =   0.0046296
        k(  372) = (   0.2500000  -0.1666667   0.0000000), wk =   0.0023148
        k(  373) = (   0.2500000  -0.1666667  -0.4166667), wk =   0.0046296
        k(  374) = (   0.2500000  -0.1666667  -0.3333333), wk =   0.0046296
        k(  375) = (   0.2500000  -0.1666667  -0.2500000), wk =   0.0046296
        k(  376) = (   0.2500000  -0.1666667  -0.1666667), wk =   0.0046296
        k(  377) = (   0.2500000  -0.1666667  -0.0833333), wk =   0.0046296
        k(  378) = (   0.2500000  -0.0833333   0.0000000), wk =   0.0023148
        k(  379) = (   0.2500000  -0.0833333  -0.4166667), wk =   0.0046296
        k(  380) = (   0.2500000  -0.0833333  -0.3333333), wk =   0.0046296
        k(  381) = (   0.2500000  -0.0833333  -0.2500000), wk =   0.0046296
        k(  382) = (   0.2500000  -0.0833333  -0.1666667), wk =   0.0046296
        k(  383) = (   0.2500000  -0.0833333  -0.0833333), wk =   0.0046296
        k(  384) = (   0.3333333   0.0000000   0.0000000), wk =   0.0023148
        k(  385) = (   0.3333333   0.0000000  -0.3333333), wk =   0.0046296
        k(  386) = (   0.3333333   0.0000000  -0.2500000), wk =   0.0046296
        k(  387) = (   0.3333333   0.0000000  -0.1666667), wk =   0.0046296
        k(  388) = (   0.3333333   0.0000000  -0.0833333), wk =   0.0046296
        k(  389) = (   0.3333333   0.0833333   0.0000000), wk =   0.0023148
        k(  390) = (   0.3333333   0.0833333  -0.3333333), wk =   0.0046296
        k(  391) = (   0.3333333   0.0833333  -0.2500000), wk =   0.0046296
        k(  392) = (   0.3333333   0.0833333  -0.1666667), wk =   0.0046296
        k(  393) = (   0.3333333   0.0833333  -0.0833333), wk =   0.0046296
        k(  394) = (   0.3333333   0.1666667   0.0000000), wk =   0.0023148
        k(  395) = (   0.3333333   0.1666667  -0.3333333), wk =   0.0046296
        k(  396) = (   0.3333333   0.1666667  -0.2500000), wk =   0.0046296
        k(  397) = (   0.3333333   0.1666667  -0.1666667), wk =   0.0046296
        k(  398) = (   0.3333333   0.1666667  -0.0833333), wk =   0.0046296
        k(  399) = (   0.3333333   0.2500000   0.0000000), wk =   0.0023148
        k(  400) = (   0.3333333   0.2500000  -0.3333333), wk =   0.0046296
        k(  401) = (   0.3333333   0.2500000  -0.2500000), wk =   0.0046296
        k(  402) = (   0.3333333   0.2500000  -0.1666667), wk =   0.0046296
        k(  403) = (   0.3333333   0.2500000  -0.0833333), wk =   0.0046296
        k(  404) = (   0.3333333   0.3333333   0.0000000), wk =   0.0023148
        k(  405) = (   0.3333333   0.3333333  -0.3333333), wk =   0.0023148
        k(  406) = (   0.3333333   0.3333333  -0.2500000), wk =   0.0046296
        k(  407) = (   0.3333333   0.3333333  -0.1666667), wk =   0.0046296
        k(  408) = (   0.3333333   0.3333333  -0.0833333), wk =   0.0046296
        k(  409) = (   0.3333333   0.4166667   0.0000000), wk =   0.0023148
        k(  410) = (   0.3333333   0.4166667  -0.2500000), wk =   0.0046296
        k(  411) = (   0.3333333   0.4166667  -0.1666667), wk =   0.0046296
        k(  412) = (   0.3333333   0.4166667  -0.0833333), wk =   0.0046296
        k(  413) = (   0.3333333  -0.5000000   0.0000000), wk =   0.0023148
        k(  414) = (   0.3333333  -0.5000000  -0.2500000), wk =   0.0046296
        k(  415) = (   0.3333333  -0.5000000  -0.1666667), wk =   0.0046296
        k(  416) = (   0.3333333  -0.5000000  -0.0833333), wk =   0.0046296
        k(  417) = (   0.3333333  -0.4166667   0.0000000), wk =   0.0023148
        k(  418) = (   0.3333333  -0.4166667  -0.2500000), wk =   0.0046296
        k(  419) = (   0.3333333  -0.4166667  -0.1666667), wk =   0.0046296
        k(  420) = (   0.3333333  -0.4166667  -0.0833333), wk =   0.0046296
        k(  421) = (   0.3333333  -0.3333333   0.0000000), wk =   0.0023148
        k(  422) = (   0.3333333  -0.3333333  -0.2500000), wk =   0.0046296
        k(  423) = (   0.3333333  -0.3333333  -0.1666667), wk =   0.0046296
        k(  424) = (   0.3333333  -0.3333333  -0.0833333), wk =   0.0046296
        k(  425) = (   0.3333333  -0.2500000   0.0000000), wk =   0.0023148
        k(  426) = (   0.3333333  -0.2500000  -0.3333333), wk =   0.0046296
        k(  427) = (   0.3333333  -0.2500000  -0.2500000), wk =   0.0046296
        k(  428) = (   0.3333333  -0.2500000  -0.1666667), wk =   0.0046296
        k(  429) = (   0.3333333  -0.2500000  -0.0833333), wk =   0.0046296
        k(  430) = (   0.3333333  -0.1666667   0.0000000), wk =   0.0023148
        k(  431) = (   0.3333333  -0.1666667  -0.3333333), wk =   0.0023148
        k(  432) = (   0.3333333  -0.1666667  -0.2500000), wk =   0.0046296
        k(  433) = (   0.3333333  -0.1666667  -0.1666667), wk =   0.0046296
        k(  434) = (   0.3333333  -0.1666667  -0.0833333), wk =   0.0046296
        k(  435) = (   0.3333333  -0.0833333   0.0000000), wk =   0.0023148
        k(  436) = (   0.3333333  -0.0833333  -0.2500000), wk =   0.0046296
        k(  437) = (   0.3333333  -0.0833333  -0.1666667), wk =   0.0046296
        k(  438) = (   0.3333333  -0.0833333  -0.0833333), wk =   0.0046296
        k(  439) = (   0.4166667   0.0000000   0.0000000), wk =   0.0023148
        k(  440) = (   0.4166667   0.0000000  -0.1666667), wk =   0.0046296
        k(  441) = (   0.4166667   0.0000000  -0.0833333), wk =   0.0046296
        k(  442) = (   0.4166667   0.0833333   0.0000000), wk =   0.0023148
        k(  443) = (   0.4166667   0.0833333  -0.1666667), wk =   0.0046296
        k(  444) = (   0.4166667   0.0833333  -0.0833333), wk =   0.0046296
        k(  445) = (   0.4166667   0.1666667   0.0000000), wk =   0.0023148
        k(  446) = (   0.4166667   0.1666667  -0.1666667), wk =   0.0046296
        k(  447) = (   0.4166667   0.1666667  -0.0833333), wk =   0.0046296
        k(  448) = (   0.4166667   0.2500000   0.0000000), wk =   0.0023148
        k(  449) = (   0.4166667   0.2500000  -0.1666667), wk =   0.0046296
        k(  450) = (   0.4166667   0.2500000  -0.0833333), wk =   0.0046296
        k(  451) = (   0.4166667   0.3333333   0.0000000), wk =   0.0023148
        k(  452) = (   0.4166667   0.3333333  -0.1666667), wk =   0.0046296
        k(  453) = (   0.4166667   0.3333333  -0.0833333), wk =   0.0046296
        k(  454) = (   0.4166667   0.4166667   0.0000000), wk =   0.0023148
        k(  455) = (   0.4166667   0.4166667  -0.1666667), wk =   0.0023148
        k(  456) = (   0.4166667   0.4166667  -0.0833333), wk =   0.0046296
        k(  457) = (   0.4166667  -0.5000000   0.0000000), wk =   0.0023148
        k(  458) = (   0.4166667  -0.5000000  -0.0833333), wk =   0.0046296
        k(  459) = (   0.4166667  -0.4166667   0.0000000), wk =   0.0023148
        k(  460) = (   0.4166667  -0.4166667  -0.0833333), wk =   0.0046296
        k(  461) = (   0.4166667  -0.3333333   0.0000000), wk =   0.0023148
        k(  462) = (   0.4166667  -0.3333333  -0.0833333), wk =   0.0046296
        k(  463) = (   0.4166667  -0.2500000   0.0000000), wk =   0.0023148
        k(  464) = (   0.4166667  -0.2500000  -0.0833333), wk =   0.0046296
        k(  465) = (   0.4166667  -0.1666667   0.0000000), wk =   0.0023148
        k(  466) = (   0.4166667  -0.1666667  -0.0833333), wk =   0.0046296
        k(  467) = (   0.4166667  -0.0833333   0.0000000), wk =   0.0023148
        k(  468) = (   0.4166667  -0.0833333  -0.1666667), wk =   0.0023148
        k(  469) = (   0.4166667  -0.0833333  -0.0833333), wk =   0.0046296
        k(  470) = (  -0.5000000   0.0000000   0.0000000), wk =   0.0011574
        k(  471) = (  -0.5000000   0.0833333   0.0000000), wk =   0.0023148
        k(  472) = (  -0.5000000   0.1666667   0.0000000), wk =   0.0023148
        k(  473) = (  -0.5000000   0.2500000   0.0000000), wk =   0.0023148
        k(  474) = (  -0.5000000   0.3333333   0.0000000), wk =   0.0023148
        k(  475) = (  -0.5000000   0.4166667   0.0000000), wk =   0.0023148
        k(  476) = (  -0.5000000  -0.5000000   0.0000000), wk =   0.0011574

     Dense  grid:     2397 G-vectors     FFT dimensions: (  20,  20,  20)

     Dynamical RAM for                 wfc:       0.03 MB

     Dynamical RAM for     wfc (w. buffer):      12.80 MB

     Dynamical RAM for           str. fact:       0.04 MB

     Dynamical RAM for           local pot:       0.00 MB

     Dynamical RAM for          nlocal pot:       0.08 MB

     Dynamical RAM for                qrad:       0.74 MB

     Dynamical RAM for          rho,v,vnew:       0.29 MB

     Dynamical RAM for               rhoin:       0.10 MB

     Dynamical RAM for            rho*nmix:       0.59 MB

     Dynamical RAM for           G-vectors:       0.16 MB

     Dynamical RAM for          h,s,v(r/c):       0.03 MB

     Dynamical RAM for          <psi|beta>:       0.00 MB

     Dynamical RAM for                 psi:       0.11 MB

     Dynamical RAM for                hpsi:       0.11 MB

     Dynamical RAM for                spsi:       0.11 MB

     Dynamical RAM for      wfcinit/wfcrot:       0.05 MB

     Dynamical RAM for           addusdens:       6.84 MB

     Dynamical RAM for          addusforce:       6.86 MB

     Estimated static dynamical RAM per process >      15.17 MB

     Estimated max dynamical RAM per process >      22.03 MB

     Initial potential from superposition of free atoms

     starting charge    3.99933, renormalised to    4.00000
     Starting wfc are    4 randomized atomic wfcs +    2 random wfc

     total cpu time spent up to now is        9.2 secs

     Self-consistent Calculation

     iteration #  1     ecut=    35.00 Ry     beta= 0.70
     Davidson diagonalization with overlap
     ethr =  1.00E-02,  avg # of iterations =  4.4

     Threshold (ethr) on eigenvalues was too large:
     Diagonalizing with lowered threshold

     Davidson diagonalization with overlap
     ethr =  1.15E-04,  avg # of iterations =  1.9

     total cpu time spent up to now is       86.3 secs

     total energy              =      -9.55033268 Ry
     Harris-Foulkes estimate   =      -9.55196387 Ry
[...]

     5.7211   9.1197  12.6990  15.8990  22.7776  28.9354

     occupation numbers 
     1.0000   1.0000   1.0000   0.0000   0.0000   0.0000

          k = 0.4811 0.2381-0.1667 (   294 PWs)   bands (ev):

     3.6551  12.0439  13.9934  15.6046  22.2798  25.8831

     occupation numbers 
     1.0000   1.0000   0.0000   0.0000   0.0000   0.0000

          k = 0.4330 0.2041-0.0833 (   299 PWs)   bands (ev):

     1.9922  14.8550  15.6986  16.1123  21.5232  23.7728

     occupation numbers 
     1.0000   0.0000   0.0000   0.0000   0.0000   0.0000

          k = 0.3849 0.2722 0.0000 (   302 PWs)   bands (ev):

     1.7006  15.4312  17.6297  17.6297  18.2152  21.8485

     occupation numbers 
     1.0000   0.0000   0.0000   0.0000   0.0000   0.0000

          k = 0.5774 0.4082-0.3333 (   284 PWs)   bands (ev):

     6.3138   9.0176  10.5826  18.6576  21.2058  32.1159

     occupation numbers 
     1.0000   1.0000   1.0000   0.0000   0.0000   0.0000

          k = 0.5292 0.3742-0.2500 (   288 PWs)   bands (ev):

     7.0075   8.7807  10.7494  17.8241  20.2474  28.7049

     occupation numbers 
     1.0000   1.0000   1.0000   0.0000   0.0000   0.0000

          k = 0.4811 0.3402-0.1667 (   299 PWs)   bands (ev):

     4.8623  11.6089  11.8661  17.3741  19.6450  25.4070

     occupation numbers 
     1.0000   1.0000   1.0000   0.0000   0.0000   0.0000

          k = 0.4330 0.3062-0.0833 (   297 PWs)   bands (ev):

     3.0765  13.4440  14.7283  17.3091  19.1913  22.7104

     occupation numbers 
     1.0000   0.0000   0.0000   0.0000   0.0000   0.0000

          k = 0.3849 0.3742 0.0000 (   297 PWs)   bands (ev):

     3.0765  13.4440  14.7283  17.3091  19.1913  22.7104

     occupation numbers 
     1.0000   0.0000   0.0000   0.0000   0.0000   0.0000

          k = 0.5292 0.4763-0.2500 (   290 PWs)   bands (ev):

     8.1831   8.8378   9.7280  15.6304  22.5193  28.7565

     occupation numbers 
     1.0000   1.0000   1.0000   0.0000   0.0000   0.0000

          k = 0.4811 0.4423-0.1667 (   291 PWs)   bands (ev):

     6.4411  10.1839  11.4881  15.0668  21.7473  25.4149

     occupation numbers 
     1.0000   1.0000   1.0000   0.0000   0.0000   0.0000

          k = 0.4330 0.4082-0.0833 (   296 PWs)   bands (ev):

     4.5753  11.5858  14.0270  15.3140  20.7055  23.0413

     occupation numbers 
     1.0000   1.0000   0.0000   0.0000   0.0000   0.0000

          k = 0.3849-0.7485 0.0000 (   299 PWs)   bands (ev):

     4.8623  11.6089  11.8661  17.3741  19.6450  25.4069

     occupation numbers 
     1.0000   1.0000   1.0000   0.0000   0.0000   0.0000

          k = 0.5292-0.6464-0.2500 (   288 PWs)   bands (ev):

     7.5726   9.2604  11.3094  12.9653  25.9369  29.0054

     occupation numbers 
     1.0000   1.0000   1.0000   0.8920   0.0000   0.0000

          k = 0.4811-0.6804-0.1667 (   294 PWs)   bands (ev):

     7.9051   9.4403  11.2458  12.7824  24.5485  26.2731

     occupation numbers 
     1.0000   1.0000   1.0000   1.0000   0.0000   0.0000

          k = 0.4330-0.7144-0.0833 (   291 PWs)   bands (ev):

     6.4411  10.1839  11.4881  15.0668  21.7473  25.4149

     occupation numbers 
     1.0000   1.0000   1.0000   0.0000   0.0000   0.0000

          k = 0.3849-0.6464 0.0000 (   288 PWs)   bands (ev):

     7.0075   8.7807  10.7494  17.8241  20.2474  28.7049

     occupation numbers 
     1.0000   1.0000   1.0000   0.0000   0.0000   0.0000

          k = 0.5292-0.5443-0.2500 (   286 PWs)   bands (ev):

     6.8607   9.5746  11.1424  13.7925  26.8074  29.3707

     occupation numbers 
     1.0000   1.0000   1.0000   0.0000   0.0000   0.0000

          k = 0.4811-0.5784-0.1667 (   288 PWs)   bands (ev):

     7.5726   9.2604  11.3094  12.9654  25.9370  29.0054

     occupation numbers 
     1.0000   1.0000   1.0000   0.8919   0.0000   0.0000

          k = 0.4330-0.6124-0.0833 (   290 PWs)   bands (ev):

     8.1831   8.8378   9.7280  15.6304  22.5193  28.7564

     occupation numbers 
     1.0000   1.0000   1.0000   0.0000   0.0000   0.0000

          k = 0.3849-0.5443 0.0000 (   284 PWs)   bands (ev):

     6.3138   9.0176  10.5826  18.6576  21.2058  32.1160

     occupation numbers 
     1.0000   1.0000   1.0000   0.0000   0.0000   0.0000

          k = 0.5292-0.4423-0.2500 (   289 PWs)   bands (ev):

     6.5232   8.1367  11.8691  16.6295  23.5624  30.8157

     occupation numbers 
     1.0000   1.0000   1.0000   0.0000   0.0000   0.0000

          k = 0.4811-0.4763-0.1667 (   286 PWs)   bands (ev):

     7.1371   7.1526  14.0659  14.0675  26.6848  27.5865

     occupation numbers 
     1.0000   1.0000   0.0000   0.0000   0.0000   0.0000

          k = 0.4330-0.5103-0.0833 (   289 PWs)   bands (ev):

     6.5232   8.1367  11.8691  16.6295  23.5624  30.8166

     occupation numbers 
     1.0000   1.0000   1.0000   0.0000   0.0000   0.0000

          k = 0.3849-0.4423 0.0000 (   289 PWs)   bands (ev):

     4.2396   9.2616  12.9776  19.8705  22.5323  30.7845

     occupation numbers 
     1.0000   1.0000   0.7371   0.0000   0.0000   0.0000

          k = 0.5774-0.3062-0.3333 (   289 PWs)   bands (ev):

     6.5232   8.1367  11.8691  16.6295  23.5624  30.8157

     occupation numbers 
     1.0000   1.0000   1.0000   0.0000   0.0000   0.0000

          k = 0.5292-0.3402-0.2500 (   288 PWs)   bands (ev):

     6.5688   6.6069  13.5267  18.9148  21.4664  31.3011

     occupation numbers 
     1.0000   1.0000   0.0000   0.0000   0.0000   0.0000

          k = 0.4811-0.3742-0.1667 (   292 PWs)   bands (ev):

     5.3812   7.0930  15.6173  17.1626  24.0391  28.4774

     occupation numbers 
     1.0000   1.0000   0.0000   0.0000   0.0000   0.0000

          k = 0.4330-0.4082-0.0833 (   292 PWs)   bands (ev):

     4.5980   7.9954  14.8839  18.0288  24.8952  27.8137

     occupation numbers 
     1.0000   1.0000   0.0000   0.0000   0.0000   0.0000

          k = 0.3849-0.3402 0.0000 (   295 PWs)   bands (ev):

     2.5768   9.4052  16.2238  21.4470  24.1636  27.8319

     occupation numbers 
     1.0000   1.0000   0.0000   0.0000   0.0000   0.0000

          k = 0.5774-0.2041-0.3333 (   286 PWs)   bands (ev):

     7.1371   7.1526  14.0662  14.0675  26.6848  27.5868

     occupation numbers 
     1.0000   1.0000   0.0000   0.0000   0.0000   0.0000

          k = 0.5292-0.2381-0.2500 (   292 PWs)   bands (ev):

     5.3812   7.0930  15.6173  17.1626  24.0391  28.4773

     occupation numbers 
     1.0000   1.0000   0.0000   0.0000   0.0000   0.0000

          k = 0.4811-0.2722-0.1667 (   293 PWs)   bands (ev):

     4.0218   7.4529  17.5550  19.6848  22.2154  29.0149

     occupation numbers 
     1.0000   1.0000   0.0000   0.0000   0.0000   0.0000

          k = 0.4330-0.3062-0.0833 (   293 PWs)   bands (ev):

     3.0842   8.2274  18.2066  19.8011  24.8602  26.5856

     occupation numbers 
     1.0000   1.0000   0.0000   0.0000   0.0000   0.0000

          k = 0.3849-0.2381 0.0000 (   293 PWs)   bands (ev):

     1.3381   9.9165  19.7162  23.2529  25.3633  25.8141

     occupation numbers 
     1.0000   1.0000   0.0000   0.0000   0.0000   0.0000

          k = 0.5292-0.1361-0.2500 (   292 PWs)   bands (ev):

     4.5980   7.9954  14.8839  18.0288  24.8953  27.8137

     occupation numbers 
     1.0000   1.0000   0.0000   0.0000   0.0000   0.0000

          k = 0.4811-0.1701-0.1667 (   293 PWs)   bands (ev):

     3.0842   8.2274  18.2066  19.8011  24.8602  26.5856

     occupation numbers 
     1.0000   1.0000   0.0000   0.0000   0.0000   0.0000

          k = 0.4330-0.2041-0.0833 (   293 PWs)   bands (ev):

     1.9948   8.8676  20.9598  21.7671  23.3306  27.2226

     occupation numbers 
     1.0000   1.0000   0.0000   0.0000   0.0000   0.0000

          k = 0.4811-0.1701 0.0000 (   287 PWs)   bands (ev):

     2.5044   7.6707  22.8043  22.8043  24.7817  24.7818

     occupation numbers 
     1.0000   1.0000   0.0000   0.0000   0.0000   0.0000

          k = 0.5774-0.1021-0.1667 (   290 PWs)   bands (ev):

     4.8149   6.5254  16.6837  20.3819  22.9954  28.2387

     occupation numbers 
     1.0000   1.0000   0.0000   0.0000   0.0000   0.0000

          k = 0.5292-0.1361-0.0833 (   289 PWs)   bands (ev):

     3.4467   6.8884  20.0419  22.1797  24.5810  25.5526

     occupation numbers 
     1.0000   1.0000   0.0000   0.0000   0.0000   0.0000

          k = 0.4811-0.0680 0.0000 (   293 PWs)   bands (ev):

     1.9948   8.8676  20.9598  21.7671  23.3306  27.2226

     occupation numbers 
     1.0000   1.0000   0.0000   0.0000   0.0000   0.0000

          k = 0.5774 0.0000-0.1667 (   292 PWs)   bands (ev):

     4.5980   7.9953  14.8839  18.0288  24.8953  27.8137

     occupation numbers 
     1.0000   1.0000   0.0000   0.0000   0.0000   0.0000

          k = 0.5292-0.0340-0.0833 (   293 PWs)   bands (ev):

     3.0842   8.2274  18.2066  19.8011  24.8602  26.5856

     occupation numbers 
     1.0000   1.0000   0.0000   0.0000   0.0000   0.0000

          k = 0.4811 0.0340 0.0000 (   291 PWs)   bands (ev):

     1.9213  10.4669  18.8186  19.3656  21.8342  29.8110

     occupation numbers 
     1.0000   1.0000   0.0000   0.0000   0.0000   0.0000

          k = 0.5774 0.1021-0.1667 (   292 PWs)   bands (ev):

     4.8075   9.8213  13.5159  15.0768  26.3747  28.0248

     occupation numbers 
     1.0000   1.0000   0.0000   0.0000   0.0000   0.0000

          k = 0.5292 0.0680-0.0833 (   294 PWs)   bands (ev):

     3.1545   9.9628  16.6775  16.7908  23.5325  29.0717

     occupation numbers 
     1.0000   1.0000   0.0000   0.0000   0.0000   0.0000

          k = 0.4811 0.1361 0.0000 (   292 PWs)   bands (ev):

     2.2834  12.4428  15.9700  18.1451  20.4729  26.1187

     occupation numbers 
     1.0000   1.0000   0.0000   0.0000   0.0000   0.0000

          k = 0.5774 0.2041-0.1667 (   289 PWs)   bands (ev):

     5.4352  11.5235  12.4208  13.0580  24.8141  26.4780

     occupation numbers 
     1.0000   1.0000   1.0000   0.0207   0.0000   0.0000

          k = 0.5292 0.1701-0.0833 (   294 PWs)   bands (ev):

     3.6551  12.0439  13.9934  15.6045  22.2798  25.8831

     occupation numbers 
     1.0000   1.0000   0.0000   0.0000   0.0000   0.0000

          k = 0.4811 0.2381 0.0000 (   297 PWs)   bands (ev):

     3.0765  13.4440  14.7283  17.3091  19.1913  22.7104

     occupation numbers 
     1.0000   0.0000   0.0000   0.0000   0.0000   0.0000

          k = 0.5774 0.3062-0.1667 (   291 PWs)   bands (ev):

     6.4411  10.1839  11.4881  15.0668  21.7473  25.4149

     occupation numbers 
     1.0000   1.0000   1.0000   0.0000   0.0000   0.0000

          k = 0.5292 0.2722-0.0833 (   296 PWs)   bands (ev):

     4.5753  11.5858  14.0270  15.3140  20.7055  23.0413

     occupation numbers 
     1.0000   1.0000   0.0000   0.0000   0.0000   0.0000

          k = 0.4811 0.3402 0.0000 (   294 PWs)   bands (ev):

     4.2880  11.3056  16.8591  16.8592  17.3328  21.0738

     occupation numbers 
     1.0000   1.0000   0.0000   0.0000   0.0000   0.0000

          k = 0.5774 0.4082-0.1667 (   288 PWs)   bands (ev):

     7.3488   8.8640  11.3314  17.1170  19.3655  25.1647

     occupation numbers 
     1.0000   1.0000   1.0000   0.0000   0.0000   0.0000

          k = 0.5292 0.3742-0.0833 (   297 PWs)   bands (ev):

     5.8737   9.6162  14.1798  16.7952  18.6280  22.2033

     occupation numbers 
     1.0000   1.0000   0.0000   0.0000   0.0000   0.0000

          k = 0.4811-0.7825 0.0000 (   297 PWs)   bands (ev):

     5.8737   9.6162  14.1798  16.7952  18.6279  22.2033

     occupation numbers 
     1.0000   1.0000   0.0000   0.0000   0.0000   0.0000

          k = 0.5292-0.7485-0.0833 (   294 PWs)   bands (ev):

     7.0708   8.5740  13.7505  15.0477  20.4316  22.7925

     occupation numbers 
     1.0000   1.0000   0.0000   0.0000   0.0000   0.0000

          k = 0.4811-0.6804 0.0000 (   288 PWs)   bands (ev):

     7.3488   8.8640  11.3314  17.1170  19.3655  25.1647

     occupation numbers 
     1.0000   1.0000   1.0000   0.0000   0.0000   0.0000

          k = 0.5292-0.6464-0.0833 (   291 PWs)   bands (ev):

     6.4411  10.1839  11.4881  15.0668  21.7473  25.4149

     occupation numbers 
     1.0000   1.0000   1.0000   0.0000   0.0000   0.0000

          k = 0.4811-0.5784 0.0000 (   288 PWs)   bands (ev):

     7.0074   8.7807  10.7494  17.8241  20.2475  28.7049

     occupation numbers 
     1.0000   1.0000   1.0000   0.0000   0.0000   0.0000

          k = 0.5292-0.5443-0.0833 (   292 PWs)   bands (ev):

     5.7211   9.1197  12.6990  15.8990  22.7777  28.9355

     occupation numbers 
     1.0000   1.0000   1.0000   0.0000   0.0000   0.0000

          k = 0.4811-0.4763 0.0000 (   288 PWs)   bands (ev):

     6.5688   6.6069  13.5266  18.9148  21.4662  31.3014

     occupation numbers 
     1.0000   1.0000   0.0000   0.0000   0.0000   0.0000

          k = 0.5292-0.4423-0.0833 (   292 PWs)   bands (ev):

     5.3812   7.0930  15.6173  17.1626  24.0391  28.4774

     occupation numbers 
     1.0000   1.0000   0.0000   0.0000   0.0000   0.0000

          k = 0.4811-0.3742 0.0000 (   290 PWs)   bands (ev):

     4.8149   6.5254  16.6837  20.3819  22.9955  28.2386

     occupation numbers 
     1.0000   1.0000   0.0000   0.0000   0.0000   0.0000

          k = 0.5292-0.3402-0.0833 (   288 PWs)   bands (ev):

     5.4238   5.4958  18.7215  18.8956  25.1677  25.9120

     occupation numbers 
     1.0000   1.0000   0.0000   0.0000   0.0000   0.0000

          k = 0.4811-0.2722 0.0000 (   289 PWs)   bands (ev):

     3.4467   6.8884  20.0419  22.1797  24.5810  25.5525

     occupation numbers 
     1.0000   1.0000   0.0000   0.0000   0.0000   0.0000

          k = 0.5774-0.2041-0.1667 (   288 PWs)   bands (ev):

     5.4237   5.4958  18.7215  18.8956  25.1677  25.9119

     occupation numbers 
     1.0000   1.0000   0.0000   0.0000   0.0000   0.0000

          k = 0.5292-0.2381-0.0833 (   287 PWs)   bands (ev):

     4.2398   5.9637  20.7444  21.3932  23.7319  26.1957

     occupation numbers 
     1.0000   1.0000   0.0000   0.0000   0.0000   0.0000

          k =-0.5774 0.2041 0.0000 (   302 PWs)   bands (ev):

     4.8404   4.9379  22.9885  22.9885  24.2255  24.2255

     occupation numbers 
     1.0000   1.0000   0.0000   0.0000   0.0000   0.0000

          k =-0.5774 0.3062 0.0000 (   287 PWs)   bands (ev):

     4.2398   5.9638  20.7444  21.3932  23.7317  26.1956

     occupation numbers 
     1.0000   1.0000   0.0000   0.0000   0.0000   0.0000

          k =-0.5774 0.4082 0.0000 (   293 PWs)   bands (ev):

     4.0218   7.4529  17.5550  19.6848  22.2154  29.0149

     occupation numbers 
     1.0000   1.0000   0.0000   0.0000   0.0000   0.0000

          k =-0.5774 0.5103 0.0000 (   294 PWs)   bands (ev):

     4.2320   9.3443  14.5400  18.3384  20.7883  29.1156

     occupation numbers 
     1.0000   1.0000   0.0000   0.0000   0.0000   0.0000

          k =-0.5774 0.6124 0.0000 (   299 PWs)   bands (ev):

     4.8623  11.6089  11.8662  17.3741  19.6451  25.4069

     occupation numbers 
     1.0000   1.0000   1.0000   0.0000   0.0000   0.0000

          k =-0.5774 0.7144 0.0000 (   297 PWs)   bands (ev):

     5.8737   9.6162  14.1798  16.7952  18.6279  22.2033

     occupation numbers 
     1.0000   1.0000   0.0000   0.0000   0.0000   0.0000

          k =-0.5774-0.4082 0.0000 (   302 PWs)   bands (ev):

     6.7928   8.2830  16.6022  16.6023  17.0374  20.8107

     occupation numbers 
     1.0000   1.0000   0.0000   0.0000   0.0000   0.0000

     the Fermi energy is    13.0013 ev

!    total energy              =      -9.55038506 Ry
     Harris-Foulkes estimate   =      -9.55038508 Ry
     estimated scf accuracy    <       0.00000088 Ry

     The total energy is the sum of the following terms:

     one-electron contribution =       5.43699210 Ry
     hartree contribution      =       0.02146900 Ry
     xc contribution           =      -4.44867010 Ry
     ewald contribution        =     -10.56016224 Ry
     smearing contrib. (-TS)   =      -0.00001383 Ry

     convergence has been achieved in   3 iterations

     Forces acting on atoms (cartesian axes, Ry/au):

     atom    1 type  1   force =     0.00000000    0.00000000    0.00000000
     The non-local contrib.  to forces
     atom    1 type  1   force =     0.00000000    0.00000000    0.00000000
     The ionic contribution  to forces
     atom    1 type  1   force =     0.00000000    0.00000000    0.00000000
     The local contribution  to forces
     atom    1 type  1   force =    -0.00000000    0.00000000    0.00000000
     The core correction contribution to forces
     atom    1 type  1   force =    -0.00000000   -0.00000000    0.00000000
     The Hubbard contrib.    to forces
     atom    1 type  1   force =     0.00000000    0.00000000    0.00000000
     The SCF correction term to forces
     atom    1 type  1   force =    -0.00000000    0.00000000    0.00000000

     Total force =     0.000000     Total SCF correction =     0.000000

     BFGS Geometry Optimization

     bfgs converged in   1 scf cycles and   0 bfgs steps
     (criteria: energy <  1.0E-04 Ry, force <  1.0E-03 Ry/Bohr)

     End of BFGS Geometry Optimization

     Final energy   =      -9.5503850649 Ry
Begin final coordinates

ATOMIC_POSITIONS (crystal)
Si       0.000000000   0.000000000   0.000000000
End final coordinates


 
     init_run     :     45.96s CPU      9.12s WALL (       1 calls)
     electrons    :    621.48s CPU    135.86s WALL (       1 calls)
     forces       :     23.15s CPU      5.45s WALL (       1 calls)

     Called by init_run:
     wfcinit      :     45.68s CPU      8.52s WALL (       1 calls)
     wfcinit:atom :      0.18s CPU      0.03s WALL (     476 calls)
     wfcinit:wfcr :     44.88s CPU      8.39s WALL (     476 calls)
     potinit      :      0.02s CPU      0.04s WALL (       1 calls)

     Called by electrons:
     c_bands      :    565.13s CPU    123.06s WALL (       4 calls)
     sum_band     :     55.72s CPU     12.66s WALL (       4 calls)
     v_of_rho     :      0.16s CPU      0.05s WALL (       4 calls)
     v_h          :      0.00s CPU      0.00s WALL (       4 calls)
     v_xc         :      0.25s CPU      0.07s WALL (       5 calls)
     newd         :      0.43s CPU      0.12s WALL (       4 calls)
     mix_rho      :      0.10s CPU      0.02s WALL (       4 calls)

     Called by c_bands:
     init_us_2    :      3.17s CPU      0.60s WALL (    4760 calls)
     cegterg      :    557.60s CPU    121.63s WALL (    1904 calls)

     Called by sum_band:
     sum_band:bec :      0.20s CPU      0.04s WALL (    1904 calls)
     addusdens    :      0.31s CPU      0.08s WALL (       4 calls)

     Called by *egterg:
     h_psi        :    435.24s CPU     95.33s WALL (    6536 calls)
     s_psi        :     71.32s CPU     15.49s WALL (    6536 calls)
     g_psi        :      0.37s CPU      0.06s WALL (    4156 calls)
     cdiaghg      :     10.40s CPU      1.90s WALL (    5584 calls)
     cegterg:over :     39.68s CPU      8.08s WALL (    4156 calls)
     cegterg:upda :     13.74s CPU      2.61s WALL (    4156 calls)
     cegterg:last :     27.19s CPU      5.76s WALL (    2015 calls)

     Called by h_psi:
     h_psi:pot    :    434.54s CPU     95.20s WALL (    6536 calls)
     h_psi:calbec :    106.96s CPU     23.50s WALL (    6536 calls)
     vloc_psi     :    242.88s CPU     53.31s WALL (    6536 calls)
     add_vuspsi   :     83.86s CPU     18.26s WALL (    6536 calls)

     General routines
     calbec       :    173.24s CPU     39.07s WALL (   10344 calls)
     fft          :      0.56s CPU      0.16s WALL (      65 calls)
     fftw         :    242.93s CPU     53.48s WALL (   75306 calls)
 
     Parallel routines
 
     PWSCF        : 11m30.81s CPU     2m30.57s WALL

 
   This run was terminated on:   0:11:44  31Jan2019            

=------------------------------------------------------------------------------=
   JOB DONE.
=------------------------------------------------------------------------------=
