
     Program PWSCF v.6.2 (svn rev. 14038) starts on 30Jan2019 at 19: 8: 7 

     This program is part of the open-source Quantum ESPRESSO suite
     for quantum simulation of materials; please cite
         "P. Giannozzi et al., J. Phys.:Condens. Matter 21 395502 (2009);
         "P. Giannozzi et al., J. Phys.:Condens. Matter 29 465901 (2017);
          URL http://www.quantum-espresso.org", 
     in publications or presentations arising from this work. More details at
     http://www.quantum-espresso.org/quote

     Parallel version (MPI), running on     1 processors

     MPI processes distributed on     1 nodes
     Reading input from ./Alkpoint16.in
Warning: card &IONS ignored
Warning: card / ignored
Warning: card &CELL ignored
Warning: card / ignored

     Current dimensions of program PWSCF are:
     Max number of different atomic species (ntypx) = 10
     Max number of k-points (npk) =  40000
     Max angular momentum in pseudopotentials (lmaxx) =  3
     Message from routine iosys:
     minimal I/O required, wf_collect reset to FALSE

     Subspace diagonalization in iterative solution of the eigenvalue problem:
     a serial algorithm will be used

 
     G-vector sticks info
     --------------------
     sticks:   dense  smooth     PW     G-vecs:    dense   smooth      PW
     Sum         283     283    129                 3103     3103     887
 


     bravais-lattice index     =            0
     lattice parameter (alat)  =       5.2705  a.u.
     unit-cell volume          =     112.7033 (a.u.)^3
     number of atoms/cell      =            1
     number of atomic types    =            1
     number of electrons       =         3.00
     number of Kohn-Sham states=            6
     kinetic-energy cutoff     =      35.0000  Ry
     charge density cutoff     =     140.0000  Ry
     convergence threshold     =      1.0E-06
     mixing beta               =       0.7000
     number of iterations used =            8  plain     mixing
     Exchange-correlation      = SLA  PW   PBE  PBE ( 1  4  3  4 0 0)

     celldm(1)=   5.270512  celldm(2)=   0.000000  celldm(3)=   0.000000
     celldm(4)=   0.000000  celldm(5)=   0.000000  celldm(6)=   0.000000

     crystal axes: (cart. coord. in units of alat)
               a(1) = (   0.577350   0.577350   0.577350 )  
               a(2) = (   0.577350  -0.577350  -0.577350 )  
               a(3) = (  -0.577350   0.577350  -0.577350 )  

     reciprocal axes: (cart. coord. in units 2 pi/alat)
               b(1) = (  0.866025  0.866025  0.000000 )  
               b(2) = (  0.866025  0.000000 -0.866025 )  
               b(3) = (  0.000000  0.866025 -0.866025 )  


     PseudoPot. # 1 for Al read from file:
     ./al_pbe_v1.uspp.F.UPF
     MD5 check sum: 0a6289f5291fc8f409219462bc851e1f
     Pseudo is Ultrasoft + core correction, Zval =  3.0
     Generated by new atomic code, or converted to UPF format
     Using radial grid of  893 points,  3 beta functions with: 
                l(1) =   0
                l(2) =   1
                l(3) =   2
     Q(r) pseudized with  8 coefficients,  rinner =    0.900   0.900   0.900
                                                       0.900   0.900

     atomic species   valence    mass     pseudopotential
        Al             3.00    26.98150     Al( 1.00)

     48 Sym. Ops., with inversion, found


                                    s                        frac. trans.

      isym =  1     identity                                     

 cryst.   s( 1) = (     1          0          0      )
                  (     0          1          0      )
                  (     0          0          1      )

 cart.    s( 1) = (  1.0000000  0.0000000  0.0000000 )
                  (  0.0000000  1.0000000  0.0000000 )
                  (  0.0000000  0.0000000  1.0000000 )


      isym =  2     180 deg rotation - cart. axis [0,0,1]        

 cryst.   s( 2) = (    -1         -1         -1      )
                  (     0          0          1      )
                  (     0          1          0      )

 cart.    s( 2) = ( -1.0000000  0.0000000  0.0000000 )
                  (  0.0000000 -1.0000000  0.0000000 )
                  (  0.0000000  0.0000000  1.0000000 )


      isym =  3     180 deg rotation - cart. axis [0,1,0]        

 cryst.   s( 3) = (     0          0          1      )
                  (    -1         -1         -1      )
                  (     1          0          0      )

 cart.    s( 3) = ( -1.0000000  0.0000000  0.0000000 )
                  (  0.0000000  1.0000000  0.0000000 )
                  (  0.0000000  0.0000000 -1.0000000 )


      isym =  4     180 deg rotation - cart. axis [1,0,0]        

 cryst.   s( 4) = (     0          1          0      )
                  (     1          0          0      )
                  (    -1         -1         -1      )

 cart.    s( 4) = (  1.0000000  0.0000000  0.0000000 )
                  (  0.0000000 -1.0000000  0.0000000 )
                  (  0.0000000  0.0000000 -1.0000000 )


      isym =  5     180 deg rotation - cart. axis [1,1,0]        

 cryst.   s( 5) = (     1          1          1      )
                  (     0         -1          0      )
                  (     0          0         -1      )

 cart.    s( 5) = (  0.0000000  1.0000000  0.0000000 )
                  (  1.0000000  0.0000000  0.0000000 )
                  (  0.0000000  0.0000000 -1.0000000 )


      isym =  6     180 deg rotation - cart. axis [1,-1,0]       

 cryst.   s( 6) = (    -1          0          0      )
                  (     0          0         -1      )
                  (     0         -1          0      )

 cart.    s( 6) = (  0.0000000 -1.0000000  0.0000000 )
                  ( -1.0000000  0.0000000  0.0000000 )
                  (  0.0000000  0.0000000 -1.0000000 )


      isym =  7      90 deg rotation - cart. axis [0,0,-1]       

 cryst.   s( 7) = (     0          0         -1      )
                  (    -1          0          0      )
                  (     1          1          1      )

 cart.    s( 7) = (  0.0000000  1.0000000  0.0000000 )
                  ( -1.0000000  0.0000000  0.0000000 )
                  (  0.0000000  0.0000000  1.0000000 )


      isym =  8      90 deg rotation - cart. axis [0,0,1]        

 cryst.   s( 8) = (     0         -1          0      )
                  (     1          1          1      )
                  (    -1          0          0      )

 cart.    s( 8) = (  0.0000000 -1.0000000  0.0000000 )
                  (  1.0000000  0.0000000  0.0000000 )
                  (  0.0000000  0.0000000  1.0000000 )


      isym =  9     180 deg rotation - cart. axis [1,0,1]        

 cryst.   s( 9) = (     0          0         -1      )
                  (     0         -1          0      )
                  (    -1          0          0      )

 cart.    s( 9) = (  0.0000000  0.0000000  1.0000000 )
                  (  0.0000000 -1.0000000  0.0000000 )
                  (  1.0000000  0.0000000  0.0000000 )


      isym = 10     180 deg rotation - cart. axis [-1,0,1]       

 cryst.   s(10) = (    -1          0          0      )
                  (     1          1          1      )
                  (     0          0         -1      )

 cart.    s(10) = (  0.0000000  0.0000000 -1.0000000 )
                  (  0.0000000 -1.0000000  0.0000000 )
                  ( -1.0000000  0.0000000  0.0000000 )


      isym = 11      90 deg rotation - cart. axis [0,1,0]        

 cryst.   s(11) = (     1          1          1      )
                  (    -1          0          0      )
                  (     0         -1          0      )

 cart.    s(11) = (  0.0000000  0.0000000  1.0000000 )
                  (  0.0000000  1.0000000  0.0000000 )
                  ( -1.0000000  0.0000000  0.0000000 )


      isym = 12      90 deg rotation - cart. axis [0,-1,0]       

 cryst.   s(12) = (     0         -1          0      )
                  (     0          0         -1      )
                  (     1          1          1      )

 cart.    s(12) = (  0.0000000  0.0000000 -1.0000000 )
                  (  0.0000000  1.0000000  0.0000000 )
                  (  1.0000000  0.0000000  0.0000000 )


      isym = 13     180 deg rotation - cart. axis [0,1,1]        

 cryst.   s(13) = (     0         -1          0      )
                  (    -1          0          0      )
                  (     0          0         -1      )

 cart.    s(13) = ( -1.0000000  0.0000000  0.0000000 )
                  (  0.0000000  0.0000000  1.0000000 )
                  (  0.0000000  1.0000000  0.0000000 )


      isym = 14     180 deg rotation - cart. axis [0,1,-1]       

 cryst.   s(14) = (    -1          0          0      )
                  (     0         -1          0      )
                  (     1          1          1      )

 cart.    s(14) = ( -1.0000000  0.0000000  0.0000000 )
                  (  0.0000000  0.0000000 -1.0000000 )
                  (  0.0000000 -1.0000000  0.0000000 )


      isym = 15      90 deg rotation - cart. axis [-1,0,0]       

 cryst.   s(15) = (     1          1          1      )
                  (     0          0         -1      )
                  (    -1          0          0      )

 cart.    s(15) = (  1.0000000  0.0000000  0.0000000 )
                  (  0.0000000  0.0000000  1.0000000 )
                  (  0.0000000 -1.0000000  0.0000000 )


      isym = 16      90 deg rotation - cart. axis [1,0,0]        

 cryst.   s(16) = (     0          0         -1      )
                  (     1          1          1      )
                  (     0         -1          0      )

 cart.    s(16) = (  1.0000000  0.0000000  0.0000000 )
                  (  0.0000000  0.0000000 -1.0000000 )
                  (  0.0000000  1.0000000  0.0000000 )


      isym = 17     120 deg rotation - cart. axis [-1,-1,-1]     

 cryst.   s(17) = (     1          0          0      )
                  (    -1         -1         -1      )
                  (     0          1          0      )

 cart.    s(17) = (  0.0000000  1.0000000  0.0000000 )
                  (  0.0000000  0.0000000  1.0000000 )
                  (  1.0000000  0.0000000  0.0000000 )


      isym = 18     120 deg rotation - cart. axis [-1,1,1]       

 cryst.   s(18) = (     0          0          1      )
                  (     0          1          0      )
                  (    -1         -1         -1      )

 cart.    s(18) = (  0.0000000 -1.0000000  0.0000000 )
                  (  0.0000000  0.0000000  1.0000000 )
                  ( -1.0000000  0.0000000  0.0000000 )


      isym = 19     120 deg rotation - cart. axis [1,1,-1]       

 cryst.   s(19) = (     0          1          0      )
                  (     0          0          1      )
                  (     1          0          0      )

 cart.    s(19) = (  0.0000000  1.0000000  0.0000000 )
                  (  0.0000000  0.0000000 -1.0000000 )
                  ( -1.0000000  0.0000000  0.0000000 )


      isym = 20     120 deg rotation - cart. axis [1,-1,1]       

 cryst.   s(20) = (    -1         -1         -1      )
                  (     1          0          0      )
                  (     0          0          1      )

 cart.    s(20) = (  0.0000000 -1.0000000  0.0000000 )
                  (  0.0000000  0.0000000 -1.0000000 )
                  (  1.0000000  0.0000000  0.0000000 )


      isym = 21     120 deg rotation - cart. axis [1,1,1]        

 cryst.   s(21) = (     1          0          0      )
                  (     0          0          1      )
                  (    -1         -1         -1      )

 cart.    s(21) = (  0.0000000  0.0000000  1.0000000 )
                  (  1.0000000  0.0000000  0.0000000 )
                  (  0.0000000  1.0000000  0.0000000 )


      isym = 22     120 deg rotation - cart. axis [-1,1,-1]      

 cryst.   s(22) = (     0          1          0      )
                  (    -1         -1         -1      )
                  (     0          0          1      )

 cart.    s(22) = (  0.0000000  0.0000000  1.0000000 )
                  ( -1.0000000  0.0000000  0.0000000 )
                  (  0.0000000 -1.0000000  0.0000000 )


      isym = 23     120 deg rotation - cart. axis [1,-1,-1]      

 cryst.   s(23) = (    -1         -1         -1      )
                  (     0          1          0      )
                  (     1          0          0      )

 cart.    s(23) = (  0.0000000  0.0000000 -1.0000000 )
                  ( -1.0000000  0.0000000  0.0000000 )
                  (  0.0000000  1.0000000  0.0000000 )


      isym = 24     120 deg rotation - cart. axis [-1,-1,1]      

 cryst.   s(24) = (     0          0          1      )
                  (     1          0          0      )
                  (     0          1          0      )

 cart.    s(24) = (  0.0000000  0.0000000 -1.0000000 )
                  (  1.0000000  0.0000000  0.0000000 )
                  (  0.0000000 -1.0000000  0.0000000 )


      isym = 25     inversion                                    

 cryst.   s(25) = (    -1          0          0      )
                  (     0         -1          0      )
                  (     0          0         -1      )

 cart.    s(25) = ( -1.0000000  0.0000000  0.0000000 )
                  (  0.0000000 -1.0000000  0.0000000 )
                  (  0.0000000  0.0000000 -1.0000000 )


      isym = 26     inv. 180 deg rotation - cart. axis [0,0,1]   

 cryst.   s(26) = (     1          1          1      )
                  (     0          0         -1      )
                  (     0         -1          0      )

 cart.    s(26) = (  1.0000000  0.0000000  0.0000000 )
                  (  0.0000000  1.0000000  0.0000000 )
                  (  0.0000000  0.0000000 -1.0000000 )


      isym = 27     inv. 180 deg rotation - cart. axis [0,1,0]   

 cryst.   s(27) = (     0          0         -1      )
                  (     1          1          1      )
                  (    -1          0          0      )

 cart.    s(27) = (  1.0000000  0.0000000  0.0000000 )
                  (  0.0000000 -1.0000000  0.0000000 )
                  (  0.0000000  0.0000000  1.0000000 )


      isym = 28     inv. 180 deg rotation - cart. axis [1,0,0]   

 cryst.   s(28) = (     0         -1          0      )
                  (    -1          0          0      )
                  (     1          1          1      )

 cart.    s(28) = ( -1.0000000  0.0000000  0.0000000 )
                  (  0.0000000  1.0000000  0.0000000 )
                  (  0.0000000  0.0000000  1.0000000 )


      isym = 29     inv. 180 deg rotation - cart. axis [1,1,0]   

 cryst.   s(29) = (    -1         -1         -1      )
                  (     0          1          0      )
                  (     0          0          1      )

 cart.    s(29) = (  0.0000000 -1.0000000  0.0000000 )
                  ( -1.0000000  0.0000000  0.0000000 )
                  (  0.0000000  0.0000000  1.0000000 )


      isym = 30     inv. 180 deg rotation - cart. axis [1,-1,0]  

 cryst.   s(30) = (     1          0          0      )
                  (     0          0          1      )
                  (     0          1          0      )

 cart.    s(30) = (  0.0000000  1.0000000  0.0000000 )
                  (  1.0000000  0.0000000  0.0000000 )
                  (  0.0000000  0.0000000  1.0000000 )


      isym = 31     inv.  90 deg rotation - cart. axis [0,0,-1]  

 cryst.   s(31) = (     0          0          1      )
                  (     1          0          0      )
                  (    -1         -1         -1      )

 cart.    s(31) = (  0.0000000 -1.0000000  0.0000000 )
                  (  1.0000000  0.0000000  0.0000000 )
                  (  0.0000000  0.0000000 -1.0000000 )


      isym = 32     inv.  90 deg rotation - cart. axis [0,0,1]   

 cryst.   s(32) = (     0          1          0      )
                  (    -1         -1         -1      )
                  (     1          0          0      )

 cart.    s(32) = (  0.0000000  1.0000000  0.0000000 )
                  ( -1.0000000  0.0000000  0.0000000 )
                  (  0.0000000  0.0000000 -1.0000000 )


      isym = 33     inv. 180 deg rotation - cart. axis [1,0,1]   

 cryst.   s(33) = (     0          0          1      )
                  (     0          1          0      )
                  (     1          0          0      )

 cart.    s(33) = (  0.0000000  0.0000000 -1.0000000 )
                  (  0.0000000  1.0000000  0.0000000 )
                  ( -1.0000000  0.0000000  0.0000000 )


      isym = 34     inv. 180 deg rotation - cart. axis [-1,0,1]  

 cryst.   s(34) = (     1          0          0      )
                  (    -1         -1         -1      )
                  (     0          0          1      )

 cart.    s(34) = (  0.0000000  0.0000000  1.0000000 )
                  (  0.0000000  1.0000000  0.0000000 )
                  (  1.0000000  0.0000000  0.0000000 )


      isym = 35     inv.  90 deg rotation - cart. axis [0,1,0]   

 cryst.   s(35) = (    -1         -1         -1      )
                  (     1          0          0      )
                  (     0          1          0      )

 cart.    s(35) = (  0.0000000  0.0000000 -1.0000000 )
                  (  0.0000000 -1.0000000  0.0000000 )
                  (  1.0000000  0.0000000  0.0000000 )


      isym = 36     inv.  90 deg rotation - cart. axis [0,-1,0]  

 cryst.   s(36) = (     0          1          0      )
                  (     0          0          1      )
                  (    -1         -1         -1      )

 cart.    s(36) = (  0.0000000  0.0000000  1.0000000 )
                  (  0.0000000 -1.0000000  0.0000000 )
                  ( -1.0000000  0.0000000  0.0000000 )


      isym = 37     inv. 180 deg rotation - cart. axis [0,1,1]   

 cryst.   s(37) = (     0          1          0      )
                  (     1          0          0      )
                  (     0          0          1      )

 cart.    s(37) = (  1.0000000  0.0000000  0.0000000 )
                  (  0.0000000  0.0000000 -1.0000000 )
                  (  0.0000000 -1.0000000  0.0000000 )


      isym = 38     inv. 180 deg rotation - cart. axis [0,1,-1]  

 cryst.   s(38) = (     1          0          0      )
                  (     0          1          0      )
                  (    -1         -1         -1      )

 cart.    s(38) = (  1.0000000  0.0000000  0.0000000 )
                  (  0.0000000  0.0000000  1.0000000 )
                  (  0.0000000  1.0000000  0.0000000 )


      isym = 39     inv.  90 deg rotation - cart. axis [-1,0,0]  

 cryst.   s(39) = (    -1         -1         -1      )
                  (     0          0          1      )
                  (     1          0          0      )

 cart.    s(39) = ( -1.0000000  0.0000000  0.0000000 )
                  (  0.0000000  0.0000000 -1.0000000 )
                  (  0.0000000  1.0000000  0.0000000 )


      isym = 40     inv.  90 deg rotation - cart. axis [1,0,0]   

 cryst.   s(40) = (     0          0          1      )
                  (    -1         -1         -1      )
                  (     0          1          0      )

 cart.    s(40) = ( -1.0000000  0.0000000  0.0000000 )
                  (  0.0000000  0.0000000  1.0000000 )
                  (  0.0000000 -1.0000000  0.0000000 )


      isym = 41     inv. 120 deg rotation - cart. axis [-1,-1,-1]

 cryst.   s(41) = (    -1          0          0      )
                  (     1          1          1      )
                  (     0         -1          0      )

 cart.    s(41) = (  0.0000000 -1.0000000  0.0000000 )
                  (  0.0000000  0.0000000 -1.0000000 )
                  ( -1.0000000  0.0000000  0.0000000 )


      isym = 42     inv. 120 deg rotation - cart. axis [-1,1,1]  

 cryst.   s(42) = (     0          0         -1      )
                  (     0         -1          0      )
                  (     1          1          1      )

 cart.    s(42) = (  0.0000000  1.0000000  0.0000000 )
                  (  0.0000000  0.0000000 -1.0000000 )
                  (  1.0000000  0.0000000  0.0000000 )


      isym = 43     inv. 120 deg rotation - cart. axis [1,1,-1]  

 cryst.   s(43) = (     0         -1          0      )
                  (     0          0         -1      )
                  (    -1          0          0      )

 cart.    s(43) = (  0.0000000 -1.0000000  0.0000000 )
                  (  0.0000000  0.0000000  1.0000000 )
                  (  1.0000000  0.0000000  0.0000000 )


      isym = 44     inv. 120 deg rotation - cart. axis [1,-1,1]  

 cryst.   s(44) = (     1          1          1      )
                  (    -1          0          0      )
                  (     0          0         -1      )

 cart.    s(44) = (  0.0000000  1.0000000  0.0000000 )
                  (  0.0000000  0.0000000  1.0000000 )
                  ( -1.0000000  0.0000000  0.0000000 )


      isym = 45     inv. 120 deg rotation - cart. axis [1,1,1]   

 cryst.   s(45) = (    -1          0          0      )
                  (     0          0         -1      )
                  (     1          1          1      )

 cart.    s(45) = (  0.0000000  0.0000000 -1.0000000 )
                  ( -1.0000000  0.0000000  0.0000000 )
                  (  0.0000000 -1.0000000  0.0000000 )


      isym = 46     inv. 120 deg rotation - cart. axis [-1,1,-1] 

 cryst.   s(46) = (     0         -1          0      )
                  (     1          1          1      )
                  (     0          0         -1      )

 cart.    s(46) = (  0.0000000  0.0000000 -1.0000000 )
                  (  1.0000000  0.0000000  0.0000000 )
                  (  0.0000000  1.0000000  0.0000000 )


      isym = 47     inv. 120 deg rotation - cart. axis [1,-1,-1] 

 cryst.   s(47) = (     1          1          1      )
                  (     0         -1          0      )
                  (    -1          0          0      )

 cart.    s(47) = (  0.0000000  0.0000000  1.0000000 )
                  (  1.0000000  0.0000000  0.0000000 )
                  (  0.0000000 -1.0000000  0.0000000 )


      isym = 48     inv. 120 deg rotation - cart. axis [-1,-1,1] 

 cryst.   s(48) = (     0          0         -1      )
                  (    -1          0          0      )
                  (     0         -1          0      )

 cart.    s(48) = (  0.0000000  0.0000000  1.0000000 )
                  ( -1.0000000  0.0000000  0.0000000 )
                  (  0.0000000  1.0000000  0.0000000 )


   Cartesian axes

     site n.     atom                  positions (alat units)
         1           Al  tau(   1) = (   0.0000000   0.0000000   0.0000000  )

   Crystallographic axes

     site n.     atom                  positions (cryst. coord.)
         1           Al  tau(   1) = (  0.0000000  0.0000000  0.0000000  )

     number of k points=   145  Marzari-Vanderbilt smearing, width (Ry)=  0.0100
                       cart. coord. in units 2pi/alat
        k(    1) = (   0.0000000   0.0000000   0.0000000), wk =   0.0004883
        k(    2) = (   0.0000000   0.0541266  -0.0541266), wk =   0.0058594
        k(    3) = (   0.0000000   0.1082532  -0.1082532), wk =   0.0058594
        k(    4) = (   0.0000000   0.1623798  -0.1623798), wk =   0.0058594
        k(    5) = (   0.0000000   0.2165064  -0.2165064), wk =   0.0058594
        k(    6) = (   0.0000000   0.2706329  -0.2706329), wk =   0.0058594
        k(    7) = (   0.0000000   0.3247595  -0.3247595), wk =   0.0058594
        k(    8) = (   0.0000000   0.3788861  -0.3788861), wk =   0.0058594
        k(    9) = (   0.0000000  -0.4330127   0.4330127), wk =   0.0029297
        k(   10) = (   0.0541266   0.0541266  -0.1082532), wk =   0.0117188
        k(   11) = (   0.0541266   0.1082532  -0.1623798), wk =   0.0234375
        k(   12) = (   0.0541266   0.1623798  -0.2165064), wk =   0.0234375
        k(   13) = (   0.0541266   0.2165064  -0.2706329), wk =   0.0234375
        k(   14) = (   0.0541266   0.2706329  -0.3247595), wk =   0.0234375
        k(   15) = (   0.0541266   0.3247595  -0.3788861), wk =   0.0234375
        k(   16) = (   0.0541266   0.3788861  -0.4330127), wk =   0.0234375
        k(   17) = (   0.1082532   0.1082532  -0.2165064), wk =   0.0117188
        k(   18) = (   0.1082532   0.1623798  -0.2706329), wk =   0.0234375
        k(   19) = (   0.1082532   0.2165064  -0.3247595), wk =   0.0234375
        k(   20) = (   0.1082532   0.2706329  -0.3788861), wk =   0.0234375
        k(   21) = (   0.1082532   0.3247595  -0.4330127), wk =   0.0234375
        k(   22) = (   0.1082532   0.3788861  -0.4871393), wk =   0.0117188
        k(   23) = (   0.1623798   0.1623798  -0.3247595), wk =   0.0117188
        k(   24) = (   0.1623798   0.2165064  -0.3788861), wk =   0.0234375
        k(   25) = (   0.1623798   0.2706329  -0.4330127), wk =   0.0234375
        k(   26) = (   0.1623798   0.3247595  -0.4871393), wk =   0.0234375
        k(   27) = (   0.2165064   0.2165064  -0.4330127), wk =   0.0117188
        k(   28) = (   0.2165064   0.2706329  -0.4871393), wk =   0.0234375
        k(   29) = (   0.2165064   0.3247595  -0.5412659), wk =   0.0117188
        k(   30) = (   0.2706329   0.2706329  -0.5412659), wk =   0.0117188
        k(   31) = (   0.1082532   0.1082532  -0.1082532), wk =   0.0039062
        k(   32) = (   0.1082532   0.1623798  -0.1623798), wk =   0.0117188
        k(   33) = (   0.1082532   0.2165064  -0.2165064), wk =   0.0117188
        k(   34) = (   0.1082532   0.2706329  -0.2706329), wk =   0.0117188
        k(   35) = (   0.1082532   0.3247595  -0.3247595), wk =   0.0117188
        k(   36) = (   0.1082532   0.3788861  -0.3788861), wk =   0.0117188
        k(   37) = (   0.1082532   0.4330127  -0.4330127), wk =   0.0058594
        k(   38) = (   0.1082532   0.0000000   0.0000000), wk =   0.0029297
        k(   39) = (   0.1623798   0.1623798  -0.2165064), wk =   0.0117188
        k(   40) = (   0.1623798   0.2165064  -0.2706329), wk =   0.0234375
        k(   41) = (   0.1623798   0.2706329  -0.3247595), wk =   0.0234375
        k(   42) = (   0.1623798   0.3247595  -0.3788861), wk =   0.0234375
        k(   43) = (   0.1623798   0.3788861  -0.4330127), wk =   0.0234375
        k(   44) = (   0.1623798  -0.0541266   0.0000000), wk =   0.0117188
        k(   45) = (   0.2165064   0.2165064  -0.3247595), wk =   0.0117188
        k(   46) = (   0.2165064   0.2706329  -0.3788861), wk =   0.0234375
        k(   47) = (   0.2165064   0.3247595  -0.4330127), wk =   0.0234375
        k(   48) = (   0.2165064   0.3788861  -0.4871393), wk =   0.0117188
        k(   49) = (   0.2165064  -0.1082532   0.0000000), wk =   0.0117188
        k(   50) = (   0.2165064  -0.0541266  -0.0541266), wk =   0.0117188
        k(   51) = (   0.2706329   0.2706329  -0.4330127), wk =   0.0117188
        k(   52) = (   0.2706329   0.3247595  -0.4871393), wk =   0.0234375
        k(   53) = (   0.2706329  -0.1623798   0.0000000), wk =   0.0117188
        k(   54) = (   0.2706329  -0.1082532  -0.0541266), wk =   0.0234375
        k(   55) = (   0.3247595   0.3247595  -0.5412659), wk =   0.0039062
        k(   56) = (   0.3247595  -0.2165064   0.0000000), wk =   0.0117188
        k(   57) = (   0.3247595  -0.1623798  -0.0541266), wk =   0.0234375
        k(   58) = (   0.3247595  -0.1082532  -0.1082532), wk =   0.0117188
        k(   59) = (   0.3788861  -0.2706329   0.0000000), wk =   0.0117188
        k(   60) = (   0.3788861  -0.2165064  -0.0541266), wk =   0.0234375
        k(   61) = (   0.3788861  -0.1623798  -0.1082532), wk =   0.0234375
        k(   62) = (   0.4330127  -0.3247595   0.0000000), wk =   0.0117188
        k(   63) = (   0.4330127  -0.2706329  -0.0541266), wk =   0.0234375
        k(   64) = (   0.4330127  -0.2165064  -0.1082532), wk =   0.0234375
        k(   65) = (   0.4330127  -0.1623798  -0.1623798), wk =   0.0117188
        k(   66) = (  -0.3788861  -0.3788861   0.8660254), wk =   0.0058594
        k(   67) = (  -0.3788861  -0.3247595   0.8118988), wk =   0.0234375
        k(   68) = (  -0.3788861  -0.2706329   0.7577722), wk =   0.0234375
        k(   69) = (  -0.3788861  -0.2165064   0.7036456), wk =   0.0234375
        k(   70) = (  -0.3247595  -0.3247595   0.7577722), wk =   0.0117188
        k(   71) = (  -0.3247595  -0.2706329   0.7036456), wk =   0.0234375
        k(   72) = (  -0.3247595  -0.2165064   0.6495191), wk =   0.0117188
        k(   73) = (  -0.2706329  -0.2706329   0.6495191), wk =   0.0117188
        k(   74) = (   0.2165064   0.2165064  -0.2165064), wk =   0.0039062
        k(   75) = (   0.2165064   0.2706329  -0.2706329), wk =   0.0117188
        k(   76) = (   0.2165064   0.3247595  -0.3247595), wk =   0.0117188
        k(   77) = (   0.2165064   0.3788861  -0.3788861), wk =   0.0117188
        k(   78) = (   0.2165064   0.4330127  -0.4330127), wk =   0.0058594
        k(   79) = (   0.2165064   0.0000000   0.0000000), wk =   0.0029297
        k(   80) = (   0.2706329   0.2706329  -0.3247595), wk =   0.0117188
        k(   81) = (   0.2706329   0.3247595  -0.3788861), wk =   0.0234375
        k(   82) = (   0.2706329   0.3788861  -0.4330127), wk =   0.0234375
        k(   83) = (   0.2706329  -0.0541266   0.0000000), wk =   0.0117188
        k(   84) = (   0.3247595   0.3247595  -0.4330127), wk =   0.0117188
        k(   85) = (   0.3247595   0.3788861  -0.4871393), wk =   0.0117188
        k(   86) = (   0.3247595  -0.1082532   0.0000000), wk =   0.0117188
        k(   87) = (   0.3247595  -0.0541266  -0.0541266), wk =   0.0117188
        k(   88) = (   0.3788861  -0.1623798   0.0000000), wk =   0.0117188
        k(   89) = (   0.3788861  -0.1082532  -0.0541266), wk =   0.0234375
        k(   90) = (   0.4330127  -0.2165064   0.0000000), wk =   0.0117188
        k(   91) = (   0.4330127  -0.1623798  -0.0541266), wk =   0.0234375
        k(   92) = (   0.4330127  -0.1082532  -0.1082532), wk =   0.0117188
        k(   93) = (   0.4871393  -0.2706329   0.0000000), wk =   0.0117188
        k(   94) = (   0.4871393  -0.2165064  -0.0541266), wk =   0.0234375
        k(   95) = (   0.4871393  -0.1623798  -0.1082532), wk =   0.0234375
        k(   96) = (  -0.3247595  -0.3247595   0.8660254), wk =   0.0058594
        k(   97) = (  -0.3247595  -0.2706329   0.8118988), wk =   0.0234375
        k(   98) = (  -0.3247595  -0.2165064   0.7577722), wk =   0.0234375
        k(   99) = (  -0.3247595  -0.1623798   0.7036456), wk =   0.0117188
        k(  100) = (  -0.2706329  -0.2706329   0.7577722), wk =   0.0117188
        k(  101) = (  -0.2706329  -0.2165064   0.7036456), wk =   0.0234375
        k(  102) = (  -0.2165064  -0.2165064   0.6495191), wk =   0.0039062
        k(  103) = (   0.3247595   0.3247595  -0.3247595), wk =   0.0039062
        k(  104) = (   0.3247595   0.3788861  -0.3788861), wk =   0.0117188
        k(  105) = (   0.3247595   0.4330127  -0.4330127), wk =   0.0058594
        k(  106) = (   0.3247595   0.0000000   0.0000000), wk =   0.0029297
        k(  107) = (   0.3788861   0.3788861  -0.4330127), wk =   0.0117188
        k(  108) = (   0.3788861  -0.0541266   0.0000000), wk =   0.0117188
        k(  109) = (   0.4330127  -0.1082532   0.0000000), wk =   0.0117188
        k(  110) = (   0.4330127  -0.0541266  -0.0541266), wk =   0.0117188
        k(  111) = (   0.4871393  -0.1623798   0.0000000), wk =   0.0117188
        k(  112) = (   0.4871393  -0.1082532  -0.0541266), wk =   0.0234375
        k(  113) = (   0.5412659  -0.2165064   0.0000000), wk =   0.0117188
        k(  114) = (   0.5412659  -0.1623798  -0.0541266), wk =   0.0234375
        k(  115) = (   0.5412659  -0.1082532  -0.1082532), wk =   0.0117188
        k(  116) = (  -0.2706329  -0.2706329   0.8660254), wk =   0.0058594
        k(  117) = (  -0.2706329  -0.2165064   0.8118988), wk =   0.0234375
        k(  118) = (  -0.2706329  -0.1623798   0.7577722), wk =   0.0234375
        k(  119) = (  -0.2165064  -0.2165064   0.7577722), wk =   0.0117188
        k(  120) = (  -0.2165064  -0.1623798   0.7036456), wk =   0.0117188
        k(  121) = (   0.4330127   0.4330127  -0.4330127), wk =   0.0009766
        k(  122) = (   0.4330127   0.0000000   0.0000000), wk =   0.0029297
        k(  123) = (   0.4871393  -0.0541266   0.0000000), wk =   0.0117188
        k(  124) = (   0.5412659  -0.1082532   0.0000000), wk =   0.0117188
        k(  125) = (   0.5412659  -0.0541266  -0.0541266), wk =   0.0117188
        k(  126) = (   0.5953925  -0.1623798   0.0000000), wk =   0.0117188
        k(  127) = (   0.5953925  -0.1082532  -0.0541266), wk =   0.0234375
        k(  128) = (  -0.2165064  -0.2165064   0.8660254), wk =   0.0058594
        k(  129) = (  -0.2165064  -0.1623798   0.8118988), wk =   0.0234375
        k(  130) = (  -0.2165064  -0.1082532   0.7577722), wk =   0.0117188
        k(  131) = (  -0.1623798  -0.1623798   0.7577722), wk =   0.0117188
        k(  132) = (   0.5412659   0.0000000   0.0000000), wk =   0.0029297
        k(  133) = (   0.5953925  -0.0541266   0.0000000), wk =   0.0117188
        k(  134) = (   0.6495191  -0.1082532   0.0000000), wk =   0.0117188
        k(  135) = (   0.6495191  -0.0541266  -0.0541266), wk =   0.0117188
        k(  136) = (  -0.1623798  -0.1623798   0.8660254), wk =   0.0058594
        k(  137) = (  -0.1623798  -0.1082532   0.8118988), wk =   0.0234375
        k(  138) = (  -0.1082532  -0.1082532   0.7577722), wk =   0.0039062
        k(  139) = (   0.6495191   0.0000000   0.0000000), wk =   0.0029297
        k(  140) = (   0.7036456  -0.0541266   0.0000000), wk =   0.0117188
        k(  141) = (  -0.1082532  -0.1082532   0.8660254), wk =   0.0058594
        k(  142) = (  -0.1082532  -0.0541266   0.8118988), wk =   0.0117188
        k(  143) = (   0.7577722   0.0000000   0.0000000), wk =   0.0029297
        k(  144) = (  -0.0541266  -0.0541266   0.8660254), wk =   0.0058594
        k(  145) = (  -0.8660254  -0.8660254   0.8660254), wk =   0.0004883

                       cryst. coord.
        k(    1) = (   0.0000000   0.0000000   0.0000000), wk =   0.0004883
        k(    2) = (   0.0000000   0.0000000   0.0625000), wk =   0.0058594
        k(    3) = (   0.0000000   0.0000000   0.1250000), wk =   0.0058594
        k(    4) = (   0.0000000   0.0000000   0.1875000), wk =   0.0058594
        k(    5) = (   0.0000000   0.0000000   0.2500000), wk =   0.0058594
        k(    6) = (   0.0000000   0.0000000   0.3125000), wk =   0.0058594
        k(    7) = (   0.0000000   0.0000000   0.3750000), wk =   0.0058594
        k(    8) = (   0.0000000   0.0000000   0.4375000), wk =   0.0058594
        k(    9) = (   0.0000000   0.0000000  -0.5000000), wk =   0.0029297
        k(   10) = (   0.0000000   0.0625000   0.0625000), wk =   0.0117188
        k(   11) = (   0.0000000   0.0625000   0.1250000), wk =   0.0234375
        k(   12) = (   0.0000000   0.0625000   0.1875000), wk =   0.0234375
        k(   13) = (   0.0000000   0.0625000   0.2500000), wk =   0.0234375
        k(   14) = (   0.0000000   0.0625000   0.3125000), wk =   0.0234375
        k(   15) = (   0.0000000   0.0625000   0.3750000), wk =   0.0234375
        k(   16) = (   0.0000000   0.0625000   0.4375000), wk =   0.0234375
        k(   17) = (   0.0000000   0.1250000   0.1250000), wk =   0.0117188
        k(   18) = (   0.0000000   0.1250000   0.1875000), wk =   0.0234375
        k(   19) = (   0.0000000   0.1250000   0.2500000), wk =   0.0234375
        k(   20) = (  -0.0000000   0.1250000   0.3125000), wk =   0.0234375
        k(   21) = (   0.0000000   0.1250000   0.3750000), wk =   0.0234375
        k(   22) = (   0.0000000   0.1250000   0.4375000), wk =   0.0117188
        k(   23) = (   0.0000000   0.1875000   0.1875000), wk =   0.0117188
        k(   24) = (  -0.0000000   0.1875000   0.2500000), wk =   0.0234375
        k(   25) = (   0.0000000   0.1875000   0.3125000), wk =   0.0234375
        k(   26) = (   0.0000000   0.1875000   0.3750000), wk =   0.0234375
        k(   27) = (   0.0000000   0.2500000   0.2500000), wk =   0.0117188
        k(   28) = (   0.0000000   0.2500000   0.3125000), wk =   0.0234375
        k(   29) = (   0.0000000   0.2500000   0.3750000), wk =   0.0117188
        k(   30) = (   0.0000000   0.3125000   0.3125000), wk =   0.0117188
        k(   31) = (   0.0625000   0.0625000   0.0625000), wk =   0.0039062
        k(   32) = (   0.0625000   0.0625000   0.1250000), wk =   0.0117188
        k(   33) = (   0.0625000   0.0625000   0.1875000), wk =   0.0117188
        k(   34) = (   0.0625000   0.0625000   0.2500000), wk =   0.0117188
        k(   35) = (   0.0625000   0.0625000   0.3125000), wk =   0.0117188
        k(   36) = (   0.0625000   0.0625000   0.3750000), wk =   0.0117188
        k(   37) = (   0.0625000   0.0625000   0.4375000), wk =   0.0058594
        k(   38) = (   0.0625000   0.0625000  -0.0625000), wk =   0.0029297
        k(   39) = (   0.0625000   0.1250000   0.1250000), wk =   0.0117188
        k(   40) = (   0.0625000   0.1250000   0.1875000), wk =   0.0234375
        k(   41) = (   0.0625000   0.1250000   0.2500000), wk =   0.0234375
        k(   42) = (   0.0625000   0.1250000   0.3125000), wk =   0.0234375
        k(   43) = (   0.0625000   0.1250000   0.3750000), wk =   0.0234375
        k(   44) = (   0.0625000   0.1250000  -0.1250000), wk =   0.0117188
        k(   45) = (   0.0625000   0.1875000   0.1875000), wk =   0.0117188
        k(   46) = (   0.0625000   0.1875000   0.2500000), wk =   0.0234375
        k(   47) = (   0.0625000   0.1875000   0.3125000), wk =   0.0234375
        k(   48) = (   0.0625000   0.1875000   0.3750000), wk =   0.0117188
        k(   49) = (   0.0625000   0.1875000  -0.1875000), wk =   0.0117188
        k(   50) = (   0.0625000   0.1875000  -0.1250000), wk =   0.0117188
        k(   51) = (   0.0625000   0.2500000   0.2500000), wk =   0.0117188
        k(   52) = (   0.0625000   0.2500000   0.3125000), wk =   0.0234375
        k(   53) = (   0.0625000   0.2500000  -0.2500000), wk =   0.0117188
        k(   54) = (   0.0625000   0.2500000  -0.1875000), wk =   0.0234375
        k(   55) = (   0.0625000   0.3125000   0.3125000), wk =   0.0039062
        k(   56) = (   0.0625000   0.3125000  -0.3125000), wk =   0.0117188
        k(   57) = (   0.0625000   0.3125000  -0.2500000), wk =   0.0234375
        k(   58) = (   0.0625000   0.3125000  -0.1875000), wk =   0.0117188
        k(   59) = (   0.0625000   0.3750000  -0.3750000), wk =   0.0117188
        k(   60) = (   0.0625000   0.3750000  -0.3125000), wk =   0.0234375
        k(   61) = (   0.0625000   0.3750000  -0.2500000), wk =   0.0234375
        k(   62) = (   0.0625000   0.4375000  -0.4375000), wk =   0.0117188
        k(   63) = (   0.0625000   0.4375000  -0.3750000), wk =   0.0234375
        k(   64) = (   0.0625000   0.4375000  -0.3125000), wk =   0.0234375
        k(   65) = (   0.0625000   0.4375000  -0.2500000), wk =   0.0117188
        k(   66) = (   0.0625000  -0.5000000  -0.5000000), wk =   0.0058594
        k(   67) = (   0.0625000  -0.5000000  -0.4375000), wk =   0.0234375
        k(   68) = (   0.0625000  -0.5000000  -0.3750000), wk =   0.0234375
        k(   69) = (   0.0625000  -0.5000000  -0.3125000), wk =   0.0234375
        k(   70) = (   0.0625000  -0.4375000  -0.4375000), wk =   0.0117188
        k(   71) = (   0.0625000  -0.4375000  -0.3750000), wk =   0.0234375
        k(   72) = (   0.0625000  -0.4375000  -0.3125000), wk =   0.0117188
        k(   73) = (   0.0625000  -0.3750000  -0.3750000), wk =   0.0117188
        k(   74) = (   0.1250000   0.1250000   0.1250000), wk =   0.0039062
        k(   75) = (   0.1250000   0.1250000   0.1875000), wk =   0.0117188
        k(   76) = (   0.1250000   0.1250000   0.2500000), wk =   0.0117188
        k(   77) = (   0.1250000   0.1250000   0.3125000), wk =   0.0117188
        k(   78) = (   0.1250000   0.1250000   0.3750000), wk =   0.0058594
        k(   79) = (   0.1250000   0.1250000  -0.1250000), wk =   0.0029297
        k(   80) = (   0.1250000   0.1875000   0.1875000), wk =   0.0117188
        k(   81) = (   0.1250000   0.1875000   0.2500000), wk =   0.0234375
        k(   82) = (   0.1250000   0.1875000   0.3125000), wk =   0.0234375
        k(   83) = (   0.1250000   0.1875000  -0.1875000), wk =   0.0117188
        k(   84) = (   0.1250000   0.2500000   0.2500000), wk =   0.0117188
        k(   85) = (   0.1250000   0.2500000   0.3125000), wk =   0.0117188
        k(   86) = (   0.1250000   0.2500000  -0.2500000), wk =   0.0117188
        k(   87) = (   0.1250000   0.2500000  -0.1875000), wk =   0.0117188
        k(   88) = (   0.1250000   0.3125000  -0.3125000), wk =   0.0117188
        k(   89) = (   0.1250000   0.3125000  -0.2500000), wk =   0.0234375
        k(   90) = (   0.1250000   0.3750000  -0.3750000), wk =   0.0117188
        k(   91) = (   0.1250000   0.3750000  -0.3125000), wk =   0.0234375
        k(   92) = (   0.1250000   0.3750000  -0.2500000), wk =   0.0117188
        k(   93) = (   0.1250000   0.4375000  -0.4375000), wk =   0.0117188
        k(   94) = (   0.1250000   0.4375000  -0.3750000), wk =   0.0234375
        k(   95) = (   0.1250000   0.4375000  -0.3125000), wk =   0.0234375
        k(   96) = (   0.1250000  -0.5000000  -0.5000000), wk =   0.0058594
        k(   97) = (   0.1250000  -0.5000000  -0.4375000), wk =   0.0234375
        k(   98) = (   0.1250000  -0.5000000  -0.3750000), wk =   0.0234375
        k(   99) = (   0.1250000  -0.5000000  -0.3125000), wk =   0.0117188
        k(  100) = (   0.1250000  -0.4375000  -0.4375000), wk =   0.0117188
        k(  101) = (   0.1250000  -0.4375000  -0.3750000), wk =   0.0234375
        k(  102) = (   0.1250000  -0.3750000  -0.3750000), wk =   0.0039062
        k(  103) = (   0.1875000   0.1875000   0.1875000), wk =   0.0039062
        k(  104) = (   0.1875000   0.1875000   0.2500000), wk =   0.0117188
        k(  105) = (   0.1875000   0.1875000   0.3125000), wk =   0.0058594
        k(  106) = (   0.1875000   0.1875000  -0.1875000), wk =   0.0029297
        k(  107) = (   0.1875000   0.2500000   0.2500000), wk =   0.0117188
        k(  108) = (   0.1875000   0.2500000  -0.2500000), wk =   0.0117188
        k(  109) = (   0.1875000   0.3125000  -0.3125000), wk =   0.0117188
        k(  110) = (   0.1875000   0.3125000  -0.2500000), wk =   0.0117188
        k(  111) = (   0.1875000   0.3750000  -0.3750000), wk =   0.0117188
        k(  112) = (   0.1875000   0.3750000  -0.3125000), wk =   0.0234375
        k(  113) = (   0.1875000   0.4375000  -0.4375000), wk =   0.0117188
        k(  114) = (   0.1875000   0.4375000  -0.3750000), wk =   0.0234375
        k(  115) = (   0.1875000   0.4375000  -0.3125000), wk =   0.0117188
        k(  116) = (   0.1875000  -0.5000000  -0.5000000), wk =   0.0058594
        k(  117) = (   0.1875000  -0.5000000  -0.4375000), wk =   0.0234375
        k(  118) = (   0.1875000  -0.5000000  -0.3750000), wk =   0.0234375
        k(  119) = (   0.1875000  -0.4375000  -0.4375000), wk =   0.0117188
        k(  120) = (   0.1875000  -0.4375000  -0.3750000), wk =   0.0117188
        k(  121) = (   0.2500000   0.2500000   0.2500000), wk =   0.0009766
        k(  122) = (   0.2500000   0.2500000  -0.2500000), wk =   0.0029297
        k(  123) = (   0.2500000   0.3125000  -0.3125000), wk =   0.0117188
        k(  124) = (   0.2500000   0.3750000  -0.3750000), wk =   0.0117188
        k(  125) = (   0.2500000   0.3750000  -0.3125000), wk =   0.0117188
        k(  126) = (   0.2500000   0.4375000  -0.4375000), wk =   0.0117188
        k(  127) = (   0.2500000   0.4375000  -0.3750000), wk =   0.0234375
        k(  128) = (   0.2500000  -0.5000000  -0.5000000), wk =   0.0058594
        k(  129) = (   0.2500000  -0.5000000  -0.4375000), wk =   0.0234375
        k(  130) = (   0.2500000  -0.5000000  -0.3750000), wk =   0.0117188
        k(  131) = (   0.2500000  -0.4375000  -0.4375000), wk =   0.0117188
        k(  132) = (   0.3125000   0.3125000  -0.3125000), wk =   0.0029297
        k(  133) = (   0.3125000   0.3750000  -0.3750000), wk =   0.0117188
        k(  134) = (   0.3125000   0.4375000  -0.4375000), wk =   0.0117188
        k(  135) = (   0.3125000   0.4375000  -0.3750000), wk =   0.0117188
        k(  136) = (   0.3125000  -0.5000000  -0.5000000), wk =   0.0058594
        k(  137) = (   0.3125000  -0.5000000  -0.4375000), wk =   0.0234375
        k(  138) = (   0.3125000  -0.4375000  -0.4375000), wk =   0.0039062
        k(  139) = (   0.3750000   0.3750000  -0.3750000), wk =   0.0029297
        k(  140) = (   0.3750000   0.4375000  -0.4375000), wk =   0.0117188
        k(  141) = (   0.3750000  -0.5000000  -0.5000000), wk =   0.0058594
        k(  142) = (   0.3750000  -0.5000000  -0.4375000), wk =   0.0117188
        k(  143) = (   0.4375000   0.4375000  -0.4375000), wk =   0.0029297
        k(  144) = (   0.4375000  -0.5000000  -0.5000000), wk =   0.0058594
        k(  145) = (  -0.5000000  -0.5000000  -0.5000000), wk =   0.0004883

     Dense  grid:     3103 G-vectors     FFT dimensions: (  20,  20,  20)

     Dynamical RAM for                 wfc:       0.04 MB

     Dynamical RAM for     wfc (w. buffer):       5.27 MB

     Dynamical RAM for           str. fact:       0.05 MB

     Dynamical RAM for           local pot:       0.00 MB

     Dynamical RAM for          nlocal pot:       0.05 MB

     Dynamical RAM for                qrad:       0.23 MB

     Dynamical RAM for          rho,v,vnew:       0.33 MB

     Dynamical RAM for               rhoin:       0.11 MB

     Dynamical RAM for            rho*nmix:       0.76 MB

     Dynamical RAM for           G-vectors:       0.20 MB

     Dynamical RAM for          h,s,v(r/c):       0.03 MB

     Dynamical RAM for          <psi|beta>:       0.00 MB

     Dynamical RAM for                 psi:       0.14 MB

     Dynamical RAM for                hpsi:       0.14 MB

     Dynamical RAM for                spsi:       0.14 MB

     Dynamical RAM for      wfcinit/wfcrot:       0.07 MB

     Dynamical RAM for           addusdens:       2.89 MB

     Estimated static dynamical RAM per process >       7.39 MB

     Estimated max dynamical RAM per process >      10.28 MB

     Initial potential from superposition of free atoms

     starting charge    2.99753, renormalised to    3.00000
     Starting wfc are    4 randomized atomic wfcs +    2 random wfc

     total cpu time spent up to now is        0.8 secs

     Self-consistent Calculation

     iteration #  1     ecut=    35.00 Ry     beta= 0.70
     Davidson diagonalization with overlap
     ethr =  1.00E-02,  avg # of iterations =  4.7

     Threshold (ethr) on eigenvalues was too large:
     Diagonalizing with lowered threshold

     Davidson diagonalization with overlap
     ethr =  1.91E-04,  avg # of iterations =  1.6

     total cpu time spent up to now is        3.8 secs

     total energy              =      -6.70017673 Ry
     Harris-Foulkes estimate   =      -6.70223979 Ry
     estimated scf accuracy    <       0.00572119 Ry

     iteration #  2     ecut=    35.00 Ry     beta= 0.70
     Davidson diagonalization with overlap
     ethr =  1.91E-04,  avg # of iterations =  1.0

     total cpu time spent up to now is        4.8 secs

     total energy              =      -6.70021590 Ry
     Harris-Foulkes estimate   =      -6.70032085 Ry
     estimated scf accuracy    <       0.00030515 Ry

     iteration #  3     ecut=    35.00 Ry     beta= 0.70
     Davidson diagonalization with overlap
     ethr =  1.02E-05,  avg # of iterations =  1.6

     total cpu time spent up to now is        5.9 secs

     End of self-consistent calculation

          k = 0.0000 0.0000 0.0000 (   381 PWs)   bands (ev):

    -3.2976  20.9697  20.9701  22.0558  22.0558  22.0558

     occupation numbers 
     1.0000   0.0000   0.0000   0.0000   0.0000   0.0000

          k = 0.0000 0.0541-0.0541 (   380 PWs)   bands (ev):

    -3.1859  19.5090  20.0706  20.5191  21.6685  22.6705

     occupation numbers 
     1.0000   0.0000   0.0000   0.0000   0.0000   0.0000

          k = 0.0000 0.1083-0.1083 (   388 PWs)   bands (ev):

    -2.8515  17.0824  18.9579  19.5753  20.8174  21.9772

     occupation numbers 
     1.0000   0.0000   0.0000   0.0000   0.0000   0.0000

          k = 0.0000 0.1624-0.1624 (   388 PWs)   bands (ev):

    -2.2955  14.5284  17.9949  18.5802  19.9097  21.1465

     occupation numbers 
     1.0000   0.0000   0.0000   0.0000   0.0000   0.0000

          k = 0.0000 0.2165-0.2165 (   386 PWs)   bands (ev):

    -1.5201  12.0494  17.2036  17.6987  19.1067  20.4218

     occupation numbers 
     1.0000   0.0000   0.0000   0.0000   0.0000   0.0000

          k = 0.0000 0.2706-0.2706 (   392 PWs)   bands (ev):

    -0.5286   9.7086  16.5877  16.9880  18.4613  19.8212

     occupation numbers 
     1.0000   0.0000   0.0000   0.0000   0.0000   0.0000

          k = 0.0000 0.3248-0.3248 (   394 PWs)   bands (ev):

     0.6745   7.5327  16.1480  16.4710  17.9930  19.3716

     occupation numbers 
     1.0000   1.0521   0.0000   0.0000   0.0000   0.0000

          k = 0.0000 0.3789-0.3789 (   394 PWs)   bands (ev):

     2.0806   5.5401  15.8843  16.1578  17.7098  19.0936

     occupation numbers 
     1.0000   1.0000   0.0000   0.0000   0.0000   0.0000

          k = 0.0000-0.4330 0.4330 (   392 PWs)   bands (ev):

     3.4822   3.9426  15.7965  16.0530  17.6151  18.9995

     occupation numbers 
     1.0000   1.0000   0.0000   0.0000   0.0000   0.0000

          k = 0.0541 0.0541-0.1083 (   385 PWs)   bands (ev):

    -2.9629  18.3524  18.3581  19.7104  21.6882  22.3367

     occupation numbers 
     1.0000   0.0000   0.0000   0.0000   0.0000   0.0000

          k = 0.0541 0.1083-0.1624 (   390 PWs)   bands (ev):

    -2.5177  15.8614  17.2689  18.7297  21.0590  21.9708

     occupation numbers 
     1.0000   0.0000   0.0000   0.0000   0.0000   0.0000

          k = 0.0541 0.1624-0.2165 (   387 PWs)   bands (ev):

    -1.8520  13.3426  16.3304  17.8333  20.2129  21.5655

     occupation numbers 
     1.0000   0.0000   0.0000   0.0000   0.0000   0.0000

          k = 0.0541 0.2165-0.2706 (   388 PWs)   bands (ev):

    -0.9685  10.9329  15.5646  17.0920  19.4814  21.0488

     occupation numbers 
     1.0000   0.0000   0.0000   0.0000   0.0000   0.0000

          k = 0.0541 0.2706-0.3248 (   389 PWs)   bands (ev):

     0.1289   8.6751  14.9828  16.5283  18.9141  20.5887

     occupation numbers 
     1.0000   0.0000   0.0000   0.0000   0.0000   0.0000

          k = 0.0541 0.3248-0.3789 (   396 PWs)   bands (ev):

     1.4344   6.5904  14.5918  16.1500  18.5290  20.2577

     occupation numbers 
     1.0000   1.0000   0.0000   0.0000   0.0000   0.0000

          k = 0.0541 0.3789-0.4330 (   394 PWs)   bands (ev):

     2.9291   4.7047  14.3954  15.9603  18.3348  20.0864

     occupation numbers 
     1.0000   1.0000   0.0000   0.0000   0.0000   0.0000

          k = 0.1083 0.1083-0.2165 (   389 PWs)   bands (ev):

    -1.9627  14.6425  14.9639  17.8372  21.4555  21.4662

     occupation numbers 
     1.0000   0.0000   0.0000   0.0000   0.0000   0.0000

          k = 0.1083 0.1624-0.2706 (   388 PWs)   bands (ev):

    -1.1889  12.3230  13.9480  17.0386  20.7303  21.9280

     occupation numbers 
     1.0000   0.0000   0.0000   0.0000   0.0000   0.0000

          k = 0.1083 0.2165-0.3248 (   386 PWs)   bands (ev):

    -0.1995  10.0045  13.2439  16.3937  20.1029  22.2709

     occupation numbers 
     1.0000   0.0000   0.0000   0.0000   0.0000   0.0000

          k = 0.1083 0.2706-0.3789 (   391 PWs)   bands (ev):

     1.0010   7.8402  12.7405  15.9245  19.6367  22.2909

     occupation numbers 
     1.0000   0.1849   0.0000   0.0000   0.0000   0.0000

          k = 0.1083 0.3248-0.4330 (   395 PWs)   bands (ev):

     2.4036   5.8552  12.4377  15.6404  19.3517  22.1851

     occupation numbers 
     1.0000   1.0000   0.0000   0.0000   0.0000   0.0000

          k = 0.1083 0.3789-0.4871 (   395 PWs)   bands (ev):

     3.7967   4.2674  12.3366  15.5453  19.2558  22.1353

     occupation numbers 
     1.0000   1.0000   0.0000   0.0000   0.0000   0.0000

          k = 0.1624 0.1624-0.3248 (   389 PWs)   bands (ev):

    -0.3091  11.2884  11.8041  16.3321  21.3227  21.5428

     occupation numbers 
     1.0000   0.0000   0.0000   0.0000   0.0000   0.0000

          k = 0.1624 0.2165-0.3789 (   389 PWs)   bands (ev):

     0.7836   9.2591  10.9858  15.7787  20.9180  22.2965

     occupation numbers 
     1.0000   0.0000   0.0000   0.0000   0.0000   0.0000

          k = 0.1624 0.2706-0.4330 (   395 PWs)   bands (ev):

     2.0830   7.2069  10.5585  15.4021  20.5642  23.1918

     occupation numbers 
     1.0000   1.0000   0.0000   0.0000   0.0000   0.0000

          k = 0.1624 0.3248-0.4871 (   394 PWs)   bands (ev):

     3.5685   5.3385  10.3487  15.2119  20.3816  23.8469

     occupation numbers 
     1.0000   1.0000   0.0000   0.0000   0.0000   0.0000

          k = 0.2165 0.2165-0.4330 (   390 PWs)   bands (ev):

     1.9756   8.4955   9.0899  15.3179  21.8101  22.0779

     occupation numbers 
     1.0000   0.0000   0.0000   0.0000   0.0000   0.0000

          k = 0.2165 0.2706-0.4871 (   392 PWs)   bands (ev):

     3.3666   6.7671   8.5400  15.0356  21.6870  23.1254

     occupation numbers 
     1.0000   1.0000   0.0000   0.0000   0.0000   0.0000

          k = 0.2165 0.3248-0.5413 (   392 PWs)   bands (ev):

     4.7396   5.2178   8.4194  14.9407  21.6060  24.2561

     occupation numbers 
     1.0000   1.0000   0.0000   0.0000   0.0000   0.0000

          k = 0.2706 0.2706-0.5413 (   393 PWs)   bands (ev):

     4.8242   6.3079   6.9500  14.8485  22.9075  23.0778

     occupation numbers 
     1.0000   1.0000   1.0000   0.0000   0.0000   0.0000

          k = 0.1083 0.1083-0.1083 (   387 PWs)   bands (ev):

    -2.6289  17.2350  17.2350  17.3531  22.9355  22.9355

     occupation numbers 
     1.0000   0.0000   0.0000   0.0000   0.0000   0.0000

          k = 0.1083 0.1624-0.1624 (   391 PWs)   bands (ev):

    -2.0736  14.7123  16.1781  16.3667  22.4120  22.8951

     occupation numbers 
     1.0000   0.0000   0.0000   0.0000   0.0000   0.0000

          k = 0.1083 0.2165-0.2165 (   386 PWs)   bands (ev):

    -1.2993  12.2426  15.2808  15.5528  21.7681  22.2672

     occupation numbers 
     1.0000   0.0000   0.0000   0.0000   0.0000   0.0000

          k = 0.1083 0.2706-0.2706 (   388 PWs)   bands (ev):

    -0.3091   9.9091  14.5710  14.9082  21.1837  21.7314

     occupation numbers 
     1.0000   0.0000   0.0000   0.0000   0.0000   0.0000

          k = 0.1083 0.3248-0.3248 (   398 PWs)   bands (ev):

     0.8922   7.7389  14.0595  14.4425  20.7385  21.3264

     occupation numbers 
     1.0000   0.6694   0.0000   0.0000   0.0000   0.0000

          k = 0.1083 0.3789-0.3789 (   398 PWs)   bands (ev):

     2.2961   5.7507  13.7512  14.1612  20.4632  21.0751

     occupation numbers 
     1.0000   1.0000   0.0000   0.0000   0.0000   0.0000

          k = 0.1083 0.4330-0.4330 (   398 PWs)   bands (ev):

     3.6919   4.1596  13.6482  14.0672  20.3705  20.9900

     occupation numbers 
     1.0000   1.0000   0.0000   0.0000   0.0000   0.0000

          k = 0.1083 0.0000 0.0000 (   381 PWs)   bands (ev):

    -3.0744  19.0146  19.0146  20.9117  21.1863  21.5947

     occupation numbers 
     1.0000   0.0000   0.0000   0.0000   0.0000   0.0000

          k = 0.1624 0.1624-0.2165 (   388 PWs)   bands (ev):

    -1.4097  13.5509  13.9300  15.3828  23.0567  23.3076

     occupation numbers 
     1.0000   0.0000   0.0000   0.0000   0.0000   0.0000

          k = 0.1624 0.2165-0.2706 (   390 PWs)   bands (ev):

    -0.5286  11.3125  12.9777  14.6229  22.6610  23.4725

     occupation numbers 
     1.0000   0.0000   0.0000   0.0000   0.0000   0.0000

          k = 0.1624 0.2706-0.3248 (   390 PWs)   bands (ev):

     0.5657   9.0774  12.3619  14.0437  22.1825  23.3817

     occupation numbers 
     1.0000   0.0000   0.0000   0.0000   0.0000   0.0000

          k = 0.1624 0.3248-0.3789 (   392 PWs)   bands (ev):

     1.8672   7.0052  11.9528  13.6539  21.8404  23.1910

     occupation numbers 
     1.0000   1.0000   0.0000   0.0000   0.0000   0.0000

          k = 0.1624 0.3789-0.4330 (   393 PWs)   bands (ev):

     3.3559   5.1290  11.7481  13.4580  21.6644  23.0702

     occupation numbers 
     1.0000   1.0000   0.0000   0.0000   0.0000   0.0000

          k = 0.1624-0.0541 0.0000 (   388 PWs)   bands (ev):

    -2.7401  17.0705  17.8442  20.0806  20.7694  20.8093

     occupation numbers 
     1.0000   0.0000   0.0000   0.0000   0.0000   0.0000

          k = 0.2165 0.2165-0.3248 (   392 PWs)   bands (ev):

     0.4567  10.3654  10.9072  13.9484  23.4357  23.4892

     occupation numbers 
     1.0000   0.0000   0.0000   0.0000   0.0000   0.0000

          k = 0.2165 0.2706-0.3789 (   390 PWs)   bands (ev):

     1.6517   8.4317  10.1760  13.4599  23.1267  24.2812

     occupation numbers 
     1.0000   0.0000   0.0000   0.0000   0.0000   0.0000

          k = 0.2165 0.3248-0.4330 (   392 PWs)   bands (ev):

     3.0470   6.4770   9.8480  13.1643  22.8900  24.8904

     occupation numbers 
     1.0000   1.0000   0.0000   0.0000   0.0000   0.0000

          k = 0.2165 0.3789-0.4871 (   393 PWs)   bands (ev):

     4.4256   4.9086   9.7411  13.0654  22.8078  25.0775

     occupation numbers 
     1.0000   1.0000   0.0000   0.0000   0.0000   0.0000

          k = 0.2165-0.1083 0.0000 (   390 PWs)   bands (ev):

    -2.1845  14.5975  16.8216  19.0894  19.9165  20.8645

     occupation numbers 
     1.0000   0.0000   0.0000   0.0000   0.0000   0.0000

          k = 0.2165-0.0541-0.0541 (   390 PWs)   bands (ev):

    -2.2955  15.8408  16.0150  19.6054  19.7556  20.6514

     occupation numbers 
     1.0000   0.0000   0.0000   0.0000   0.0000   0.0000

          k = 0.2706 0.2706-0.4330 (   392 PWs)   bands (ev):

     2.9418   7.7691   8.3703  13.0666  24.1965  24.2108

     occupation numbers 
     1.0000   0.5033   0.0000   0.0000   0.0000   0.0000

          k = 0.2706 0.3248-0.4871 (   393 PWs)   bands (ev):

     4.4136   6.1504   7.9248  12.8686  24.0865  25.3528

     occupation numbers 
     1.0000   1.0000   0.0294   0.0000   0.0000   0.0000

          k = 0.2706-0.1624 0.0000 (   387 PWs)   bands (ev):

    -1.4097  12.1394  15.9721  18.2380  19.1150  20.8486

     occupation numbers 
     1.0000   0.0000   0.0000   0.0000   0.0000   0.0000

          k = 0.2706-0.1083-0.0541 (   390 PWs)   bands (ev):

    -1.6307  13.4970  14.9762  18.7348  19.5739  20.4188

     occupation numbers 
     1.0000   0.0000   0.0000   0.0000   0.0000   0.0000

          k = 0.3248 0.3248-0.5413 (   393 PWs)   bands (ev):

     5.7861   5.7861   6.6210  12.7696  25.2247  25.4855

     occupation numbers 
     1.0000   1.0000   1.0000   0.0000   0.0000   0.0000

          k = 0.3248-0.2165 0.0000 (   389 PWs)   bands (ev):

    -0.4188   9.8068  15.3051  17.5619  18.4627  20.5950

     occupation numbers 
     1.0000   0.0000   0.0000   0.0000   0.0000   0.0000

          k = 0.3248-0.1624-0.0541 (   388 PWs)   bands (ev):

    -0.7484  11.1195  14.1914  17.9815  19.0145  20.8253

     occupation numbers 
     1.0000   0.0000   0.0000   0.0000   0.0000   0.0000

          k = 0.3248-0.1083-0.1083 (   390 PWs)   bands (ev):

    -0.8584  12.3986  12.8349  18.5478  19.2670  20.0354

     occupation numbers 
     1.0000   0.0000   0.0000   0.0000   0.0000   0.0000

          k = 0.3789-0.2706 0.0000 (   398 PWs)   bands (ev):

     0.7834   7.6352  14.8257  17.0726  17.9885  20.2902

     occupation numbers 
     1.0000   1.0583   0.0000   0.0000   0.0000   0.0000

          k = 0.3789-0.2165-0.0541 (   392 PWs)   bands (ev):

     0.3475   8.8749  13.5997  17.4110  18.4865  21.2683

     occupation numbers 
     1.0000   0.0000   0.0000   0.0000   0.0000   0.0000

          k = 0.3789-0.1624-0.1083 (   389 PWs)   bands (ev):

     0.1290  10.2798  11.9548  17.9904  18.9778  20.4230

     occupation numbers 
     1.0000   0.0000   0.0000   0.0000   0.0000   0.0000

          k = 0.4330-0.3248 0.0000 (   394 PWs)   bands (ev):

     2.1884   5.6452  14.5370  16.7765  17.7016  20.0735

     occupation numbers 
     1.0000   1.0000   0.0000   0.0000   0.0000   0.0000

          k = 0.4330-0.2706-0.0541 (   396 PWs)   bands (ev):

     1.6510   6.7974  13.2036  17.0284  18.1140  21.4241

     occupation numbers 
     1.0000   1.0000   0.0000   0.0000   0.0000   0.0000

          k = 0.4330-0.2165-0.1083 (   394 PWs)   bands (ev):

     1.3267   8.1410  11.4349  17.5481  18.5656  21.2965

     occupation numbers 
     1.0000   0.0000   0.0000   0.0000   0.0000   0.0000

          k = 0.4330-0.1624-0.1624 (   393 PWs)   bands (ev):

     1.2184   9.4246   9.9901  17.5957  19.5177  20.1688

     occupation numbers 
     1.0000   0.0000   0.0000   0.0000   0.0000   0.0000

          k =-0.3789-0.3789 0.8660 (   394 PWs)   bands (ev):

     3.5870   4.0510  14.4406  16.6775  17.6057  19.9968

     occupation numbers 
     1.0000   1.0000   0.0000   0.0000   0.0000   0.0000

          k =-0.3789-0.3248 0.8119 (   399 PWs)   bands (ev):

     3.1426   4.9169  13.0050  16.8363  17.9237  21.4146

     occupation numbers 
     1.0000   1.0000   0.0000   0.0000   0.0000   0.0000

          k =-0.3789-0.2706 0.7578 (   400 PWs)   bands (ev):

     2.7257   6.1674  11.1262  17.2773  18.2905  22.2721

     occupation numbers 
     1.0000   1.0000   0.0000   0.0000   0.0000   0.0000

          k =-0.3789-0.2165 0.7036 (   398 PWs)   bands (ev):

     2.5133   7.5969   9.3501  17.2625  19.4209  20.9834

     occupation numbers 
     1.0000   1.0833   0.0000   0.0000   0.0000   0.0000

          k =-0.3248-0.3248 0.7578 (   396 PWs)   bands (ev):

     4.1110   4.5894  11.0235  17.1865  18.1961  22.8672

     occupation numbers 
     1.0000   1.0000   0.0000   0.0000   0.0000   0.0000

          k =-0.3248-0.2706 0.7036 (   397 PWs)   bands (ev):

     3.9923   5.7534   9.1241  17.0876  19.2630  22.2133

     occupation numbers 
     1.0000   1.0000   0.0000   0.0000   0.0000   0.0000

          k =-0.3248-0.2165 0.6495 (   398 PWs)   bands (ev):

     3.8959   7.0367   7.6481  17.0245  20.4134  20.9267

     occupation numbers 
     1.0000   1.0000   1.0363   0.0000   0.0000   0.0000

          k =-0.2706-0.2706 0.6495 (   391 PWs)   bands (ev):

     5.2623   5.7017   7.3217  16.9404  20.5357  21.9260

     occupation numbers 
     1.0000   1.0000   1.0002   0.0000   0.0000   0.0000

          k = 0.2165 0.2165-0.2165 (   384 PWs)   bands (ev):

    -0.6385  12.6373  12.6373  13.3825  24.6179  24.6199

     occupation numbers 
     1.0000   0.0000   0.0000   0.0000   0.0000   0.0000

          k = 0.2165 0.2706-0.2706 (   394 PWs)   bands (ev):

     0.3475  10.4792  11.9193  12.5487  24.5086  24.6779

     occupation numbers 
     1.0000   0.0000   0.0000   0.0000   0.0000   0.0000

          k = 0.2165 0.3248-0.3248 (   392 PWs)   bands (ev):

     1.5435   8.3460  11.4038  12.0352  24.2628  24.4253

     occupation numbers 
     1.0000   0.0000   0.0000   0.0000   0.0000   0.0000

          k = 0.2165 0.3789-0.3789 (   396 PWs)   bands (ev):

     2.9401   6.3766  11.0937  11.7314  24.0705  24.2453

     occupation numbers 
     1.0000   1.0000   0.0000   0.0000   0.0000   0.0000

          k = 0.2165 0.4330-0.4330 (   394 PWs)   bands (ev):

     4.3209   4.8039  10.9902  11.6303  24.0007  24.1815

     occupation numbers 
     1.0000   1.0000   0.0000   0.0000   0.0000   0.0000

          k = 0.2165 0.0000 0.0000 (   397 PWs)   bands (ev):

    -2.4065  16.6278  16.6278  18.7904  19.0853  21.8356

     occupation numbers 
     1.0000   0.0000   0.0000   0.0000   0.0000   0.0000

          k = 0.2706 0.2706-0.3248 (   397 PWs)   bands (ev):

     1.4353   9.6423  10.1392  11.7242  25.3783  25.5715

     occupation numbers 
     1.0000   0.0000   0.0000   0.0000   0.0000   0.0000

          k = 0.2706 0.3248-0.3789 (   394 PWs)   bands (ev):

     2.7282   7.8041   9.5290  11.2972  25.3718  26.0580

     occupation numbers 
     1.0000   0.3265   0.0000   0.0000   0.0000   0.0000

          k = 0.2706 0.3789-0.4330 (   392 PWs)   bands (ev):

     4.2046   5.9635   9.3069  11.0887  25.2718  26.2539

     occupation numbers 
     1.0000   1.0000   0.0000   0.0000   0.0000   0.0000

          k = 0.2706-0.0541 0.0000 (   389 PWs)   bands (ev):

    -1.8520  14.7519  15.5786  17.8355  18.7206  21.5966

     occupation numbers 
     1.0000   0.0000   0.0000   0.0000   0.0000   0.0000

          k = 0.3248 0.3248-0.4330 (   393 PWs)   bands (ev):

     4.1085   7.2487   7.8409  10.9699  26.3529  26.5695

     occupation numbers 
     1.0000   1.0000   0.1828   0.0000   0.0000   0.0000

          k = 0.3248 0.3789-0.4871 (   392 PWs)   bands (ev):

     5.4726   5.9118   7.5216  10.8638  26.4523  27.2873

     occupation numbers 
     1.0000   1.0000   1.0446   0.0000   0.0000   0.0000

          k = 0.3248-0.1083 0.0000 (   387 PWs)   bands (ev):

    -1.0787  12.3986  14.7126  16.9991  19.1547  20.9184

     occupation numbers 
     1.0000   0.0000   0.0000   0.0000   0.0000   0.0000

          k = 0.3248-0.0541-0.0541 (   391 PWs)   bands (ev):

    -1.1889  13.6412  13.9022  17.4416  17.9841  21.4949

     occupation numbers 
     1.0000   0.0000   0.0000   0.0000   0.0000   0.0000

          k = 0.3789-0.1624 0.0000 (   391 PWs)   bands (ev):

    -0.0899  10.0978  14.0355  16.3140  19.8393  20.3059

     occupation numbers 
     1.0000   0.0000   0.0000   0.0000   0.0000   0.0000

          k = 0.3789-0.1083-0.0541 (   396 PWs)   bands (ev):

    -0.3091  11.4741  13.0065  16.8895  18.3446  20.9521

     occupation numbers 
     1.0000   0.0000   0.0000   0.0000   0.0000   0.0000

          k = 0.4330-0.2165 0.0000 (   401 PWs)   bands (ev):

     1.1096   7.9408  13.5503  15.8141  19.8481  20.5598

     occupation numbers 
     1.0000   0.0192   0.0000   0.0000   0.0000   0.0000

          k = 0.4330-0.1624-0.0541 (   396 PWs)   bands (ev):

     0.7836   9.2686  12.4039  16.3236  19.1204  20.5162

     occupation numbers 
     1.0000   0.0000   0.0000   0.0000   0.0000   0.0000

          k = 0.4330-0.1083-0.1083 (   396 PWs)   bands (ev):

     0.6748  10.5462  11.0394  17.4007  17.8544  20.5276

     occupation numbers 
     1.0000   0.0000   0.0000   0.0000   0.0000   0.0000

          k = 0.4871-0.2706 0.0000 (   399 PWs)   bands (ev):

     2.5110   5.9595  13.2586  15.5107  19.5686  21.0430

     occupation numbers 
     1.0000   1.0000   0.0000   0.0000   0.0000   0.0000

          k = 0.4871-0.2165-0.0541 (   400 PWs)   bands (ev):

     2.0830   7.2087  12.0027  15.9326  19.6800  20.6318

     occupation numbers 
     1.0000   1.0000   0.0000   0.0000   0.0000   0.0000

          k = 0.4871-0.1624-0.1083 (   396 PWs)   bands (ev):

     1.8679   8.6260  10.3316  17.1192  18.5587  20.2052

     occupation numbers 
     1.0000   0.0000   0.0000   0.0000   0.0000   0.0000

          k =-0.3248-0.3248 0.8660 (   394 PWs)   bands (ev):

     3.9014   4.3751  13.1612  15.4090  19.4747  21.1750

     occupation numbers 
     1.0000   1.0000   0.0000   0.0000   0.0000   0.0000

          k =-0.3248-0.2706 0.8119 (   395 PWs)   bands (ev):

     3.5685   5.3392  11.8020  15.7348  19.6740  21.5400

     occupation numbers 
     1.0000   1.0000   0.0000   0.0000   0.0000   0.0000

          k =-0.3248-0.2165 0.7578 (   399 PWs)   bands (ev):

     3.2605   6.6818  10.0083  16.8425  19.2515  20.4109

     occupation numbers 
     1.0000   1.0000   0.0000   0.0000   0.0000   0.0000

          k =-0.3248-0.1624 0.7036 (   400 PWs)   bands (ev):

     3.1556   7.9696   8.5530  18.0767  18.2443  19.9483

     occupation numbers 
     1.0000   0.0083   0.0000   0.0000   0.0000   0.0000

          k =-0.2706-0.2706 0.7578 (   398 PWs)   bands (ev):

     4.6343   5.1203   9.9027  16.7476  19.3680  21.3255

     occupation numbers 
     1.0000   1.0000   0.0000   0.0000   0.0000   0.0000

          k =-0.2706-0.2165 0.7036 (   396 PWs)   bands (ev):

     4.6239   6.3560   8.1156  17.9791  19.0082  20.0872

     occupation numbers 
     1.0000   1.0000   0.0000   0.0000   0.0000   0.0000

          k =-0.2165-0.2165 0.6495 (   400 PWs)   bands (ev):

     5.9926   5.9926   6.8210  18.6753  19.3942  19.3942

     occupation numbers 
     1.0000   1.0000   1.0000   0.0000   0.0000   0.0000

          k = 0.3248 0.3248-0.3248 (   393 PWs)   bands (ev):

     2.6215   9.1239   9.1239  10.0942  27.0252  27.0265

     occupation numbers 
     1.0000   0.0000   0.0000   0.0000   0.0000   0.0000

          k = 0.3248 0.3789-0.3789 (   390 PWs)   bands (ev):

     4.0046   7.3715   8.8123   9.5813  27.4062  27.4452

     occupation numbers 
     1.0000   1.0011   0.0000   0.0000   0.0000   0.0000

          k = 0.3248 0.4330-0.4330 (   390 PWs)   bands (ev):

     5.3681   5.8410   8.7084   9.4531  27.4437  27.5185

     occupation numbers 
     1.0000   1.0000   0.0000   0.0000   0.0000   0.0000

          k = 0.3248 0.0000 0.0000 (   390 PWs)   bands (ev):

    -1.2992  14.5145  14.5145  16.3719  17.2561  22.9145

     occupation numbers 
     1.0000   0.0000   0.0000   0.0000   0.0000   0.0000

          k = 0.3789 0.3789-0.4330 (   391 PWs)   bands (ev):

     5.4529   6.9360   7.4751   9.1074  28.4030  28.5285

     occupation numbers 
     1.0000   1.0000   1.0192   0.0000   0.0000   0.0000

          k = 0.3789-0.0541 0.0000 (   396 PWs)   bands (ev):

    -0.5285  12.7643  13.6395  15.7379  16.9310  22.8387

     occupation numbers 
     1.0000   0.0000   0.0000   0.0000   0.0000   0.0000

          k = 0.4330-0.1083 0.0000 (   400 PWs)   bands (ev):

     0.4567  10.5664  12.9570  15.1532  17.5259  22.3286

     occupation numbers 
     1.0000   0.0000   0.0000   0.0000   0.0000   0.0000

          k = 0.4330-0.0541-0.0541 (   399 PWs)   bands (ev):

     0.3476  11.8174  12.1313  15.5258  16.3798  22.8613

     occupation numbers 
     1.0000   0.0000   0.0000   0.0000   0.0000   0.0000

          k = 0.4871-0.1624 0.0000 (   399 PWs)   bands (ev):

     1.6517   8.4435  12.4685  14.6691  18.4857  21.8994

     occupation numbers 
     1.0000   0.0000   0.0000   0.0000   0.0000   0.0000

          k = 0.4871-0.1083-0.0541 (   402 PWs)   bands (ev):

     1.4354   9.8351  11.4074  15.2509  16.8766  22.4032

     occupation numbers 
     1.0000   0.0000   0.0000   0.0000   0.0000   0.0000

          k = 0.5413-0.2165 0.0000 (   399 PWs)   bands (ev):

     3.0471   6.4795  12.1751  14.3673  19.6424  21.6300

     occupation numbers 
     1.0000   1.0000   0.0000   0.0000   0.0000   0.0000

          k = 0.5413-0.1624-0.0541 (   402 PWs)   bands (ev):

     2.7284   7.8162  10.9978  14.8972  17.9252  21.7990

     occupation numbers 
     1.0000   0.2734   0.0000   0.0000   0.0000   0.0000

          k = 0.5413-0.1083-0.1083 (   402 PWs)   bands (ev):

     2.6216   9.0988   9.6184  15.9334  16.6302  21.7142

     occupation numbers 
     1.0000   0.0000   0.0000   0.0000   0.0000   0.0000

          k =-0.2706-0.2706 0.8660 (   398 PWs)   bands (ev):

     4.4248   4.9108  12.0773  14.2654  20.7653  21.1239

     occupation numbers 
     1.0000   1.0000   0.0000   0.0000   0.0000   0.0000

          k =-0.2706-0.2165 0.8119 (   399 PWs)   bands (ev):

     4.2047   5.9668  10.7944  14.7060  19.1960  20.5872

     occupation numbers 
     1.0000   1.0000   0.0000   0.0000   0.0000   0.0000

          k =-0.2706-0.1624 0.7578 (   399 PWs)   bands (ev):

     4.0048   7.3808   9.1029  15.9168  17.5496  20.3980

     occupation numbers 
     1.0000   1.0015   0.0000   0.0000   0.0000   0.0000

          k =-0.2165-0.2165 0.7578 (   398 PWs)   bands (ev):

     5.3655   5.8486   8.9868  15.8413  18.7774  19.0439

     occupation numbers 
     1.0000   1.0000   0.0000   0.0000   0.0000   0.0000

          k =-0.2165-0.1624 0.7036 (   398 PWs)   bands (ev):

     5.4528   6.9282   7.5465  17.0377  17.5015  18.8538

     occupation numbers 
     1.0000   1.0000   1.0616   0.0000   0.0000   0.0000

          k = 0.4330 0.4330-0.4330 (   420 PWs)   bands (ev):

     6.8317   6.8317   6.8317   8.0762  29.4396  30.2196

     occupation numbers 
     1.0000   1.0000   1.0000   0.0002   0.0000   0.0000

          k = 0.4330 0.0000 0.0000 (   402 PWs)   bands (ev):

     0.2384  12.7590  12.7590  14.3819  15.5996  24.4196

     occupation numbers 
     1.0000   0.0000   0.0000   0.0000   0.0000   0.0000

          k = 0.4871-0.0541 0.0000 (   404 PWs)   bands (ev):

     1.2186  11.1528  12.0731  14.0182  15.4056  23.8005

     occupation numbers 
     1.0000   0.0000   0.0000   0.0000   0.0000   0.0000

          k = 0.5413-0.1083 0.0000 (   400 PWs)   bands (ev):

     2.4071   9.1272  11.5826  13.6683  16.1758  22.0363

     occupation numbers 
     1.0000   0.0000   0.0000   0.0000   0.0000   0.0000

          k = 0.5413-0.0541-0.0541 (   407 PWs)   bands (ev):

     2.2997  10.3890  10.7353  14.0311  15.0303  21.9720

     occupation numbers 
     1.0000   0.0000   0.0000   0.0000   0.0000   0.0000

          k = 0.5954-0.1624 0.0000 (   403 PWs)   bands (ev):

     3.7935   7.1977  11.2882  13.3921  17.3463  20.3433

     occupation numbers 
     1.0000   1.0000   0.0000   0.0000   0.0000   0.0000

          k = 0.5954-0.1083-0.0541 (   400 PWs)   bands (ev):

     3.5836   8.5978  10.1973  13.9915  15.6976  20.1762

     occupation numbers 
     1.0000   0.0000   0.0000   0.0000   0.0000   0.0000

          k =-0.2165-0.2165 0.8660 (   398 PWs)   bands (ev):

     5.1564   5.6502  11.1900  13.2947  18.5712  18.9483

     occupation numbers 
     1.0000   1.0000   0.0000   0.0000   0.0000   0.0000

          k =-0.2165-0.1624 0.8119 (   403 PWs)   bands (ev):

     5.0472   6.7897   9.9872  13.8442  16.9222  18.5332

     occupation numbers 
     1.0000   1.0000   0.0000   0.0000   0.0000   0.0000

          k =-0.2165-0.1083 0.7578 (   402 PWs)   bands (ev):

     4.9526   8.0621   8.6000  14.8812  15.6279  18.4314

     occupation numbers 
     1.0000   0.0003   0.0000   0.0000   0.0000   0.0000

          k =-0.1624-0.1624 0.7578 (   402 PWs)   bands (ev):

     6.3025   6.7380   8.3021  15.0551  16.4119  17.1788

     occupation numbers 
     1.0000   1.0000   0.0000   0.0000   0.0000   0.0000

          k = 0.5413 0.0000 0.0000 (   402 PWs)   bands (ev):

     2.1921  11.3851  11.3851  12.8305  14.2141  21.9184

     occupation numbers 
     1.0000   0.0000   0.0000   0.0000   0.0000   0.0000

          k = 0.5954-0.0541 0.0000 (   402 PWs)   bands (ev):

     3.3715   9.9349  10.8933  12.7154  14.1934  20.0129

     occupation numbers 
     1.0000   0.0000   0.0000   0.0000   0.0000   0.0000

          k = 0.6495-0.1083 0.0000 (   402 PWs)   bands (ev):

     4.7457   8.0968  10.5981  12.5814  15.1465  18.2464

     occupation numbers 
     1.0000   0.0001   0.0000   0.0000   0.0000   0.0000

          k = 0.6495-0.0541-0.0541 (   400 PWs)   bands (ev):

     4.6428   9.3646   9.7307  12.9627  13.9899  18.1497

     occupation numbers 
     1.0000   0.0000   0.0000   0.0000   0.0000   0.0000

          k =-0.1624-0.1624 0.8660 (   398 PWs)   bands (ev):

     6.0938   6.5794  10.4997  12.5055  16.2029  16.9620

     occupation numbers 
     1.0000   1.0000   0.0000   0.0000   0.0000   0.0000

          k =-0.1624-0.1083 0.8119 (   398 PWs)   bands (ev):

     6.0886   7.7823   9.3890  13.1282  14.7813  16.5210

     occupation numbers 
     1.0000   0.4328   0.0000   0.0000   0.0000   0.0000

          k =-0.1083-0.1083 0.7578 (   400 PWs)   bands (ev):

     7.4391   7.4391   8.1705  14.2489  14.2489  15.5661

     occupation numbers 
     1.0082   1.0082   0.0000   0.0000   0.0000   0.0000

          k = 0.6495 0.0000 0.0000 (   402 PWs)   bands (ev):

     4.5386  10.4007  10.4007  11.7210  13.1493  18.0538

     occupation numbers 
     1.0000   0.0000   0.0000   0.0000   0.0000   0.0000

          k = 0.7036-0.0541 0.0000 (   392 PWs)   bands (ev):

     5.8955   9.1208  10.1051  11.8369  13.2901  16.2825

     occupation numbers 
     1.0000   0.0000   0.0000   0.0000   0.0000   0.0000

          k =-0.1083-0.1083 0.8660 (   390 PWs)   bands (ev):

     7.2313   7.6692  10.0066  11.8766  14.0380  15.1291

     occupation numbers 
     1.0000   0.9830   0.0000   0.0000   0.0000   0.0000

          k =-0.1083-0.0541 0.8119 (   392 PWs)   bands (ev):

     7.3104   8.7485   9.1369  12.3219  13.0760  14.7747

     occupation numbers 
     1.0001   0.0000   0.0000   0.0000   0.0000   0.0000

          k = 0.7578 0.0000 0.0000 (   394 PWs)   bands (ev):

     7.2242   9.8093   9.8093  11.0549  12.2995  14.5874

     occupation numbers 
     1.0000   0.0000   0.0000   0.0000   0.0000   0.0000

          k =-0.0541-0.0541 0.8660 (   390 PWs)   bands (ev):

     8.5429   8.8377   9.7107  11.3096  12.1083  13.6913

     occupation numbers 
     0.0000   0.0000   0.0000   0.0000   0.0000   0.0000

          k =-0.8660-0.8660 0.8660 (   370 PWs)   bands (ev):

     9.6120   9.6120   9.6120  10.8328  10.8328  13.1134

     occupation numbers 
     0.0000   0.0000   0.0000   0.0000   0.0000   0.0000

     the Fermi energy is     7.7886 ev

!    total energy              =      -6.70023037 Ry
     Harris-Foulkes estimate   =      -6.70023033 Ry
     estimated scf accuracy    <       0.00000079 Ry

     The total energy is the sum of the following terms:

     one-electron contribution =       2.96281412 Ry
     hartree contribution      =       0.00558592 Ry
     xc contribution           =      -4.28670564 Ry
     ewald contribution        =      -5.38183349 Ry
     smearing contrib. (-TS)   =      -0.00009127 Ry

     convergence has been achieved in   3 iterations
 
     init_run     :      5.57s CPU      0.66s WALL (       1 calls)
     electrons    :     93.10s CPU      5.08s WALL (       1 calls)

     Called by init_run:
     wfcinit      :      5.33s CPU      0.40s WALL (       1 calls)
     wfcinit:atom :      0.14s CPU      0.01s WALL (     145 calls)
     wfcinit:wfcr :      4.87s CPU      0.37s WALL (     145 calls)
     potinit      :      0.04s CPU      0.01s WALL (       1 calls)

     Called by electrons:
     c_bands      :     80.14s CPU      4.34s WALL (       4 calls)
     sum_band     :     12.08s CPU      0.69s WALL (       4 calls)
     v_of_rho     :      0.19s CPU      0.02s WALL (       4 calls)
     v_h          :      0.01s CPU      0.00s WALL (       4 calls)
     v_xc         :      0.18s CPU      0.02s WALL (       4 calls)
     newd         :      0.24s CPU      0.02s WALL (       4 calls)
     mix_rho      :      0.01s CPU      0.00s WALL (       4 calls)

     Called by c_bands:
     init_us_2    :      2.27s CPU      0.13s WALL (    1305 calls)
     cegterg      :     75.40s CPU      4.07s WALL (     580 calls)

     Called by sum_band:
     sum_band:bec :      0.13s CPU      0.01s WALL (     580 calls)
     addusdens    :      0.16s CPU      0.01s WALL (       4 calls)

     Called by *egterg:
     h_psi        :     66.71s CPU      3.69s WALL (    2022 calls)
     s_psi        :      0.74s CPU      0.04s WALL (    2022 calls)
     g_psi        :      0.55s CPU      0.03s WALL (    1297 calls)
     cdiaghg      :      3.20s CPU      0.18s WALL (    1732 calls)
     cegterg:over :      1.43s CPU      0.08s WALL (    1297 calls)
     cegterg:upda :      0.94s CPU      0.05s WALL (    1297 calls)
     cegterg:last :      0.61s CPU      0.03s WALL (     657 calls)

     Called by h_psi:
     h_psi:pot    :     65.71s CPU      3.64s WALL (    2022 calls)
     h_psi:calbec :      2.33s CPU      0.13s WALL (    2022 calls)
     vloc_psi     :     60.95s CPU      3.37s WALL (    2022 calls)
     add_vuspsi   :      0.92s CPU      0.05s WALL (    2022 calls)

     General routines
     calbec       :      1.95s CPU      0.11s WALL (    2602 calls)
     fft          :      0.07s CPU      0.05s WALL (      54 calls)
     fftw         :     61.37s CPU      3.42s WALL (   23412 calls)
 
     Parallel routines
 
     PWSCF        :  1m38.78s CPU     0m 5.90s WALL

 
   This run was terminated on:  19: 8:13  30Jan2019            

=------------------------------------------------------------------------------=
   JOB DONE.
=------------------------------------------------------------------------------=
