
     Program PWSCF v.6.2 (svn rev. 14038) starts on 29Jan2019 at  2:55:45 

     This program is part of the open-source Quantum ESPRESSO suite
     for quantum simulation of materials; please cite
         "P. Giannozzi et al., J. Phys.:Condens. Matter 21 395502 (2009);
         "P. Giannozzi et al., J. Phys.:Condens. Matter 29 465901 (2017);
          URL http://www.quantum-espresso.org", 
     in publications or presentations arising from this work. More details at
     http://www.quantum-espresso.org/quote

     Parallel version (MPI), running on     1 processors

     MPI processes distributed on     1 nodes
     Reading input from ./1c1fbd812836.in
Warning: card &CELL ignored
Warning: card / ignored

     Current dimensions of program PWSCF are:
     Max number of different atomic species (ntypx) = 10
     Max number of k-points (npk) =  40000
     Max angular momentum in pseudopotentials (lmaxx) =  3
     Message from routine iosys:
     minimal I/O required, wf_collect reset to FALSE

     Subspace diagonalization in iterative solution of the eigenvalue problem:
     a serial algorithm will be used

 
     G-vector sticks info
     --------------------
     sticks:   dense  smooth     PW     G-vecs:    dense   smooth      PW
     Sum         367     367    121                 4645     4645     941
 


     bravais-lattice index     =            0
     lattice parameter (alat)  =       5.4355  a.u.
     unit-cell volume          =     113.5556 (a.u.)^3
     number of atoms/cell      =            1
     number of atomic types    =            1
     number of electrons       =         3.00
     number of Kohn-Sham states=            6
     kinetic-energy cutoff     =      45.0000  Ry
     charge density cutoff     =     180.0000  Ry
     convergence threshold     =      1.0E-06
     mixing beta               =       0.7000
     number of iterations used =            8  plain     mixing
     Exchange-correlation      = SLA  PW   PBE  PBE ( 1  4  3  4 0 0)
     nstep                     =           50


     celldm(1)=   5.435522  celldm(2)=   0.000000  celldm(3)=   0.000000
     celldm(4)=   0.000000  celldm(5)=   0.000000  celldm(6)=   0.000000

     crystal axes: (cart. coord. in units of alat)
               a(1) = (   0.866025   0.000000   0.500000 )  
               a(2) = (   0.288675   0.816496   0.500000 )  
               a(3) = (   0.000000   0.000000   1.000000 )  

     reciprocal axes: (cart. coord. in units 2 pi/alat)
               b(1) = (  1.154700 -0.408248  0.000000 )  
               b(2) = (  0.000000  1.224745  0.000000 )  
               b(3) = ( -0.577350 -0.408248  1.000000 )  


     PseudoPot. # 1 for Al read from file:
     ./al_pbe_v1.uspp.F.UPF
     MD5 check sum: 0a6289f5291fc8f409219462bc851e1f
     Pseudo is Ultrasoft + core correction, Zval =  3.0
     Generated by new atomic code, or converted to UPF format
     Using radial grid of  893 points,  3 beta functions with: 
                l(1) =   0
                l(2) =   1
                l(3) =   2
     Q(r) pseudized with  8 coefficients,  rinner =    0.900   0.900   0.900
                                                       0.900   0.900

     atomic species   valence    mass     pseudopotential
        Al             3.00    26.98150     Al( 1.00)

      4 Sym. Ops., with inversion, found


                                    s                        frac. trans.

      isym =  1     identity                                     

 cryst.   s( 1) = (     1          0          0      )
                  (     0          1          0      )
                  (     0          0          1      )

 cart.    s( 1) = (  1.0000000 -0.0000000  0.0000000 )
                  (  0.0000000  1.0000000  0.0000000 )
                  (  0.0000000 -0.0000000  1.0000000 )


      isym =  2     180 deg rotation - cart. axis [0,0,1]        

 cryst.   s( 2) = (    -1          0          1      )
                  (     0         -1          1      )
                  (     0          0          1      )

 cart.    s( 2) = ( -1.0000000  0.0000000  0.0000000 )
                  (  0.0000000 -1.0000000  0.0000000 )
                  (  0.0000000 -0.0000000  1.0000000 )


      isym =  3     inversion                                    

 cryst.   s( 3) = (    -1          0          0      )
                  (     0         -1          0      )
                  (     0          0         -1      )

 cart.    s( 3) = ( -1.0000000  0.0000000  0.0000000 )
                  (  0.0000000 -1.0000000  0.0000000 )
                  (  0.0000000  0.0000000 -1.0000000 )


      isym =  4     inv. 180 deg rotation - cart. axis [0,0,1]   

 cryst.   s( 4) = (     1          0         -1      )
                  (     0          1         -1      )
                  (     0          0         -1      )

 cart.    s( 4) = (  1.0000000 -0.0000000  0.0000000 )
                  (  0.0000000  1.0000000  0.0000000 )
                  (  0.0000000  0.0000000 -1.0000000 )


   Cartesian axes

     site n.     atom                  positions (alat units)
         1           Al  tau(   1) = (   0.0000000   0.0000000   0.0000000  )

   Crystallographic axes

     site n.     atom                  positions (cryst. coord.)
         1           Al  tau(   1) = (  0.0000000  0.0000000  0.0000000  )

     number of k points=  2112  Marzari-Vanderbilt smearing, width (Ry)=  0.0100
                       cart. coord. in units 2pi/alat
        k(    1) = (   0.0000000   0.0000000   0.0000000), wk =   0.0002500
        k(    2) = (  -0.0288675  -0.0204124   0.0500000), wk =   0.0010000
        k(    3) = (  -0.0577350  -0.0408248   0.1000000), wk =   0.0010000
        k(    4) = (  -0.0866025  -0.0612373   0.1500000), wk =   0.0010000
        k(    5) = (  -0.1154700  -0.0816497   0.2000000), wk =   0.0010000
        k(    6) = (  -0.1443376  -0.1020621   0.2500000), wk =   0.0010000
        k(    7) = (  -0.1732051  -0.1224745   0.3000000), wk =   0.0010000
        k(    8) = (  -0.2020726  -0.1428869   0.3500000), wk =   0.0010000
        k(    9) = (  -0.2309401  -0.1632993   0.4000000), wk =   0.0010000
        k(   10) = (  -0.2598076  -0.1837118   0.4500000), wk =   0.0010000
        k(   11) = (   0.2886751   0.2041242  -0.5000001), wk =   0.0005000
        k(   12) = (   0.0000000   0.0612373   0.0000000), wk =   0.0005000
        k(   13) = (  -0.0288675   0.0408248   0.0500000), wk =   0.0010000
        k(   14) = (  -0.0577350   0.0204124   0.1000000), wk =   0.0010000
        k(   15) = (  -0.0866025   0.0000000   0.1500000), wk =   0.0010000
        k(   16) = (  -0.1154700  -0.0204124   0.2000000), wk =   0.0010000
        k(   17) = (  -0.1443376  -0.0408248   0.2500000), wk =   0.0010000
        k(   18) = (  -0.1732051  -0.0612373   0.3000000), wk =   0.0010000
        k(   19) = (  -0.2020726  -0.0816497   0.3500000), wk =   0.0010000
        k(   20) = (  -0.2309401  -0.1020621   0.4000000), wk =   0.0010000
        k(   21) = (  -0.2598076  -0.1224745   0.4500000), wk =   0.0010000
        k(   22) = (   0.2886751   0.2653614  -0.5000001), wk =   0.0010000
        k(   23) = (   0.2598076   0.2449490  -0.4500000), wk =   0.0010000
        k(   24) = (   0.2309401   0.2245366  -0.4000000), wk =   0.0010000
        k(   25) = (   0.2020726   0.2041242  -0.3500000), wk =   0.0010000
        k(   26) = (   0.1732051   0.1837118  -0.3000000), wk =   0.0010000
        k(   27) = (   0.1443376   0.1632993  -0.2500000), wk =   0.0010000
        k(   28) = (   0.1154700   0.1428869  -0.2000000), wk =   0.0010000
        k(   29) = (   0.0866025   0.1224745  -0.1500000), wk =   0.0010000
        k(   30) = (   0.0577350   0.1020621  -0.1000000), wk =   0.0010000
        k(   31) = (   0.0288675   0.0816497  -0.0500000), wk =   0.0010000
        k(   32) = (   0.0000000   0.1224745   0.0000000), wk =   0.0005000
        k(   33) = (  -0.0288675   0.1020621   0.0500000), wk =   0.0010000
        k(   34) = (  -0.0577350   0.0816497   0.1000000), wk =   0.0010000
        k(   35) = (  -0.0866025   0.0612373   0.1500000), wk =   0.0010000
        k(   36) = (  -0.1154700   0.0408248   0.2000000), wk =   0.0010000
        k(   37) = (  -0.1443376   0.0204124   0.2500000), wk =   0.0010000
        k(   38) = (  -0.1732051   0.0000000   0.3000000), wk =   0.0010000
        k(   39) = (  -0.2020726  -0.0204124   0.3500000), wk =   0.0010000
        k(   40) = (  -0.2309401  -0.0408248   0.4000000), wk =   0.0010000
        k(   41) = (  -0.2598076  -0.0612373   0.4500000), wk =   0.0010000
        k(   42) = (   0.2886751   0.3265987  -0.5000001), wk =   0.0010000
        k(   43) = (   0.2598076   0.3061863  -0.4500000), wk =   0.0010000
        k(   44) = (   0.2309401   0.2857739  -0.4000000), wk =   0.0010000
        k(   45) = (   0.2020726   0.2653614  -0.3500000), wk =   0.0010000
        k(   46) = (   0.1732051   0.2449490  -0.3000000), wk =   0.0010000
        k(   47) = (   0.1443376   0.2245366  -0.2500000), wk =   0.0010000
        k(   48) = (   0.1154700   0.2041242  -0.2000000), wk =   0.0010000
        k(   49) = (   0.0866025   0.1837118  -0.1500000), wk =   0.0010000
        k(   50) = (   0.0577350   0.1632993  -0.1000000), wk =   0.0010000
        k(   51) = (   0.0288675   0.1428869  -0.0500000), wk =   0.0010000
        k(   52) = (   0.0000000   0.1837118   0.0000000), wk =   0.0005000
        k(   53) = (  -0.0288675   0.1632993   0.0500000), wk =   0.0010000
        k(   54) = (  -0.0577350   0.1428869   0.1000000), wk =   0.0010000
        k(   55) = (  -0.0866025   0.1224745   0.1500000), wk =   0.0010000
        k(   56) = (  -0.1154700   0.1020621   0.2000000), wk =   0.0010000
        k(   57) = (  -0.1443376   0.0816497   0.2500000), wk =   0.0010000
        k(   58) = (  -0.1732051   0.0612373   0.3000000), wk =   0.0010000
        k(   59) = (  -0.2020726   0.0408248   0.3500000), wk =   0.0010000
        k(   60) = (  -0.2309401   0.0204124   0.4000000), wk =   0.0010000
        k(   61) = (  -0.2598076   0.0000000   0.4500000), wk =   0.0010000
        k(   62) = (   0.2886751   0.3878360  -0.5000001), wk =   0.0010000
        k(   63) = (   0.2598076   0.3674235  -0.4500000), wk =   0.0010000
        k(   64) = (   0.2309401   0.3470111  -0.4000000), wk =   0.0010000
        k(   65) = (   0.2020726   0.3265987  -0.3500000), wk =   0.0010000
        k(   66) = (   0.1732051   0.3061863  -0.3000000), wk =   0.0010000
        k(   67) = (   0.1443376   0.2857739  -0.2500000), wk =   0.0010000
        k(   68) = (   0.1154700   0.2653614  -0.2000000), wk =   0.0010000
        k(   69) = (   0.0866025   0.2449490  -0.1500000), wk =   0.0010000
        k(   70) = (   0.0577350   0.2245366  -0.1000000), wk =   0.0010000
        k(   71) = (   0.0288675   0.2041242  -0.0500000), wk =   0.0010000
        k(   72) = (   0.0000000   0.2449490   0.0000000), wk =   0.0005000
        k(   73) = (  -0.0288675   0.2245366   0.0500000), wk =   0.0010000
        k(   74) = (  -0.0577350   0.2041242   0.1000000), wk =   0.0010000
        k(   75) = (  -0.0866025   0.1837118   0.1500000), wk =   0.0010000
        k(   76) = (  -0.1154700   0.1632993   0.2000000), wk =   0.0010000
        k(   77) = (  -0.1443376   0.1428869   0.2500000), wk =   0.0010000
        k(   78) = (  -0.1732051   0.1224745   0.3000000), wk =   0.0010000
        k(   79) = (  -0.2020726   0.1020621   0.3500000), wk =   0.0010000
        k(   80) = (  -0.2309401   0.0816497   0.4000000), wk =   0.0010000
        k(   81) = (  -0.2598076   0.0612373   0.4500000), wk =   0.0010000
        k(   82) = (   0.2886751   0.4490732  -0.5000001), wk =   0.0010000
        k(   83) = (   0.2598076   0.4286608  -0.4500000), wk =   0.0010000
        k(   84) = (   0.2309401   0.4082484  -0.4000000), wk =   0.0010000
        k(   85) = (   0.2020726   0.3878360  -0.3500000), wk =   0.0010000
        k(   86) = (   0.1732051   0.3674235  -0.3000000), wk =   0.0010000
        k(   87) = (   0.1443376   0.3470111  -0.2500000), wk =   0.0010000
        k(   88) = (   0.1154700   0.3265987  -0.2000000), wk =   0.0010000
        k(   89) = (   0.0866025   0.3061863  -0.1500000), wk =   0.0010000
        k(   90) = (   0.0577350   0.2857739  -0.1000000), wk =   0.0010000
        k(   91) = (   0.0288675   0.2653614  -0.0500000), wk =   0.0010000
        k(   92) = (   0.0000000   0.3061863   0.0000000), wk =   0.0005000
        k(   93) = (  -0.0288675   0.2857739   0.0500000), wk =   0.0010000
        k(   94) = (  -0.0577350   0.2653614   0.1000000), wk =   0.0010000
        k(   95) = (  -0.0866025   0.2449490   0.1500000), wk =   0.0010000
        k(   96) = (  -0.1154700   0.2245366   0.2000000), wk =   0.0010000
        k(   97) = (  -0.1443376   0.2041242   0.2500000), wk =   0.0010000
        k(   98) = (  -0.1732051   0.1837118   0.3000000), wk =   0.0010000
        k(   99) = (  -0.2020726   0.1632993   0.3500000), wk =   0.0010000
        k(  100) = (  -0.2309401   0.1428869   0.4000000), wk =   0.0010000
        k(  101) = (  -0.2598076   0.1224745   0.4500000), wk =   0.0010000
        k(  102) = (   0.2886751   0.5103105  -0.5000001), wk =   0.0010000
        k(  103) = (   0.2598076   0.4898980  -0.4500000), wk =   0.0010000
        k(  104) = (   0.2309401   0.4694856  -0.4000000), wk =   0.0010000
        k(  105) = (   0.2020726   0.4490732  -0.3500000), wk =   0.0010000
        k(  106) = (   0.1732051   0.4286608  -0.3000000), wk =   0.0010000
        k(  107) = (   0.1443376   0.4082484  -0.2500000), wk =   0.0010000
        k(  108) = (   0.1154700   0.3878360  -0.2000000), wk =   0.0010000
        k(  109) = (   0.0866025   0.3674235  -0.1500000), wk =   0.0010000
        k(  110) = (   0.0577350   0.3470111  -0.1000000), wk =   0.0010000
        k(  111) = (   0.0288675   0.3265987  -0.0500000), wk =   0.0010000
        k(  112) = (   0.0000000   0.3674235   0.0000000), wk =   0.0005000
        k(  113) = (  -0.0288675   0.3470111   0.0500000), wk =   0.0010000
        k(  114) = (  -0.0577350   0.3265987   0.1000000), wk =   0.0010000
        k(  115) = (  -0.0866025   0.3061863   0.1500000), wk =   0.0010000
        k(  116) = (  -0.1154700   0.2857739   0.2000000), wk =   0.0010000
        k(  117) = (  -0.1443376   0.2653614   0.2500000), wk =   0.0010000
        k(  118) = (  -0.1732051   0.2449490   0.3000000), wk =   0.0010000
        k(  119) = (  -0.2020726   0.2245366   0.3500000), wk =   0.0010000
        k(  120) = (  -0.2309401   0.2041242   0.4000000), wk =   0.0010000
        k(  121) = (  -0.2598076   0.1837118   0.4500000), wk =   0.0010000
        k(  122) = (   0.2886751   0.5715477  -0.5000001), wk =   0.0010000
        k(  123) = (   0.2598076   0.5511353  -0.4500000), wk =   0.0010000
        k(  124) = (   0.2309401   0.5307229  -0.4000000), wk =   0.0010000
        k(  125) = (   0.2020726   0.5103105  -0.3500000), wk =   0.0010000
        k(  126) = (   0.1732051   0.4898980  -0.3000000), wk =   0.0010000
        k(  127) = (   0.1443376   0.4694856  -0.2500000), wk =   0.0010000
        k(  128) = (   0.1154700   0.4490732  -0.2000000), wk =   0.0010000
        k(  129) = (   0.0866025   0.4286608  -0.1500000), wk =   0.0010000
        k(  130) = (   0.0577350   0.4082484  -0.1000000), wk =   0.0010000
        k(  131) = (   0.0288675   0.3878360  -0.0500000), wk =   0.0010000
        k(  132) = (   0.0000000   0.4286608   0.0000000), wk =   0.0005000
        k(  133) = (  -0.0288675   0.4082484   0.0500000), wk =   0.0010000
        k(  134) = (  -0.0577350   0.3878360   0.1000000), wk =   0.0010000
        k(  135) = (  -0.0866025   0.3674235   0.1500000), wk =   0.0010000
        k(  136) = (  -0.1154700   0.3470111   0.2000000), wk =   0.0010000
        k(  137) = (  -0.1443376   0.3265987   0.2500000), wk =   0.0010000
        k(  138) = (  -0.1732051   0.3061863   0.3000000), wk =   0.0010000
        k(  139) = (  -0.2020726   0.2857739   0.3500000), wk =   0.0010000
        k(  140) = (  -0.2309401   0.2653614   0.4000000), wk =   0.0010000
        k(  141) = (  -0.2598076   0.2449490   0.4500000), wk =   0.0010000
        k(  142) = (   0.2886751   0.6327850  -0.5000001), wk =   0.0010000
        k(  143) = (   0.2598076   0.6123726  -0.4500000), wk =   0.0010000
        k(  144) = (   0.2309401   0.5919601  -0.4000000), wk =   0.0010000
        k(  145) = (   0.2020726   0.5715477  -0.3500000), wk =   0.0010000
        k(  146) = (   0.1732051   0.5511353  -0.3000000), wk =   0.0010000
        k(  147) = (   0.1443376   0.5307229  -0.2500000), wk =   0.0010000
        k(  148) = (   0.1154700   0.5103105  -0.2000000), wk =   0.0010000
        k(  149) = (   0.0866025   0.4898980  -0.1500000), wk =   0.0010000
        k(  150) = (   0.0577350   0.4694856  -0.1000000), wk =   0.0010000
        k(  151) = (   0.0288675   0.4490732  -0.0500000), wk =   0.0010000
        k(  152) = (   0.0000000   0.4898980   0.0000000), wk =   0.0005000
        k(  153) = (  -0.0288675   0.4694856   0.0500000), wk =   0.0010000
        k(  154) = (  -0.0577350   0.4490732   0.1000000), wk =   0.0010000
        k(  155) = (  -0.0866025   0.4286608   0.1500000), wk =   0.0010000
        k(  156) = (  -0.1154700   0.4082484   0.2000000), wk =   0.0010000
        k(  157) = (  -0.1443376   0.3878360   0.2500000), wk =   0.0010000
        k(  158) = (  -0.1732051   0.3674235   0.3000000), wk =   0.0010000
        k(  159) = (  -0.2020726   0.3470111   0.3500000), wk =   0.0010000
        k(  160) = (  -0.2309401   0.3265987   0.4000000), wk =   0.0010000
        k(  161) = (  -0.2598076   0.3061863   0.4500000), wk =   0.0010000
        k(  162) = (   0.2886751   0.6940222  -0.5000001), wk =   0.0010000
        k(  163) = (   0.2598076   0.6736098  -0.4500000), wk =   0.0010000
        k(  164) = (   0.2309401   0.6531974  -0.4000000), wk =   0.0010000
        k(  165) = (   0.2020726   0.6327850  -0.3500000), wk =   0.0010000
        k(  166) = (   0.1732051   0.6123726  -0.3000000), wk =   0.0010000
        k(  167) = (   0.1443376   0.5919601  -0.2500000), wk =   0.0010000
        k(  168) = (   0.1154700   0.5715477  -0.2000000), wk =   0.0010000
        k(  169) = (   0.0866025   0.5511353  -0.1500000), wk =   0.0010000
        k(  170) = (   0.0577350   0.5307229  -0.1000000), wk =   0.0010000
        k(  171) = (   0.0288675   0.5103105  -0.0500000), wk =   0.0010000
        k(  172) = (   0.0000000   0.5511353   0.0000000), wk =   0.0005000
        k(  173) = (  -0.0288675   0.5307229   0.0500000), wk =   0.0010000
        k(  174) = (  -0.0577350   0.5103105   0.1000000), wk =   0.0010000
        k(  175) = (  -0.0866025   0.4898980   0.1500000), wk =   0.0010000
        k(  176) = (  -0.1154700   0.4694856   0.2000000), wk =   0.0010000
        k(  177) = (  -0.1443376   0.4490732   0.2500000), wk =   0.0010000
        k(  178) = (  -0.1732051   0.4286608   0.3000000), wk =   0.0010000
        k(  179) = (  -0.2020726   0.4082484   0.3500000), wk =   0.0010000
        k(  180) = (  -0.2309401   0.3878360   0.4000000), wk =   0.0010000
        k(  181) = (  -0.2598076   0.3674235   0.4500000), wk =   0.0010000
        k(  182) = (   0.2886751   0.7552595  -0.5000001), wk =   0.0010000
        k(  183) = (   0.2598076   0.7348471  -0.4500000), wk =   0.0010000
        k(  184) = (   0.2309401   0.7144346  -0.4000000), wk =   0.0010000
        k(  185) = (   0.2020726   0.6940222  -0.3500000), wk =   0.0010000
        k(  186) = (   0.1732051   0.6736098  -0.3000000), wk =   0.0010000
        k(  187) = (   0.1443376   0.6531974  -0.2500000), wk =   0.0010000
        k(  188) = (   0.1154700   0.6327850  -0.2000000), wk =   0.0010000
        k(  189) = (   0.0866025   0.6123726  -0.1500000), wk =   0.0010000
        k(  190) = (   0.0577350   0.5919601  -0.1000000), wk =   0.0010000
        k(  191) = (   0.0288675   0.5715477  -0.0500000), wk =   0.0010000
        k(  192) = (   0.0000000  -0.6123726   0.0000000), wk =   0.0002500
        k(  193) = (  -0.0288675  -0.6327850   0.0500000), wk =   0.0010000
        k(  194) = (  -0.0577350  -0.6531974   0.1000000), wk =   0.0010000
        k(  195) = (  -0.0866025  -0.6736098   0.1500000), wk =   0.0010000
        k(  196) = (  -0.1154700  -0.6940222   0.2000000), wk =   0.0010000
        k(  197) = (  -0.1443376  -0.7144346   0.2500000), wk =   0.0010000
        k(  198) = (  -0.1732051  -0.7348471   0.3000000), wk =   0.0010000
        k(  199) = (  -0.2020726  -0.7552595   0.3500000), wk =   0.0010000
        k(  200) = (  -0.2309401  -0.7756719   0.4000000), wk =   0.0010000
        k(  201) = (  -0.2598076  -0.7960843   0.4500000), wk =   0.0010000
        k(  202) = (   0.2886751  -0.4082484  -0.5000001), wk =   0.0005000
        k(  203) = (   0.0577350  -0.0204124   0.0000000), wk =   0.0005000
        k(  204) = (   0.0000000  -0.0612373   0.1000000), wk =   0.0010000
        k(  205) = (  -0.0288675  -0.0816497   0.1500000), wk =   0.0010000
        k(  206) = (  -0.0577350  -0.1020621   0.2000000), wk =   0.0010000
        k(  207) = (  -0.0866025  -0.1224745   0.2500000), wk =   0.0010000
        k(  208) = (  -0.1154700  -0.1428869   0.3000000), wk =   0.0010000
        k(  209) = (  -0.1443376  -0.1632993   0.3500000), wk =   0.0010000
        k(  210) = (  -0.1732051  -0.1837118   0.4000000), wk =   0.0010000
        k(  211) = (  -0.2020726  -0.2041242   0.4500000), wk =   0.0010000
        k(  212) = (   0.3464101   0.1837118  -0.5000001), wk =   0.0010000
        k(  213) = (   0.3175426   0.1632993  -0.4500000), wk =   0.0010000
        k(  214) = (   0.2886751   0.1428869  -0.4000000), wk =   0.0010000
        k(  215) = (   0.2598076   0.1224745  -0.3500000), wk =   0.0010000
        k(  216) = (   0.2309401   0.1020621  -0.3000000), wk =   0.0010000
        k(  217) = (   0.2020726   0.0816497  -0.2500000), wk =   0.0010000
        k(  218) = (   0.1732051   0.0612373  -0.2000000), wk =   0.0010000
        k(  219) = (   0.1443376   0.0408248  -0.1500000), wk =   0.0010000
        k(  220) = (   0.1154700   0.0204124  -0.1000000), wk =   0.0010000
        k(  221) = (   0.0866025   0.0000000  -0.0500000), wk =   0.0010000
        k(  222) = (   0.0577350   0.0408248   0.0000000), wk =   0.0005000
        k(  223) = (   0.0000000  -0.0000000   0.1000000), wk =   0.0005000
        k(  224) = (  -0.0288675  -0.0204124   0.1500000), wk =   0.0010000
        k(  225) = (  -0.0577350  -0.0408248   0.2000000), wk =   0.0010000
        k(  226) = (  -0.0866025  -0.0612373   0.2500000), wk =   0.0010000
        k(  227) = (  -0.1154700  -0.0816497   0.3000000), wk =   0.0010000
        k(  228) = (  -0.1443376  -0.1020621   0.3500000), wk =   0.0010000
        k(  229) = (  -0.1732051  -0.1224745   0.4000000), wk =   0.0010000
        k(  230) = (  -0.2020726  -0.1428869   0.4500000), wk =   0.0010000
        k(  231) = (   0.3464101   0.2449490  -0.5000001), wk =   0.0010000
        k(  232) = (   0.3175426   0.2245366  -0.4500000), wk =   0.0010000
        k(  233) = (   0.2886751   0.2041242  -0.4000000), wk =   0.0010000
        k(  234) = (   0.2598076   0.1837118  -0.3500000), wk =   0.0010000
        k(  235) = (   0.2309401   0.1632993  -0.3000000), wk =   0.0010000
        k(  236) = (   0.2020726   0.1428869  -0.2500000), wk =   0.0010000
        k(  237) = (   0.1732051   0.1224745  -0.2000000), wk =   0.0010000
        k(  238) = (   0.1443376   0.1020621  -0.1500000), wk =   0.0010000
        k(  239) = (   0.1154700   0.0816497  -0.1000000), wk =   0.0010000
        k(  240) = (   0.0866025   0.0612373  -0.0500000), wk =   0.0010000
        k(  241) = (   0.0577350   0.1020621   0.0000000), wk =   0.0005000
        k(  242) = (  -0.0288675   0.0408248   0.1500000), wk =   0.0010000
        k(  243) = (  -0.0577350   0.0204124   0.2000000), wk =   0.0010000
        k(  244) = (  -0.0866025   0.0000000   0.2500000), wk =   0.0010000
        k(  245) = (  -0.1154700  -0.0204124   0.3000000), wk =   0.0010000
        k(  246) = (  -0.1443376  -0.0408248   0.3500000), wk =   0.0010000
        k(  247) = (  -0.1732051  -0.0612373   0.4000000), wk =   0.0010000
        k(  248) = (  -0.2020726  -0.0816497   0.4500000), wk =   0.0010000
        k(  249) = (   0.3464101   0.3061863  -0.5000001), wk =   0.0010000
        k(  250) = (   0.3175426   0.2857739  -0.4500000), wk =   0.0010000
        k(  251) = (   0.2886751   0.2653614  -0.4000000), wk =   0.0010000
        k(  252) = (   0.2598076   0.2449490  -0.3500000), wk =   0.0010000
        k(  253) = (   0.2309401   0.2245366  -0.3000000), wk =   0.0010000
        k(  254) = (   0.2020726   0.2041242  -0.2500000), wk =   0.0010000
        k(  255) = (   0.1732051   0.1837118  -0.2000000), wk =   0.0010000
        k(  256) = (   0.1443376   0.1632993  -0.1500000), wk =   0.0010000
        k(  257) = (   0.1154700   0.1428869  -0.1000000), wk =   0.0010000
        k(  258) = (   0.0866025   0.1224745  -0.0500000), wk =   0.0010000
        k(  259) = (   0.0577350   0.1632993   0.0000000), wk =   0.0005000
        k(  260) = (   0.0000000   0.1224745   0.1000000), wk =   0.0010000
        k(  261) = (  -0.0288675   0.1020621   0.1500000), wk =   0.0010000
        k(  262) = (  -0.0577350   0.0816497   0.2000000), wk =   0.0010000
        k(  263) = (  -0.0866025   0.0612373   0.2500000), wk =   0.0010000
        k(  264) = (  -0.1154700   0.0408248   0.3000000), wk =   0.0010000
        k(  265) = (  -0.1443376   0.0204124   0.3500000), wk =   0.0010000
        k(  266) = (  -0.1732051   0.0000000   0.4000000), wk =   0.0010000
        k(  267) = (  -0.2020726  -0.0204124   0.4500000), wk =   0.0010000
        k(  268) = (   0.3464101   0.3674235  -0.5000001), wk =   0.0010000
        k(  269) = (   0.3175426   0.3470111  -0.4500000), wk =   0.0010000
        k(  270) = (   0.2886751   0.3265987  -0.4000000), wk =   0.0010000
        k(  271) = (   0.2598076   0.3061863  -0.3500000), wk =   0.0010000
        k(  272) = (   0.2309401   0.2857739  -0.3000000), wk =   0.0010000
        k(  273) = (   0.2020726   0.2653614  -0.2500000), wk =   0.0010000
        k(  274) = (   0.1732051   0.2449490  -0.2000000), wk =   0.0010000
        k(  275) = (   0.1443376   0.2245366  -0.1500000), wk =   0.0010000
        k(  276) = (   0.1154700   0.2041242  -0.1000000), wk =   0.0010000
        k(  277) = (   0.0866025   0.1837118  -0.0500000), wk =   0.0010000
        k(  278) = (   0.0577350   0.2245366   0.0000000), wk =   0.0005000
        k(  279) = (   0.0000000   0.1837118   0.1000000), wk =   0.0010000
        k(  280) = (  -0.0288675   0.1632993   0.1500000), wk =   0.0010000
        k(  281) = (  -0.0577350   0.1428869   0.2000000), wk =   0.0010000
        k(  282) = (  -0.0866025   0.1224745   0.2500000), wk =   0.0010000
        k(  283) = (  -0.1154700   0.1020621   0.3000000), wk =   0.0010000
        k(  284) = (  -0.1443376   0.0816497   0.3500000), wk =   0.0010000
        k(  285) = (  -0.1732051   0.0612373   0.4000000), wk =   0.0010000
        k(  286) = (  -0.2020726   0.0408248   0.4500000), wk =   0.0010000
        k(  287) = (   0.3464101   0.4286608  -0.5000001), wk =   0.0010000
        k(  288) = (   0.3175426   0.4082484  -0.4500000), wk =   0.0010000
        k(  289) = (   0.2886751   0.3878360  -0.4000000), wk =   0.0010000
        k(  290) = (   0.2598076   0.3674235  -0.3500000), wk =   0.0010000
        k(  291) = (   0.2309401   0.3470111  -0.3000000), wk =   0.0010000
        k(  292) = (   0.2020726   0.3265987  -0.2500000), wk =   0.0010000
        k(  293) = (   0.1732051   0.3061863  -0.2000000), wk =   0.0010000
        k(  294) = (   0.1443376   0.2857739  -0.1500000), wk =   0.0010000
        k(  295) = (   0.1154700   0.2653614  -0.1000000), wk =   0.0010000
        k(  296) = (   0.0866025   0.2449490  -0.0500000), wk =   0.0010000
        k(  297) = (   0.0577350   0.2857739   0.0000000), wk =   0.0005000
        k(  298) = (   0.0000000   0.2449490   0.1000000), wk =   0.0010000
        k(  299) = (  -0.0288675   0.2245366   0.1500000), wk =   0.0010000
        k(  300) = (  -0.0577350   0.2041242   0.2000000), wk =   0.0010000
        k(  301) = (  -0.0866025   0.1837118   0.2500000), wk =   0.0010000
        k(  302) = (  -0.1154700   0.1632993   0.3000000), wk =   0.0010000
        k(  303) = (  -0.1443376   0.1428869   0.3500000), wk =   0.0010000
        k(  304) = (  -0.1732051   0.1224745   0.4000000), wk =   0.0010000
        k(  305) = (  -0.2020726   0.1020621   0.4500000), wk =   0.0010000
        k(  306) = (   0.3464101   0.4898980  -0.5000001), wk =   0.0010000
        k(  307) = (   0.3175426   0.4694856  -0.4500000), wk =   0.0010000
        k(  308) = (   0.2886751   0.4490732  -0.4000000), wk =   0.0010000
        k(  309) = (   0.2598076   0.4286608  -0.3500000), wk =   0.0010000
        k(  310) = (   0.2309401   0.4082484  -0.3000000), wk =   0.0010000
        k(  311) = (   0.2020726   0.3878360  -0.2500000), wk =   0.0010000
        k(  312) = (   0.1732051   0.3674235  -0.2000000), wk =   0.0010000
        k(  313) = (   0.1443376   0.3470111  -0.1500000), wk =   0.0010000
        k(  314) = (   0.1154700   0.3265987  -0.1000000), wk =   0.0010000
        k(  315) = (   0.0866025   0.3061863  -0.0500000), wk =   0.0010000
        k(  316) = (   0.0577350   0.3470111   0.0000000), wk =   0.0005000
        k(  317) = (   0.0000000   0.3061863   0.1000000), wk =   0.0010000
        k(  318) = (  -0.0288675   0.2857739   0.1500000), wk =   0.0010000
        k(  319) = (  -0.0577350   0.2653614   0.2000000), wk =   0.0010000
        k(  320) = (  -0.0866025   0.2449490   0.2500000), wk =   0.0010000
        k(  321) = (  -0.1154700   0.2245366   0.3000000), wk =   0.0010000
        k(  322) = (  -0.1443376   0.2041242   0.3500000), wk =   0.0010000
        k(  323) = (  -0.1732051   0.1837118   0.4000000), wk =   0.0010000
        k(  324) = (  -0.2020726   0.1632993   0.4500000), wk =   0.0010000
        k(  325) = (   0.3464101   0.5511353  -0.5000001), wk =   0.0010000
        k(  326) = (   0.3175426   0.5307229  -0.4500000), wk =   0.0010000
        k(  327) = (   0.2886751   0.5103105  -0.4000000), wk =   0.0010000
        k(  328) = (   0.2598076   0.4898980  -0.3500000), wk =   0.0010000
        k(  329) = (   0.2309401   0.4694856  -0.3000000), wk =   0.0010000
        k(  330) = (   0.2020726   0.4490732  -0.2500000), wk =   0.0010000
        k(  331) = (   0.1732051   0.4286608  -0.2000000), wk =   0.0010000
        k(  332) = (   0.1443376   0.4082484  -0.1500000), wk =   0.0010000
        k(  333) = (   0.1154700   0.3878360  -0.1000000), wk =   0.0010000
        k(  334) = (   0.0866025   0.3674235  -0.0500000), wk =   0.0010000
        k(  335) = (   0.0577350   0.4082484   0.0000000), wk =   0.0005000
        k(  336) = (   0.0000000   0.3674235   0.1000000), wk =   0.0010000
        k(  337) = (  -0.0288675   0.3470111   0.1500000), wk =   0.0010000
        k(  338) = (  -0.0577350   0.3265987   0.2000000), wk =   0.0010000
        k(  339) = (  -0.0866025   0.3061863   0.2500000), wk =   0.0010000
        k(  340) = (  -0.1154700   0.2857739   0.3000000), wk =   0.0010000
        k(  341) = (  -0.1443376   0.2653614   0.3500000), wk =   0.0010000
        k(  342) = (  -0.1732051   0.2449490   0.4000000), wk =   0.0010000
        k(  343) = (  -0.2020726   0.2245366   0.4500000), wk =   0.0010000
        k(  344) = (   0.3464101   0.6123726  -0.5000001), wk =   0.0010000
        k(  345) = (   0.3175426   0.5919601  -0.4500000), wk =   0.0010000
        k(  346) = (   0.2886751   0.5715477  -0.4000000), wk =   0.0010000
        k(  347) = (   0.2598076   0.5511353  -0.3500000), wk =   0.0010000
        k(  348) = (   0.2309401   0.5307229  -0.3000000), wk =   0.0010000
        k(  349) = (   0.2020726   0.5103105  -0.2500000), wk =   0.0010000
        k(  350) = (   0.1732051   0.4898980  -0.2000000), wk =   0.0010000
        k(  351) = (   0.1443376   0.4694856  -0.1500000), wk =   0.0010000
        k(  352) = (   0.1154700   0.4490732  -0.1000000), wk =   0.0010000
        k(  353) = (   0.0866025   0.4286608  -0.0500000), wk =   0.0010000
        k(  354) = (   0.0577350   0.4694856   0.0000000), wk =   0.0005000
        k(  355) = (   0.0000000   0.4286608   0.1000000), wk =   0.0010000
        k(  356) = (  -0.0288675   0.4082484   0.1500000), wk =   0.0010000
        k(  357) = (  -0.0577350   0.3878360   0.2000000), wk =   0.0010000
        k(  358) = (  -0.0866025   0.3674235   0.2500000), wk =   0.0010000
        k(  359) = (  -0.1154700   0.3470111   0.3000000), wk =   0.0010000
        k(  360) = (  -0.1443376   0.3265987   0.3500000), wk =   0.0010000
        k(  361) = (  -0.1732051   0.3061863   0.4000000), wk =   0.0010000
        k(  362) = (  -0.2020726   0.2857739   0.4500000), wk =   0.0010000
        k(  363) = (   0.3464101   0.6736098  -0.5000001), wk =   0.0010000
        k(  364) = (   0.3175426   0.6531974  -0.4500000), wk =   0.0010000
        k(  365) = (   0.2886751   0.6327850  -0.4000000), wk =   0.0010000
        k(  366) = (   0.2598076   0.6123726  -0.3500000), wk =   0.0010000
        k(  367) = (   0.2309401   0.5919601  -0.3000000), wk =   0.0010000
        k(  368) = (   0.2020726   0.5715477  -0.2500000), wk =   0.0010000
        k(  369) = (   0.1732051   0.5511353  -0.2000000), wk =   0.0010000
        k(  370) = (   0.1443376   0.5307229  -0.1500000), wk =   0.0010000
        k(  371) = (   0.1154700   0.5103105  -0.1000000), wk =   0.0010000
        k(  372) = (   0.0866025   0.4898980  -0.0500000), wk =   0.0010000
        k(  373) = (   0.0577350   0.5307229   0.0000000), wk =   0.0005000
        k(  374) = (   0.0000000   0.4898980   0.1000000), wk =   0.0010000
        k(  375) = (  -0.0288675   0.4694856   0.1500000), wk =   0.0010000
        k(  376) = (  -0.0577350   0.4490732   0.2000000), wk =   0.0010000
        k(  377) = (  -0.0866025   0.4286608   0.2500000), wk =   0.0010000
        k(  378) = (  -0.1154700   0.4082484   0.3000000), wk =   0.0010000
        k(  379) = (  -0.1443376   0.3878360   0.3500000), wk =   0.0010000
        k(  380) = (  -0.1732051   0.3674235   0.4000000), wk =   0.0010000
        k(  381) = (  -0.2020726   0.3470111   0.4500000), wk =   0.0010000
        k(  382) = (   0.3464101   0.7348471  -0.5000001), wk =   0.0010000
        k(  383) = (   0.3175426   0.7144346  -0.4500000), wk =   0.0010000
        k(  384) = (   0.2886751   0.6940222  -0.4000000), wk =   0.0010000
        k(  385) = (   0.2598076   0.6736098  -0.3500000), wk =   0.0010000
        k(  386) = (   0.2309401   0.6531974  -0.3000000), wk =   0.0010000
        k(  387) = (   0.2020726   0.6327850  -0.2500000), wk =   0.0010000
        k(  388) = (   0.1732051   0.6123726  -0.2000000), wk =   0.0010000
        k(  389) = (   0.1443376   0.5919601  -0.1500000), wk =   0.0010000
        k(  390) = (   0.1154700   0.5715477  -0.1000000), wk =   0.0010000
        k(  391) = (   0.0866025   0.5511353  -0.0500000), wk =   0.0010000
        k(  392) = (   0.0577350  -0.6327850   0.0000000), wk =   0.0005000
        k(  393) = (   0.0000000  -0.6736098   0.1000000), wk =   0.0010000
        k(  394) = (  -0.0288675  -0.6940222   0.1500000), wk =   0.0010000
        k(  395) = (  -0.0577350  -0.7144346   0.2000000), wk =   0.0010000
        k(  396) = (  -0.0866025  -0.7348471   0.2500000), wk =   0.0010000
        k(  397) = (  -0.1154700  -0.7552595   0.3000000), wk =   0.0010000
        k(  398) = (  -0.1443376  -0.7756719   0.3500000), wk =   0.0010000
        k(  399) = (  -0.1732051  -0.7960843   0.4000000), wk =   0.0010000
        k(  400) = (  -0.2020726  -0.8164967   0.4500000), wk =   0.0010000
        k(  401) = (   0.3464101  -0.4286608  -0.5000001), wk =   0.0010000
        k(  402) = (   0.3175426  -0.4490732  -0.4500000), wk =   0.0010000
        k(  403) = (   0.2886751  -0.4694856  -0.4000000), wk =   0.0010000
        k(  404) = (   0.2598076  -0.4898980  -0.3500000), wk =   0.0010000
        k(  405) = (   0.2309401  -0.5103105  -0.3000000), wk =   0.0010000
        k(  406) = (   0.2020726  -0.5307229  -0.2500000), wk =   0.0010000
        k(  407) = (   0.1732051  -0.5511353  -0.2000000), wk =   0.0010000
        k(  408) = (   0.1443376  -0.5715477  -0.1500000), wk =   0.0010000
        k(  409) = (   0.1154700  -0.5919601  -0.1000000), wk =   0.0010000
        k(  410) = (   0.0866025  -0.6123726  -0.0500000), wk =   0.0010000
        k(  411) = (   0.0577350  -0.5715477   0.0000000), wk =   0.0005000
        k(  412) = (   0.0000000  -0.6123726   0.1000000), wk =   0.0005000
        k(  413) = (  -0.0288675  -0.6327850   0.1500000), wk =   0.0010000
        k(  414) = (  -0.0577350  -0.6531974   0.2000000), wk =   0.0010000
        k(  415) = (  -0.0866025  -0.6736098   0.2500000), wk =   0.0010000
        k(  416) = (  -0.1154700  -0.6940222   0.3000000), wk =   0.0010000
        k(  417) = (  -0.1443376  -0.7144346   0.3500000), wk =   0.0010000
        k(  418) = (  -0.1732051  -0.7348471   0.4000000), wk =   0.0010000
        k(  419) = (  -0.2020726  -0.7552595   0.4500000), wk =   0.0010000
        k(  420) = (   0.3464101  -0.3674235  -0.5000001), wk =   0.0010000
        k(  421) = (   0.3175426  -0.3878360  -0.4500000), wk =   0.0010000
        k(  422) = (   0.2886751  -0.4082484  -0.4000000), wk =   0.0010000
        k(  423) = (   0.2598076  -0.4286608  -0.3500000), wk =   0.0010000
        k(  424) = (   0.2309401  -0.4490732  -0.3000000), wk =   0.0010000
        k(  425) = (   0.2020726  -0.4694856  -0.2500000), wk =   0.0010000
        k(  426) = (   0.1732051  -0.4898980  -0.2000000), wk =   0.0010000
        k(  427) = (   0.1443376  -0.5103105  -0.1500000), wk =   0.0010000
        k(  428) = (   0.1154700  -0.5307229  -0.1000000), wk =   0.0010000
        k(  429) = (   0.0866025  -0.5511353  -0.0500000), wk =   0.0010000
        k(  430) = (   0.0577350  -0.5103105   0.0000000), wk =   0.0005000
        k(  431) = (  -0.0288675  -0.5715477   0.1500000), wk =   0.0010000
        k(  432) = (  -0.0577350  -0.5919601   0.2000000), wk =   0.0010000
        k(  433) = (  -0.0866025  -0.6123726   0.2500000), wk =   0.0010000
        k(  434) = (  -0.1154700  -0.6327850   0.3000000), wk =   0.0010000
        k(  435) = (  -0.1443376  -0.6531974   0.3500000), wk =   0.0010000
        k(  436) = (  -0.1732051  -0.6736098   0.4000000), wk =   0.0010000
        k(  437) = (  -0.2020726  -0.6940222   0.4500000), wk =   0.0010000
        k(  438) = (   0.3464101  -0.3061863  -0.5000001), wk =   0.0010000
        k(  439) = (   0.3175426  -0.3265987  -0.4500000), wk =   0.0010000
        k(  440) = (   0.2886751  -0.3470111  -0.4000000), wk =   0.0010000
        k(  441) = (   0.2598076  -0.3674235  -0.3500000), wk =   0.0010000
        k(  442) = (   0.2309401  -0.3878360  -0.3000000), wk =   0.0010000
        k(  443) = (   0.2020726  -0.4082484  -0.2500000), wk =   0.0010000
        k(  444) = (   0.1732051  -0.4286608  -0.2000000), wk =   0.0010000
        k(  445) = (   0.1443376  -0.4490732  -0.1500000), wk =   0.0010000
        k(  446) = (   0.1154700  -0.4694856  -0.1000000), wk =   0.0010000
        k(  447) = (   0.0866025  -0.4898980  -0.0500000), wk =   0.0010000
        k(  448) = (   0.0577350  -0.4490732   0.0000000), wk =   0.0005000
        k(  449) = (  -0.0288675  -0.5103105   0.1500000), wk =   0.0010000
        k(  450) = (  -0.0577350  -0.5307229   0.2000000), wk =   0.0010000
        k(  451) = (  -0.0866025  -0.5511353   0.2500000), wk =   0.0010000
        k(  452) = (  -0.1154700  -0.5715477   0.3000000), wk =   0.0010000
        k(  453) = (  -0.1443376  -0.5919601   0.3500000), wk =   0.0010000
        k(  454) = (  -0.1732051  -0.6123726   0.4000000), wk =   0.0010000
        k(  455) = (  -0.2020726  -0.6327850   0.4500000), wk =   0.0010000
        k(  456) = (   0.3464101  -0.2449490  -0.5000001), wk =   0.0010000
        k(  457) = (   0.3175426  -0.2653614  -0.4500000), wk =   0.0010000
        k(  458) = (   0.2886751  -0.2857739  -0.4000000), wk =   0.0010000
        k(  459) = (   0.2598076  -0.3061863  -0.3500000), wk =   0.0010000
        k(  460) = (   0.2309401  -0.3265987  -0.3000000), wk =   0.0010000
        k(  461) = (   0.2020726  -0.3470111  -0.2500000), wk =   0.0010000
        k(  462) = (   0.1732051  -0.3674235  -0.2000000), wk =   0.0010000
        k(  463) = (   0.1443376  -0.3878360  -0.1500000), wk =   0.0010000
        k(  464) = (   0.1154700  -0.4082484  -0.1000000), wk =   0.0010000
        k(  465) = (   0.0866025  -0.4286608  -0.0500000), wk =   0.0010000
        k(  466) = (   0.0577350  -0.3878360   0.0000000), wk =   0.0005000
        k(  467) = (  -0.0288675  -0.4490732   0.1500000), wk =   0.0010000
        k(  468) = (  -0.0577350  -0.4694856   0.2000000), wk =   0.0010000
        k(  469) = (  -0.0866025  -0.4898980   0.2500000), wk =   0.0010000
        k(  470) = (  -0.1154700  -0.5103105   0.3000000), wk =   0.0010000
        k(  471) = (  -0.1443376  -0.5307229   0.3500000), wk =   0.0010000
        k(  472) = (  -0.1732051  -0.5511353   0.4000000), wk =   0.0010000
        k(  473) = (  -0.2020726  -0.5715477   0.4500000), wk =   0.0010000
        k(  474) = (   0.3464101  -0.1837118  -0.5000001), wk =   0.0010000
        k(  475) = (   0.3175426  -0.2041242  -0.4500000), wk =   0.0010000
        k(  476) = (   0.2886751  -0.2245366  -0.4000000), wk =   0.0010000
        k(  477) = (   0.2598076  -0.2449490  -0.3500000), wk =   0.0010000
        k(  478) = (   0.2309401  -0.2653614  -0.3000000), wk =   0.0010000
        k(  479) = (   0.2020726  -0.2857739  -0.2500000), wk =   0.0010000
        k(  480) = (   0.1732051  -0.3061863  -0.2000000), wk =   0.0010000
        k(  481) = (   0.1443376  -0.3265987  -0.1500000), wk =   0.0010000
        k(  482) = (   0.1154700  -0.3470111  -0.1000000), wk =   0.0010000
        k(  483) = (   0.0866025  -0.3674235  -0.0500000), wk =   0.0010000
        k(  484) = (   0.0577350  -0.3265987   0.0000000), wk =   0.0005000
        k(  485) = (  -0.0288675  -0.3878360   0.1500000), wk =   0.0010000
        k(  486) = (  -0.0577350  -0.4082484   0.2000000), wk =   0.0010000
        k(  487) = (  -0.0866025  -0.4286608   0.2500000), wk =   0.0010000
        k(  488) = (  -0.1154700  -0.4490732   0.3000000), wk =   0.0010000
        k(  489) = (  -0.1443376  -0.4694856   0.3500000), wk =   0.0010000
        k(  490) = (  -0.1732051  -0.4898980   0.4000000), wk =   0.0010000
        k(  491) = (  -0.2020726  -0.5103105   0.4500000), wk =   0.0010000
        k(  492) = (   0.3464101  -0.1224745  -0.5000001), wk =   0.0010000
        k(  493) = (   0.3175426  -0.1428869  -0.4500000), wk =   0.0010000
        k(  494) = (   0.2886751  -0.1632993  -0.4000000), wk =   0.0010000
        k(  495) = (   0.2598076  -0.1837118  -0.3500000), wk =   0.0010000
        k(  496) = (   0.2309401  -0.2041242  -0.3000000), wk =   0.0010000
        k(  497) = (   0.2020726  -0.2245366  -0.2500000), wk =   0.0010000
        k(  498) = (   0.1732051  -0.2449490  -0.2000000), wk =   0.0010000
        k(  499) = (   0.1443376  -0.2653614  -0.1500000), wk =   0.0010000
        k(  500) = (   0.1154700  -0.2857739  -0.1000000), wk =   0.0010000
        k(  501) = (   0.0866025  -0.3061863  -0.0500000), wk =   0.0010000
        k(  502) = (   0.0577350  -0.2653614   0.0000000), wk =   0.0005000
        k(  503) = (  -0.0288675  -0.3265987   0.1500000), wk =   0.0010000
        k(  504) = (  -0.0577350  -0.3470111   0.2000000), wk =   0.0010000
        k(  505) = (  -0.0866025  -0.3674235   0.2500000), wk =   0.0010000
        k(  506) = (  -0.1154700  -0.3878360   0.3000000), wk =   0.0010000
        k(  507) = (  -0.1443376  -0.4082484   0.3500000), wk =   0.0010000
        k(  508) = (  -0.1732051  -0.4286608   0.4000000), wk =   0.0010000
        k(  509) = (  -0.2020726  -0.4490732   0.4500000), wk =   0.0010000
        k(  510) = (   0.3464101  -0.0612373  -0.5000001), wk =   0.0010000
        k(  511) = (   0.3175426  -0.0816497  -0.4500000), wk =   0.0010000
        k(  512) = (   0.2886751  -0.1020621  -0.4000000), wk =   0.0010000
        k(  513) = (   0.2598076  -0.1224745  -0.3500000), wk =   0.0010000
        k(  514) = (   0.2309401  -0.1428869  -0.3000000), wk =   0.0010000
        k(  515) = (   0.2020726  -0.1632993  -0.2500000), wk =   0.0010000
        k(  516) = (   0.1732051  -0.1837118  -0.2000000), wk =   0.0010000
        k(  517) = (   0.1443376  -0.2041242  -0.1500000), wk =   0.0010000
        k(  518) = (   0.1154700  -0.2245366  -0.1000000), wk =   0.0010000
        k(  519) = (   0.0866025  -0.2449490  -0.0500000), wk =   0.0010000
        k(  520) = (   0.0577350  -0.2041242   0.0000000), wk =   0.0005000
        k(  521) = (  -0.0288675  -0.2653614   0.1500000), wk =   0.0010000
        k(  522) = (  -0.0577350  -0.2857739   0.2000000), wk =   0.0010000
        k(  523) = (  -0.0866025  -0.3061863   0.2500000), wk =   0.0010000
        k(  524) = (  -0.1154700  -0.3265987   0.3000000), wk =   0.0010000
        k(  525) = (  -0.1443376  -0.3470111   0.3500000), wk =   0.0010000
        k(  526) = (  -0.1732051  -0.3674235   0.4000000), wk =   0.0010000
        k(  527) = (  -0.2020726  -0.3878360   0.4500000), wk =   0.0010000
        k(  528) = (   0.3464101  -0.0000000  -0.5000001), wk =   0.0010000
        k(  529) = (   0.3175426  -0.0204124  -0.4500000), wk =   0.0010000
        k(  530) = (   0.2886751  -0.0408248  -0.4000000), wk =   0.0010000
        k(  531) = (   0.2598076  -0.0612373  -0.3500000), wk =   0.0010000
        k(  532) = (   0.2309401  -0.0816497  -0.3000000), wk =   0.0010000
        k(  533) = (   0.2020726  -0.1020621  -0.2500000), wk =   0.0010000
        k(  534) = (   0.1732051  -0.1224745  -0.2000000), wk =   0.0010000
        k(  535) = (   0.1443376  -0.1428869  -0.1500000), wk =   0.0010000
        k(  536) = (   0.1154700  -0.1632993  -0.1000000), wk =   0.0010000
        k(  537) = (   0.0866025  -0.1837118  -0.0500000), wk =   0.0010000
        k(  538) = (   0.0577350  -0.1428869   0.0000000), wk =   0.0005000
        k(  539) = (  -0.0288675  -0.2041242   0.1500000), wk =   0.0010000
        k(  540) = (  -0.0577350  -0.2245366   0.2000000), wk =   0.0010000
        k(  541) = (  -0.0866025  -0.2449490   0.2500000), wk =   0.0010000
        k(  542) = (  -0.1154700  -0.2653614   0.3000000), wk =   0.0010000
        k(  543) = (  -0.1443376  -0.2857739   0.3500000), wk =   0.0010000
        k(  544) = (  -0.1732051  -0.3061863   0.4000000), wk =   0.0010000
        k(  545) = (  -0.2020726  -0.3265987   0.4500000), wk =   0.0010000
        k(  546) = (   0.3464101   0.0612373  -0.5000001), wk =   0.0010000
        k(  547) = (   0.3175426   0.0408248  -0.4500000), wk =   0.0010000
        k(  548) = (   0.2886751   0.0204124  -0.4000000), wk =   0.0010000
        k(  549) = (   0.2598076   0.0000000  -0.3500000), wk =   0.0010000
        k(  550) = (   0.2309401  -0.0204124  -0.3000000), wk =   0.0010000
        k(  551) = (   0.2020726  -0.0408248  -0.2500000), wk =   0.0010000
        k(  552) = (   0.1732051  -0.0612373  -0.2000000), wk =   0.0010000
        k(  553) = (   0.1443376  -0.0816497  -0.1500000), wk =   0.0010000
        k(  554) = (   0.1154700  -0.1020621  -0.1000000), wk =   0.0010000
        k(  555) = (   0.0866025  -0.1224745  -0.0500000), wk =   0.0010000
        k(  556) = (   0.0577350  -0.0816497   0.0000000), wk =   0.0005000
        k(  557) = (  -0.0288675  -0.1428869   0.1500000), wk =   0.0010000
        k(  558) = (  -0.0577350  -0.1632993   0.2000000), wk =   0.0010000
        k(  559) = (  -0.0866025  -0.1837118   0.2500000), wk =   0.0010000
        k(  560) = (  -0.1154700  -0.2041242   0.3000000), wk =   0.0010000
        k(  561) = (  -0.1443376  -0.2245366   0.3500000), wk =   0.0010000
        k(  562) = (  -0.1732051  -0.2449490   0.4000000), wk =   0.0010000
        k(  563) = (  -0.2020726  -0.2653614   0.4500000), wk =   0.0010000
        k(  564) = (   0.3464101   0.1224745  -0.5000001), wk =   0.0010000
        k(  565) = (   0.3175426   0.1020621  -0.4500000), wk =   0.0010000
        k(  566) = (   0.2886751   0.0816497  -0.4000000), wk =   0.0010000
        k(  567) = (   0.2598076   0.0612373  -0.3500000), wk =   0.0010000
        k(  568) = (   0.2309401   0.0408248  -0.3000000), wk =   0.0010000
        k(  569) = (   0.2020726   0.0204124  -0.2500000), wk =   0.0010000
        k(  570) = (   0.1732051  -0.0000000  -0.2000000), wk =   0.0010000
        k(  571) = (   0.1443376  -0.0204124  -0.1500000), wk =   0.0010000
        k(  572) = (   0.1154700  -0.0408248  -0.1000000), wk =   0.0010000
        k(  573) = (   0.0866025  -0.0612373  -0.0500000), wk =   0.0010000
        k(  574) = (   0.1154700  -0.0408248   0.0000000), wk =   0.0005000
        k(  575) = (   0.0000000  -0.1224745   0.2000000), wk =   0.0010000
        k(  576) = (  -0.0288675  -0.1428869   0.2500000), wk =   0.0010000
        k(  577) = (  -0.0577350  -0.1632993   0.3000000), wk =   0.0010000
        k(  578) = (  -0.0866025  -0.1837118   0.3500000), wk =   0.0010000
        k(  579) = (  -0.1154700  -0.2041242   0.4000000), wk =   0.0010000
        k(  580) = (  -0.1443376  -0.2245366   0.4500000), wk =   0.0010000
        k(  581) = (   0.4041452   0.1632993  -0.5000001), wk =   0.0010000
        k(  582) = (   0.3752777   0.1428869  -0.4500000), wk =   0.0010000
        k(  583) = (   0.3464101   0.1224745  -0.4000000), wk =   0.0010000
        k(  584) = (   0.3175426   0.1020621  -0.3500000), wk =   0.0010000
        k(  585) = (   0.2886751   0.0816497  -0.3000000), wk =   0.0010000
        k(  586) = (   0.2598076   0.0612373  -0.2500000), wk =   0.0010000
        k(  587) = (   0.2309401   0.0408248  -0.2000000), wk =   0.0010000
        k(  588) = (   0.2020726   0.0204124  -0.1500000), wk =   0.0010000
        k(  589) = (   0.1732051  -0.0000000  -0.1000000), wk =   0.0010000
        k(  590) = (   0.1443376  -0.0204124  -0.0500000), wk =   0.0010000
        k(  591) = (   0.1154700   0.0204124   0.0000000), wk =   0.0005000
        k(  592) = (   0.0000000  -0.0612373   0.2000000), wk =   0.0010000
        k(  593) = (  -0.0288675  -0.0816497   0.2500000), wk =   0.0010000
        k(  594) = (  -0.0577350  -0.1020621   0.3000000), wk =   0.0010000
        k(  595) = (  -0.0866025  -0.1224745   0.3500000), wk =   0.0010000
        k(  596) = (  -0.1154700  -0.1428869   0.4000000), wk =   0.0010000
        k(  597) = (  -0.1443376  -0.1632993   0.4500000), wk =   0.0010000
        k(  598) = (   0.4041452   0.2245366  -0.5000001), wk =   0.0010000
        k(  599) = (   0.3752777   0.2041242  -0.4500000), wk =   0.0010000
        k(  600) = (   0.3464101   0.1837118  -0.4000000), wk =   0.0010000
        k(  601) = (   0.3175426   0.1632993  -0.3500000), wk =   0.0010000
        k(  602) = (   0.2886751   0.1428869  -0.3000000), wk =   0.0010000
        k(  603) = (   0.2598076   0.1224745  -0.2500000), wk =   0.0010000
        k(  604) = (   0.2309401   0.1020621  -0.2000000), wk =   0.0010000
        k(  605) = (   0.2020726   0.0816497  -0.1500000), wk =   0.0010000
        k(  606) = (   0.1732051   0.0612373  -0.1000000), wk =   0.0010000
        k(  607) = (   0.1443376   0.0408248  -0.0500000), wk =   0.0010000
        k(  608) = (   0.1154700   0.0816497   0.0000000), wk =   0.0005000
        k(  609) = (   0.0000000  -0.0000000   0.2000000), wk =   0.0005000
        k(  610) = (  -0.0288675  -0.0204124   0.2500000), wk =   0.0010000
        k(  611) = (  -0.0577350  -0.0408248   0.3000000), wk =   0.0010000
        k(  612) = (  -0.0866025  -0.0612373   0.3500000), wk =   0.0010000
        k(  613) = (  -0.1154700  -0.0816497   0.4000000), wk =   0.0010000
        k(  614) = (  -0.1443376  -0.1020621   0.4500000), wk =   0.0010000
        k(  615) = (   0.4041452   0.2857739  -0.5000001), wk =   0.0010000
        k(  616) = (   0.3752777   0.2653614  -0.4500000), wk =   0.0010000
        k(  617) = (   0.3464101   0.2449490  -0.4000000), wk =   0.0010000
        k(  618) = (   0.3175426   0.2245366  -0.3500000), wk =   0.0010000
        k(  619) = (   0.2886751   0.2041242  -0.3000000), wk =   0.0010000
        k(  620) = (   0.2598076   0.1837118  -0.2500000), wk =   0.0010000
        k(  621) = (   0.2309401   0.1632993  -0.2000000), wk =   0.0010000
        k(  622) = (   0.2020726   0.1428869  -0.1500000), wk =   0.0010000
        k(  623) = (   0.1732051   0.1224745  -0.1000000), wk =   0.0010000
        k(  624) = (   0.1443376   0.1020621  -0.0500000), wk =   0.0010000
        k(  625) = (   0.1154700   0.1428869   0.0000000), wk =   0.0005000
        k(  626) = (  -0.0288675   0.0408248   0.2500000), wk =   0.0010000
        k(  627) = (  -0.0577350   0.0204124   0.3000000), wk =   0.0010000
        k(  628) = (  -0.0866025   0.0000000   0.3500000), wk =   0.0010000
        k(  629) = (  -0.1154700  -0.0204124   0.4000000), wk =   0.0010000
        k(  630) = (  -0.1443376  -0.0408248   0.4500000), wk =   0.0010000
        k(  631) = (   0.4041452   0.3470111  -0.5000001), wk =   0.0010000
        k(  632) = (   0.3752777   0.3265987  -0.4500000), wk =   0.0010000
        k(  633) = (   0.3464101   0.3061863  -0.4000000), wk =   0.0010000
        k(  634) = (   0.3175426   0.2857739  -0.3500000), wk =   0.0010000
        k(  635) = (   0.2886751   0.2653614  -0.3000000), wk =   0.0010000
        k(  636) = (   0.2598076   0.2449490  -0.2500000), wk =   0.0010000
        k(  637) = (   0.2309401   0.2245366  -0.2000000), wk =   0.0010000
        k(  638) = (   0.2020726   0.2041242  -0.1500000), wk =   0.0010000
        k(  639) = (   0.1732051   0.1837118  -0.1000000), wk =   0.0010000
        k(  640) = (   0.1443376   0.1632993  -0.0500000), wk =   0.0010000
        k(  641) = (   0.1154700   0.2041242   0.0000000), wk =   0.0005000
        k(  642) = (  -0.0288675   0.1020621   0.2500000), wk =   0.0010000
        k(  643) = (  -0.0577350   0.0816497   0.3000000), wk =   0.0010000
        k(  644) = (  -0.0866025   0.0612373   0.3500000), wk =   0.0010000
        k(  645) = (  -0.1154700   0.0408248   0.4000000), wk =   0.0010000
        k(  646) = (  -0.1443376   0.0204124   0.4500000), wk =   0.0010000
        k(  647) = (   0.4041452   0.4082484  -0.5000001), wk =   0.0010000
        k(  648) = (   0.3752777   0.3878360  -0.4500000), wk =   0.0010000
        k(  649) = (   0.3464101   0.3674235  -0.4000000), wk =   0.0010000
        k(  650) = (   0.3175426   0.3470111  -0.3500000), wk =   0.0010000
        k(  651) = (   0.2886751   0.3265987  -0.3000000), wk =   0.0010000
        k(  652) = (   0.2598076   0.3061863  -0.2500000), wk =   0.0010000
        k(  653) = (   0.2309401   0.2857739  -0.2000000), wk =   0.0010000
        k(  654) = (   0.2020726   0.2653614  -0.1500000), wk =   0.0010000
        k(  655) = (   0.1732051   0.2449490  -0.1000000), wk =   0.0010000
        k(  656) = (   0.1443376   0.2245366  -0.0500000), wk =   0.0010000
        k(  657) = (   0.1154700   0.2653614   0.0000000), wk =   0.0005000
        k(  658) = (   0.0000000   0.1837118   0.2000000), wk =   0.0010000
        k(  659) = (  -0.0288675   0.1632993   0.2500000), wk =   0.0010000
        k(  660) = (  -0.0577350   0.1428869   0.3000000), wk =   0.0010000
        k(  661) = (  -0.0866025   0.1224745   0.3500000), wk =   0.0010000
        k(  662) = (  -0.1154700   0.1020621   0.4000000), wk =   0.0010000
        k(  663) = (  -0.1443376   0.0816497   0.4500000), wk =   0.0010000
        k(  664) = (   0.4041452   0.4694856  -0.5000001), wk =   0.0010000
        k(  665) = (   0.3752777   0.4490732  -0.4500000), wk =   0.0010000
        k(  666) = (   0.3464101   0.4286608  -0.4000000), wk =   0.0010000
        k(  667) = (   0.3175426   0.4082484  -0.3500000), wk =   0.0010000
        k(  668) = (   0.2886751   0.3878360  -0.3000000), wk =   0.0010000
        k(  669) = (   0.2598076   0.3674235  -0.2500000), wk =   0.0010000
        k(  670) = (   0.2309401   0.3470111  -0.2000000), wk =   0.0010000
        k(  671) = (   0.2020726   0.3265987  -0.1500000), wk =   0.0010000
        k(  672) = (   0.1732051   0.3061863  -0.1000000), wk =   0.0010000
        k(  673) = (   0.1443376   0.2857739  -0.0500000), wk =   0.0010000
        k(  674) = (   0.1154700   0.3265987   0.0000000), wk =   0.0005000
        k(  675) = (   0.0000000   0.2449490   0.2000000), wk =   0.0010000
        k(  676) = (  -0.0288675   0.2245366   0.2500000), wk =   0.0010000
        k(  677) = (  -0.0577350   0.2041242   0.3000000), wk =   0.0010000
        k(  678) = (  -0.0866025   0.1837118   0.3500000), wk =   0.0010000
        k(  679) = (  -0.1154700   0.1632993   0.4000000), wk =   0.0010000
        k(  680) = (  -0.1443376   0.1428869   0.4500000), wk =   0.0010000
        k(  681) = (   0.4041452   0.5307229  -0.5000001), wk =   0.0010000
        k(  682) = (   0.3752777   0.5103105  -0.4500000), wk =   0.0010000
        k(  683) = (   0.3464101   0.4898980  -0.4000000), wk =   0.0010000
        k(  684) = (   0.3175426   0.4694856  -0.3500000), wk =   0.0010000
        k(  685) = (   0.2886751   0.4490732  -0.3000000), wk =   0.0010000
        k(  686) = (   0.2598076   0.4286608  -0.2500000), wk =   0.0010000
        k(  687) = (   0.2309401   0.4082484  -0.2000000), wk =   0.0010000
        k(  688) = (   0.2020726   0.3878360  -0.1500000), wk =   0.0010000
        k(  689) = (   0.1732051   0.3674235  -0.1000000), wk =   0.0010000
        k(  690) = (   0.1443376   0.3470111  -0.0500000), wk =   0.0010000
        k(  691) = (   0.1154700   0.3878360   0.0000000), wk =   0.0005000
        k(  692) = (   0.0000000   0.3061863   0.2000000), wk =   0.0010000
        k(  693) = (  -0.0288675   0.2857739   0.2500000), wk =   0.0010000
        k(  694) = (  -0.0577350   0.2653614   0.3000000), wk =   0.0010000
        k(  695) = (  -0.0866025   0.2449490   0.3500000), wk =   0.0010000
        k(  696) = (  -0.1154700   0.2245366   0.4000000), wk =   0.0010000
        k(  697) = (  -0.1443376   0.2041242   0.4500000), wk =   0.0010000
        k(  698) = (   0.4041452   0.5919601  -0.5000001), wk =   0.0010000
        k(  699) = (   0.3752777   0.5715477  -0.4500000), wk =   0.0010000
        k(  700) = (   0.3464101   0.5511353  -0.4000000), wk =   0.0010000
        k(  701) = (   0.3175426   0.5307229  -0.3500000), wk =   0.0010000
        k(  702) = (   0.2886751   0.5103105  -0.3000000), wk =   0.0010000
        k(  703) = (   0.2598076   0.4898980  -0.2500000), wk =   0.0010000
        k(  704) = (   0.2309401   0.4694856  -0.2000000), wk =   0.0010000
        k(  705) = (   0.2020726   0.4490732  -0.1500000), wk =   0.0010000
        k(  706) = (   0.1732051   0.4286608  -0.1000000), wk =   0.0010000
        k(  707) = (   0.1443376   0.4082484  -0.0500000), wk =   0.0010000
        k(  708) = (   0.1154700   0.4490732   0.0000000), wk =   0.0005000
        k(  709) = (   0.0000000   0.3674235   0.2000000), wk =   0.0010000
        k(  710) = (  -0.0288675   0.3470111   0.2500000), wk =   0.0010000
        k(  711) = (  -0.0577350   0.3265987   0.3000000), wk =   0.0010000
        k(  712) = (  -0.0866025   0.3061863   0.3500000), wk =   0.0010000
        k(  713) = (  -0.1154700   0.2857739   0.4000000), wk =   0.0010000
        k(  714) = (  -0.1443376   0.2653614   0.4500000), wk =   0.0010000
        k(  715) = (   0.4041452   0.6531974  -0.5000001), wk =   0.0010000
        k(  716) = (   0.3752777   0.6327850  -0.4500000), wk =   0.0010000
        k(  717) = (   0.3464101   0.6123726  -0.4000000), wk =   0.0010000
        k(  718) = (   0.3175426   0.5919601  -0.3500000), wk =   0.0010000
        k(  719) = (   0.2886751   0.5715477  -0.3000000), wk =   0.0010000
        k(  720) = (   0.2598076   0.5511353  -0.2500000), wk =   0.0010000
        k(  721) = (   0.2309401   0.5307229  -0.2000000), wk =   0.0010000
        k(  722) = (   0.2020726   0.5103105  -0.1500000), wk =   0.0010000
        k(  723) = (   0.1732051   0.4898980  -0.1000000), wk =   0.0010000
        k(  724) = (   0.1443376   0.4694856  -0.0500000), wk =   0.0010000
        k(  725) = (   0.1154700   0.5103105   0.0000000), wk =   0.0005000
        k(  726) = (   0.0000000   0.4286608   0.2000000), wk =   0.0010000
        k(  727) = (  -0.0288675   0.4082484   0.2500000), wk =   0.0010000
        k(  728) = (  -0.0577350   0.3878360   0.3000000), wk =   0.0010000
        k(  729) = (  -0.0866025   0.3674235   0.3500000), wk =   0.0010000
        k(  730) = (  -0.1154700   0.3470111   0.4000000), wk =   0.0010000
        k(  731) = (  -0.1443376   0.3265987   0.4500000), wk =   0.0010000
        k(  732) = (   0.4041452   0.7144346  -0.5000001), wk =   0.0010000
        k(  733) = (   0.3752777   0.6940222  -0.4500000), wk =   0.0010000
        k(  734) = (   0.3464101   0.6736098  -0.4000000), wk =   0.0010000
        k(  735) = (   0.3175426   0.6531974  -0.3500000), wk =   0.0010000
        k(  736) = (   0.2886751   0.6327850  -0.3000000), wk =   0.0010000
        k(  737) = (   0.2598076   0.6123726  -0.2500000), wk =   0.0010000
        k(  738) = (   0.2309401   0.5919601  -0.2000000), wk =   0.0010000
        k(  739) = (   0.2020726   0.5715477  -0.1500000), wk =   0.0010000
        k(  740) = (   0.1732051   0.5511353  -0.1000000), wk =   0.0010000
        k(  741) = (   0.1443376   0.5307229  -0.0500000), wk =   0.0010000
        k(  742) = (   0.1154700  -0.6531974   0.0000000), wk =   0.0005000
        k(  743) = (   0.0000000  -0.7348471   0.2000000), wk =   0.0010000
        k(  744) = (  -0.0288675  -0.7552595   0.2500000), wk =   0.0010000
        k(  745) = (  -0.0577350  -0.7756719   0.3000000), wk =   0.0010000
        k(  746) = (  -0.0866025  -0.7960843   0.3500000), wk =   0.0010000
        k(  747) = (  -0.1154700  -0.8164967   0.4000000), wk =   0.0010000
        k(  748) = (  -0.1443376  -0.8369092   0.4500000), wk =   0.0010000
        k(  749) = (   0.4041452  -0.4490732  -0.5000001), wk =   0.0010000
        k(  750) = (   0.3752777  -0.4694856  -0.4500000), wk =   0.0010000
        k(  751) = (   0.3464101  -0.4898980  -0.4000000), wk =   0.0010000
        k(  752) = (   0.3175426  -0.5103105  -0.3500000), wk =   0.0010000
        k(  753) = (   0.2886751  -0.5307229  -0.3000000), wk =   0.0010000
        k(  754) = (   0.2598076  -0.5511353  -0.2500000), wk =   0.0010000
        k(  755) = (   0.2309401  -0.5715477  -0.2000000), wk =   0.0010000
        k(  756) = (   0.2020726  -0.5919601  -0.1500000), wk =   0.0010000
        k(  757) = (   0.1732051  -0.6123726  -0.1000000), wk =   0.0010000
        k(  758) = (   0.1443376  -0.6327850  -0.0500000), wk =   0.0010000
        k(  759) = (   0.1154700  -0.5919601   0.0000000), wk =   0.0005000
        k(  760) = (   0.0000000  -0.6736098   0.2000000), wk =   0.0010000
        k(  761) = (  -0.0288675  -0.6940222   0.2500000), wk =   0.0010000
        k(  762) = (  -0.0577350  -0.7144346   0.3000000), wk =   0.0010000
        k(  763) = (  -0.0866025  -0.7348471   0.3500000), wk =   0.0010000
        k(  764) = (  -0.1154700  -0.7552595   0.4000000), wk =   0.0010000
        k(  765) = (  -0.1443376  -0.7756719   0.4500000), wk =   0.0010000
        k(  766) = (   0.4041452  -0.3878360  -0.5000001), wk =   0.0010000
        k(  767) = (   0.3752777  -0.4082484  -0.4500000), wk =   0.0010000
        k(  768) = (   0.3464101  -0.4286608  -0.4000000), wk =   0.0010000
        k(  769) = (   0.3175426  -0.4490732  -0.3500000), wk =   0.0010000
        k(  770) = (   0.2886751  -0.4694856  -0.3000000), wk =   0.0010000
        k(  771) = (   0.2598076  -0.4898980  -0.2500000), wk =   0.0010000
        k(  772) = (   0.2309401  -0.5103105  -0.2000000), wk =   0.0010000
        k(  773) = (   0.2020726  -0.5307229  -0.1500000), wk =   0.0010000
        k(  774) = (   0.1732051  -0.5511353  -0.1000000), wk =   0.0010000
        k(  775) = (   0.1443376  -0.5715477  -0.0500000), wk =   0.0010000
        k(  776) = (   0.1154700  -0.5307229   0.0000000), wk =   0.0005000
        k(  777) = (   0.0000000  -0.6123726   0.2000000), wk =   0.0005000
        k(  778) = (  -0.0288675  -0.6327850   0.2500000), wk =   0.0010000
        k(  779) = (  -0.0577350  -0.6531974   0.3000000), wk =   0.0010000
        k(  780) = (  -0.0866025  -0.6736098   0.3500000), wk =   0.0010000
        k(  781) = (  -0.1154700  -0.6940222   0.4000000), wk =   0.0010000
        k(  782) = (  -0.1443376  -0.7144346   0.4500000), wk =   0.0010000
        k(  783) = (   0.4041452  -0.3265987  -0.5000001), wk =   0.0010000
        k(  784) = (   0.3752777  -0.3470111  -0.4500000), wk =   0.0010000
        k(  785) = (   0.3464101  -0.3674235  -0.4000000), wk =   0.0010000
        k(  786) = (   0.3175426  -0.3878360  -0.3500000), wk =   0.0010000
        k(  787) = (   0.2886751  -0.4082484  -0.3000000), wk =   0.0010000
        k(  788) = (   0.2598076  -0.4286608  -0.2500000), wk =   0.0010000
        k(  789) = (   0.2309401  -0.4490732  -0.2000000), wk =   0.0010000
        k(  790) = (   0.2020726  -0.4694856  -0.1500000), wk =   0.0010000
        k(  791) = (   0.1732051  -0.4898980  -0.1000000), wk =   0.0010000
        k(  792) = (   0.1443376  -0.5103105  -0.0500000), wk =   0.0010000
        k(  793) = (   0.1154700  -0.4694856   0.0000000), wk =   0.0005000
        k(  794) = (  -0.0288675  -0.5715477   0.2500000), wk =   0.0010000
        k(  795) = (  -0.0577350  -0.5919601   0.3000000), wk =   0.0010000
        k(  796) = (  -0.0866025  -0.6123726   0.3500000), wk =   0.0010000
        k(  797) = (  -0.1154700  -0.6327850   0.4000000), wk =   0.0010000
        k(  798) = (  -0.1443376  -0.6531974   0.4500000), wk =   0.0010000
        k(  799) = (   0.4041452  -0.2653614  -0.5000001), wk =   0.0010000
        k(  800) = (   0.3752777  -0.2857739  -0.4500000), wk =   0.0010000
        k(  801) = (   0.3464101  -0.3061863  -0.4000000), wk =   0.0010000
        k(  802) = (   0.3175426  -0.3265987  -0.3500000), wk =   0.0010000
        k(  803) = (   0.2886751  -0.3470111  -0.3000000), wk =   0.0010000
        k(  804) = (   0.2598076  -0.3674235  -0.2500000), wk =   0.0010000
        k(  805) = (   0.2309401  -0.3878360  -0.2000000), wk =   0.0010000
        k(  806) = (   0.2020726  -0.4082484  -0.1500000), wk =   0.0010000
        k(  807) = (   0.1732051  -0.4286608  -0.1000000), wk =   0.0010000
        k(  808) = (   0.1443376  -0.4490732  -0.0500000), wk =   0.0010000
        k(  809) = (   0.1154700  -0.4082484   0.0000000), wk =   0.0005000
        k(  810) = (  -0.0288675  -0.5103105   0.2500000), wk =   0.0010000
        k(  811) = (  -0.0577350  -0.5307229   0.3000000), wk =   0.0010000
        k(  812) = (  -0.0866025  -0.5511353   0.3500000), wk =   0.0010000
        k(  813) = (  -0.1154700  -0.5715477   0.4000000), wk =   0.0010000
        k(  814) = (  -0.1443376  -0.5919601   0.4500000), wk =   0.0010000
        k(  815) = (   0.4041452  -0.2041242  -0.5000001), wk =   0.0010000
        k(  816) = (   0.3752777  -0.2245366  -0.4500000), wk =   0.0010000
        k(  817) = (   0.3464101  -0.2449490  -0.4000000), wk =   0.0010000
        k(  818) = (   0.3175426  -0.2653614  -0.3500000), wk =   0.0010000
        k(  819) = (   0.2886751  -0.2857739  -0.3000000), wk =   0.0010000
        k(  820) = (   0.2598076  -0.3061863  -0.2500000), wk =   0.0010000
        k(  821) = (   0.2309401  -0.3265987  -0.2000000), wk =   0.0010000
        k(  822) = (   0.2020726  -0.3470111  -0.1500000), wk =   0.0010000
        k(  823) = (   0.1732051  -0.3674235  -0.1000000), wk =   0.0010000
        k(  824) = (   0.1443376  -0.3878360  -0.0500000), wk =   0.0010000
        k(  825) = (   0.1154700  -0.3470111   0.0000000), wk =   0.0005000
        k(  826) = (  -0.0288675  -0.4490732   0.2500000), wk =   0.0010000
        k(  827) = (  -0.0577350  -0.4694856   0.3000000), wk =   0.0010000
        k(  828) = (  -0.0866025  -0.4898980   0.3500000), wk =   0.0010000
        k(  829) = (  -0.1154700  -0.5103105   0.4000000), wk =   0.0010000
        k(  830) = (  -0.1443376  -0.5307229   0.4500000), wk =   0.0010000
        k(  831) = (   0.4041452  -0.1428869  -0.5000001), wk =   0.0010000
        k(  832) = (   0.3752777  -0.1632993  -0.4500000), wk =   0.0010000
        k(  833) = (   0.3464101  -0.1837118  -0.4000000), wk =   0.0010000
        k(  834) = (   0.3175426  -0.2041242  -0.3500000), wk =   0.0010000
        k(  835) = (   0.2886751  -0.2245366  -0.3000000), wk =   0.0010000
        k(  836) = (   0.2598076  -0.2449490  -0.2500000), wk =   0.0010000
        k(  837) = (   0.2309401  -0.2653614  -0.2000000), wk =   0.0010000
        k(  838) = (   0.2020726  -0.2857739  -0.1500000), wk =   0.0010000
        k(  839) = (   0.1732051  -0.3061863  -0.1000000), wk =   0.0010000
        k(  840) = (   0.1443376  -0.3265987  -0.0500000), wk =   0.0010000
        k(  841) = (   0.1154700  -0.2857739   0.0000000), wk =   0.0005000
        k(  842) = (  -0.0288675  -0.3878360   0.2500000), wk =   0.0010000
        k(  843) = (  -0.0577350  -0.4082484   0.3000000), wk =   0.0010000
        k(  844) = (  -0.0866025  -0.4286608   0.3500000), wk =   0.0010000
        k(  845) = (  -0.1154700  -0.4490732   0.4000000), wk =   0.0010000
        k(  846) = (  -0.1443376  -0.4694856   0.4500000), wk =   0.0010000
        k(  847) = (   0.4041452  -0.0816497  -0.5000001), wk =   0.0010000
        k(  848) = (   0.3752777  -0.1020621  -0.4500000), wk =   0.0010000
        k(  849) = (   0.3464101  -0.1224745  -0.4000000), wk =   0.0010000
        k(  850) = (   0.3175426  -0.1428869  -0.3500000), wk =   0.0010000
        k(  851) = (   0.2886751  -0.1632993  -0.3000000), wk =   0.0010000
        k(  852) = (   0.2598076  -0.1837118  -0.2500000), wk =   0.0010000
        k(  853) = (   0.2309401  -0.2041242  -0.2000000), wk =   0.0010000
        k(  854) = (   0.2020726  -0.2245366  -0.1500000), wk =   0.0010000
        k(  855) = (   0.1732051  -0.2449490  -0.1000000), wk =   0.0010000
        k(  856) = (   0.1443376  -0.2653614  -0.0500000), wk =   0.0010000
        k(  857) = (   0.1154700  -0.2245366   0.0000000), wk =   0.0005000
        k(  858) = (  -0.0288675  -0.3265987   0.2500000), wk =   0.0010000
        k(  859) = (  -0.0577350  -0.3470111   0.3000000), wk =   0.0010000
        k(  860) = (  -0.0866025  -0.3674235   0.3500000), wk =   0.0010000
        k(  861) = (  -0.1154700  -0.3878360   0.4000000), wk =   0.0010000
        k(  862) = (  -0.1443376  -0.4082484   0.4500000), wk =   0.0010000
        k(  863) = (   0.4041452  -0.0204124  -0.5000001), wk =   0.0010000
        k(  864) = (   0.3752777  -0.0408248  -0.4500000), wk =   0.0010000
        k(  865) = (   0.3464101  -0.0612373  -0.4000000), wk =   0.0010000
        k(  866) = (   0.3175426  -0.0816497  -0.3500000), wk =   0.0010000
        k(  867) = (   0.2886751  -0.1020621  -0.3000000), wk =   0.0010000
        k(  868) = (   0.2598076  -0.1224745  -0.2500000), wk =   0.0010000
        k(  869) = (   0.2309401  -0.1428869  -0.2000000), wk =   0.0010000
        k(  870) = (   0.2020726  -0.1632993  -0.1500000), wk =   0.0010000
        k(  871) = (   0.1732051  -0.1837118  -0.1000000), wk =   0.0010000
        k(  872) = (   0.1443376  -0.2041242  -0.0500000), wk =   0.0010000
        k(  873) = (   0.1154700  -0.1632993   0.0000000), wk =   0.0005000
        k(  874) = (  -0.0288675  -0.2653614   0.2500000), wk =   0.0010000
        k(  875) = (  -0.0577350  -0.2857739   0.3000000), wk =   0.0010000
        k(  876) = (  -0.0866025  -0.3061863   0.3500000), wk =   0.0010000
        k(  877) = (  -0.1154700  -0.3265987   0.4000000), wk =   0.0010000
        k(  878) = (  -0.1443376  -0.3470111   0.4500000), wk =   0.0010000
        k(  879) = (   0.4041452   0.0408248  -0.5000001), wk =   0.0010000
        k(  880) = (   0.3752777   0.0204124  -0.4500000), wk =   0.0010000
        k(  881) = (   0.3464101   0.0000000  -0.4000000), wk =   0.0010000
        k(  882) = (   0.3175426  -0.0204124  -0.3500000), wk =   0.0010000
        k(  883) = (   0.2886751  -0.0408248  -0.3000000), wk =   0.0010000
        k(  884) = (   0.2598076  -0.0612373  -0.2500000), wk =   0.0010000
        k(  885) = (   0.2309401  -0.0816497  -0.2000000), wk =   0.0010000
        k(  886) = (   0.2020726  -0.1020621  -0.1500000), wk =   0.0010000
        k(  887) = (   0.1732051  -0.1224745  -0.1000000), wk =   0.0010000
        k(  888) = (   0.1443376  -0.1428869  -0.0500000), wk =   0.0010000
        k(  889) = (   0.1154700  -0.1020621   0.0000000), wk =   0.0005000
        k(  890) = (  -0.0288675  -0.2041242   0.2500000), wk =   0.0010000
        k(  891) = (  -0.0577350  -0.2245366   0.3000000), wk =   0.0010000
        k(  892) = (  -0.0866025  -0.2449490   0.3500000), wk =   0.0010000
        k(  893) = (  -0.1154700  -0.2653614   0.4000000), wk =   0.0010000
        k(  894) = (  -0.1443376  -0.2857739   0.4500000), wk =   0.0010000
        k(  895) = (   0.4041452   0.1020621  -0.5000001), wk =   0.0010000
        k(  896) = (   0.3752777   0.0816497  -0.4500000), wk =   0.0010000
        k(  897) = (   0.3464101   0.0612373  -0.4000000), wk =   0.0010000
        k(  898) = (   0.3175426   0.0408248  -0.3500000), wk =   0.0010000
        k(  899) = (   0.2886751   0.0204124  -0.3000000), wk =   0.0010000
        k(  900) = (   0.2598076  -0.0000000  -0.2500000), wk =   0.0010000
        k(  901) = (   0.2309401  -0.0204124  -0.2000000), wk =   0.0010000
        k(  902) = (   0.2020726  -0.0408248  -0.1500000), wk =   0.0010000
        k(  903) = (   0.1732051  -0.0612373  -0.1000000), wk =   0.0010000
        k(  904) = (   0.1443376  -0.0816497  -0.0500000), wk =   0.0010000
        k(  905) = (   0.1732051  -0.0612373   0.0000000), wk =   0.0005000
        k(  906) = (   0.0000000  -0.1837118   0.3000000), wk =   0.0010000
        k(  907) = (  -0.0288675  -0.2041242   0.3500000), wk =   0.0010000
        k(  908) = (  -0.0577350  -0.2245366   0.4000000), wk =   0.0010000
        k(  909) = (  -0.0866025  -0.2449490   0.4500000), wk =   0.0010000
        k(  910) = (   0.4618802   0.1428869  -0.5000001), wk =   0.0010000
        k(  911) = (   0.4330127   0.1224745  -0.4500000), wk =   0.0010000
        k(  912) = (   0.4041452   0.1020621  -0.4000000), wk =   0.0010000
        k(  913) = (   0.3752777   0.0816497  -0.3500000), wk =   0.0010000
        k(  914) = (   0.3464101   0.0612373  -0.3000000), wk =   0.0010000
        k(  915) = (   0.3175426   0.0408248  -0.2500000), wk =   0.0010000
        k(  916) = (   0.2886751   0.0204124  -0.2000000), wk =   0.0010000
        k(  917) = (   0.2598076   0.0000000  -0.1500000), wk =   0.0010000
        k(  918) = (   0.2309401  -0.0204124  -0.1000000), wk =   0.0010000
        k(  919) = (   0.2020726  -0.0408248  -0.0500000), wk =   0.0010000
        k(  920) = (   0.1732051  -0.0000000   0.0000000), wk =   0.0005000
        k(  921) = (   0.0000000  -0.1224745   0.3000000), wk =   0.0010000
        k(  922) = (  -0.0288675  -0.1428869   0.3500000), wk =   0.0010000
        k(  923) = (  -0.0577350  -0.1632993   0.4000000), wk =   0.0010000
        k(  924) = (  -0.0866025  -0.1837118   0.4500000), wk =   0.0010000
        k(  925) = (   0.4618802   0.2041242  -0.5000001), wk =   0.0010000
        k(  926) = (   0.4330127   0.1837118  -0.4500000), wk =   0.0010000
        k(  927) = (   0.4041452   0.1632993  -0.4000000), wk =   0.0010000
        k(  928) = (   0.3752777   0.1428869  -0.3500000), wk =   0.0010000
        k(  929) = (   0.3464101   0.1224745  -0.3000000), wk =   0.0010000
        k(  930) = (   0.3175426   0.1020621  -0.2500000), wk =   0.0010000
        k(  931) = (   0.2886751   0.0816497  -0.2000000), wk =   0.0010000
        k(  932) = (   0.2598076   0.0612373  -0.1500000), wk =   0.0010000
        k(  933) = (   0.2309401   0.0408248  -0.1000000), wk =   0.0010000
        k(  934) = (   0.2020726   0.0204124  -0.0500000), wk =   0.0010000
        k(  935) = (   0.1732051   0.0612373   0.0000000), wk =   0.0005000
        k(  936) = (   0.0000000  -0.0612373   0.3000000), wk =   0.0010000
        k(  937) = (  -0.0288675  -0.0816497   0.3500000), wk =   0.0010000
        k(  938) = (  -0.0577350  -0.1020621   0.4000000), wk =   0.0010000
        k(  939) = (  -0.0866025  -0.1224745   0.4500000), wk =   0.0010000
        k(  940) = (   0.4618802   0.2653614  -0.5000001), wk =   0.0010000
        k(  941) = (   0.4330127   0.2449490  -0.4500000), wk =   0.0010000
        k(  942) = (   0.4041452   0.2245366  -0.4000000), wk =   0.0010000
        k(  943) = (   0.3752777   0.2041242  -0.3500000), wk =   0.0010000
        k(  944) = (   0.3464101   0.1837118  -0.3000000), wk =   0.0010000
        k(  945) = (   0.3175426   0.1632993  -0.2500000), wk =   0.0010000
        k(  946) = (   0.2886751   0.1428869  -0.2000000), wk =   0.0010000
        k(  947) = (   0.2598076   0.1224745  -0.1500000), wk =   0.0010000
        k(  948) = (   0.2309401   0.1020621  -0.1000000), wk =   0.0010000
        k(  949) = (   0.2020726   0.0816497  -0.0500000), wk =   0.0010000
        k(  950) = (   0.1732051   0.1224745   0.0000000), wk =   0.0005000
        k(  951) = (   0.0000000  -0.0000000   0.3000000), wk =   0.0005000
        k(  952) = (  -0.0288675  -0.0204124   0.3500000), wk =   0.0010000
        k(  953) = (  -0.0577350  -0.0408248   0.4000000), wk =   0.0010000
        k(  954) = (  -0.0866025  -0.0612373   0.4500000), wk =   0.0010000
        k(  955) = (   0.4618802   0.3265987  -0.5000001), wk =   0.0010000
        k(  956) = (   0.4330127   0.3061863  -0.4500000), wk =   0.0010000
        k(  957) = (   0.4041452   0.2857739  -0.4000000), wk =   0.0010000
        k(  958) = (   0.3752777   0.2653614  -0.3500000), wk =   0.0010000
        k(  959) = (   0.3464101   0.2449490  -0.3000000), wk =   0.0010000
        k(  960) = (   0.3175426   0.2245366  -0.2500000), wk =   0.0010000
        k(  961) = (   0.2886751   0.2041242  -0.2000000), wk =   0.0010000
        k(  962) = (   0.2598076   0.1837118  -0.1500000), wk =   0.0010000
        k(  963) = (   0.2309401   0.1632993  -0.1000000), wk =   0.0010000
        k(  964) = (   0.2020726   0.1428869  -0.0500000), wk =   0.0010000
        k(  965) = (   0.1732051   0.1837118   0.0000000), wk =   0.0005000
        k(  966) = (  -0.0288675   0.0408248   0.3500000), wk =   0.0010000
        k(  967) = (  -0.0577350   0.0204124   0.4000000), wk =   0.0010000
        k(  968) = (  -0.0866025   0.0000000   0.4500000), wk =   0.0010000
        k(  969) = (   0.4618802   0.3878360  -0.5000001), wk =   0.0010000
        k(  970) = (   0.4330127   0.3674235  -0.4500000), wk =   0.0010000
        k(  971) = (   0.4041452   0.3470111  -0.4000000), wk =   0.0010000
        k(  972) = (   0.3752777   0.3265987  -0.3500000), wk =   0.0010000
        k(  973) = (   0.3464101   0.3061863  -0.3000000), wk =   0.0010000
        k(  974) = (   0.3175426   0.2857739  -0.2500000), wk =   0.0010000
        k(  975) = (   0.2886751   0.2653614  -0.2000000), wk =   0.0010000
        k(  976) = (   0.2598076   0.2449490  -0.1500000), wk =   0.0010000
        k(  977) = (   0.2309401   0.2245366  -0.1000000), wk =   0.0010000
        k(  978) = (   0.2020726   0.2041242  -0.0500000), wk =   0.0010000
        k(  979) = (   0.1732051   0.2449490   0.0000000), wk =   0.0005000
        k(  980) = (  -0.0288675   0.1020621   0.3500000), wk =   0.0010000
[...]

     2.5419   5.1141  13.5619  16.7640  18.5878  22.1403

     occupation numbers 
     1.0000   1.0000   0.0000   0.0000   0.0000   0.0000

          k = 0.5774-0.2654-0.2000 (   576 PWs)   bands (ev):

     3.5642   4.4410  12.9213  15.2248  18.8618  22.3554

     occupation numbers 
     1.0000   1.0000   0.0000   0.0000   0.0000   0.0000

          k = 0.5485-0.2858-0.1500 (   576 PWs)   bands (ev):

     3.6657   3.8754  13.9009  16.3248  18.1087  22.4571

     occupation numbers 
     1.0000   1.0000   0.0000   0.0000   0.0000   0.0000

          k = 0.5196-0.3062-0.1000 (   579 PWs)   bands (ev):

     3.2226   4.1050  14.9672  15.6929  19.2492  21.3094

     occupation numbers 
     1.0000   1.0000   0.0000   0.0000   0.0000   0.0000

          k = 0.4907-0.3266-0.0500 (   579 PWs)   bands (ev):

     2.8205   4.5457  14.5943  16.1003  19.6628  20.9506

     occupation numbers 
     1.0000   1.0000   0.0000   0.0000   0.0000   0.0000

          k = 0.4619-0.2858 0.0000 (   577 PWs)   bands (ev):

     1.8729   5.3092  15.2886  17.6975  19.4400  20.7856

     occupation numbers 
     1.0000   1.0000   0.0000   0.0000   0.0000   0.0000

          k = 0.5774-0.2041-0.2000 (   584 PWs)   bands (ev):

     3.8329   4.0474  13.9111  14.1923  20.3759  20.8140

     occupation numbers 
     1.0000   1.0000   0.0000   0.0000   0.0000   0.0000

          k = 0.5485-0.2245-0.1500 (   579 PWs)   bands (ev):

     3.2226   4.1050  14.9672  15.6929  19.2492  21.3094

     occupation numbers 
     1.0000   1.0000   0.0000   0.0000   0.0000   0.0000

          k = 0.5196-0.2449-0.1000 (   583 PWs)   bands (ev):

     2.6486   4.3777  16.0027  16.8604  18.5424  21.4597

     occupation numbers 
     1.0000   1.0000   0.0000   0.0000   0.0000   0.0000

          k = 0.4907-0.2654-0.0500 (   582 PWs)   bands (ev):

     2.1971   4.7807  16.2858  17.0743  19.6253  20.4594

     occupation numbers 
     1.0000   1.0000   0.0000   0.0000   0.0000   0.0000

          k = 0.4619-0.2245 0.0000 (   586 PWs)   bands (ev):

     1.3306   5.6293  17.0012  18.7221  19.5646  20.1023

     occupation numbers 
     1.0000   1.0000   0.0000   0.0000   0.0000   0.0000

          k = 0.5485-0.1633-0.1500 (   579 PWs)   bands (ev):

     2.8205   4.5457  14.5943  16.1003  19.6628  20.9506

     occupation numbers 
     1.0000   1.0000   0.0000   0.0000   0.0000   0.0000

          k = 0.5196-0.1837-0.1000 (   582 PWs)   bands (ev):

     2.1971   4.7807  16.2858  17.0743  19.6253  20.4594

     occupation numbers 
     1.0000   1.0000   0.0000   0.0000   0.0000   0.0000

          k = 0.4907-0.2041-0.0500 (   580 PWs)   bands (ev):

     1.6998   5.1424  17.5476  18.1045  18.8730  20.6169

     occupation numbers 
     1.0000   1.0000   0.0000   0.0000   0.0000   0.0000

          k = 0.5196-0.1837 0.0000 (   577 PWs)   bands (ev):

     2.0246   4.6118  18.5816  18.5816  19.3993  19.3993

     occupation numbers 
     1.0000   1.0000   0.0000   0.0000   0.0000   0.0000

          k = 0.5774-0.1429-0.1000 (   577 PWs)   bands (ev):

     3.0528   3.9339  15.5866  17.2232  18.9338  21.0668

     occupation numbers 
     1.0000   1.0000   0.0000   0.0000   0.0000   0.0000

          k = 0.5485-0.1633-0.0500 (   578 PWs)   bands (ev):

     2.4771   4.2076  17.2562  18.2291  19.5789  19.7935

     occupation numbers 
     1.0000   1.0000   0.0000   0.0000   0.0000   0.0000

          k = 0.5196-0.1225 0.0000 (   580 PWs)   bands (ev):

     1.6998   5.1424  17.5476  18.1045  18.8730  20.6169

     occupation numbers 
     1.0000   1.0000   0.0000   0.0000   0.0000   0.0000

          k = 0.5774-0.0816-0.1000 (   579 PWs)   bands (ev):

     2.8205   4.5457  14.5943  16.1003  19.6628  20.9505

     occupation numbers 
     1.0000   1.0000   0.0000   0.0000   0.0000   0.0000

          k = 0.5485-0.1021-0.0500 (   582 PWs)   bands (ev):

     2.1971   4.7807  16.2858  17.0743  19.6253  20.4594

     occupation numbers 
     1.0000   1.0000   0.0000   0.0000   0.0000   0.0000

          k = 0.5196-0.0612 0.0000 (   585 PWs)   bands (ev):

     1.5040   5.7968  16.5358  16.6104  18.2672  21.9614

     occupation numbers 
     1.0000   1.0000   0.0000   0.0000   0.0000   0.0000

          k = 0.5774-0.0204-0.1000 (   582 PWs)   bands (ev):

     2.7127   5.2834  13.6887  14.5355  20.1937  21.1041

     occupation numbers 
     1.0000   1.0000   0.0000   0.0000   0.0000   0.0000

          k = 0.5485-0.0408-0.0500 (   579 PWs)   bands (ev):

     2.0452   5.4779  15.3318  15.5296  18.9432  21.7819

     occupation numbers 
     1.0000   1.0000   0.0000   0.0000   0.0000   0.0000

          k = 0.5196-0.0000 0.0000 (   588 PWs)   bands (ev):

     1.4380   6.5721  14.9413  15.7864  17.5022  23.4126

     occupation numbers 
     1.0000   1.0000   0.0000   0.0000   0.0000   0.0000

          k = 0.5774 0.0408-0.1000 (   575 PWs)   bands (ev):

     2.7323   6.1400  12.7724  13.1176  19.5128  22.5659

     occupation numbers 
     1.0000   1.0000   0.0000   0.0000   0.0000   0.0000

          k = 0.5485 0.0204-0.0500 (   580 PWs)   bands (ev):

     2.0223   6.2955  13.8728  14.6049  18.1912  23.2384

     occupation numbers 
     1.0000   1.0000   0.0000   0.0000   0.0000   0.0000

          k = 0.5196 0.0612 0.0000 (   581 PWs)   bands (ev):

     1.5018   7.4642  13.4115  15.0770  16.7629  23.7900

     occupation numbers 
     1.0000   1.0275   0.0000   0.0000   0.0000   0.0000

          k = 0.5774 0.1021-0.1000 (   575 PWs)   bands (ev):

     2.8791   7.1073  11.4318  12.3323  18.8533  23.4179

     occupation numbers 
     1.0000   1.0000   0.0000   0.0000   0.0000   0.0000

          k = 0.5485 0.0816-0.0500 (   578 PWs)   bands (ev):

     2.1281   7.2284  12.3742  13.9112  17.4912  23.5919

     occupation numbers 
     1.0000   1.0000   0.0000   0.0000   0.0000   0.0000

          k = 0.5196 0.1225 0.0000 (   574 PWs)   bands (ev):

     1.6948   8.4660  11.9762  14.4826  16.0953  21.8889

     occupation numbers 
     1.0000   0.0000   0.0000   0.0000   0.0000   0.0000

          k = 0.5774 0.1633-0.1000 (   582 PWs)   bands (ev):

     3.1511   8.1665  10.0835  11.7999  18.2481  21.7242

     occupation numbers 
     1.0000   0.0000   0.0000   0.0000   0.0000   0.0000

          k = 0.5485 0.1429-0.0500 (   582 PWs)   bands (ev):

     2.3618   8.2671  10.9736  13.3404  16.8676  21.7415

     occupation numbers 
     1.0000   0.0000   0.0000   0.0000   0.0000   0.0000

          k = 0.5196 0.1837 0.0000 (   583 PWs)   bands (ev):

     2.0159   9.5583  10.6585  14.0033  15.5005  20.0277

     occupation numbers 
     1.0000   0.0000   0.0000   0.0000   0.0000   0.0000

          k = 0.5774 0.2245-0.1000 (   581 PWs)   bands (ev):

     3.5441   8.7933   9.3200  11.4593  17.6358  20.0419

     occupation numbers 
     1.0000   0.0000   0.0000   0.0000   0.0000   0.0000

          k = 0.5485 0.2041-0.0500 (   582 PWs)   bands (ev):

     2.7212   9.3441   9.7380  12.8975  16.3049  19.9303

     occupation numbers 
     1.0000   0.0000   0.0000   0.0000   0.0000   0.0000

          k = 0.5196 0.2449 0.0000 (   583 PWs)   bands (ev):

     2.4627   9.4071  10.7824  13.6391  14.9309  18.3515

     occupation numbers 
     1.0000   0.0000   0.0000   0.0000   0.0000   0.0000

          k = 0.5774 0.2858-0.1000 (   585 PWs)   bands (ev):

     4.0463   7.7055  10.1960  11.5403  16.7913  18.7922

     occupation numbers 
     1.0000   0.6933   0.0000   0.0000   0.0000   0.0000

          k = 0.5485 0.2654-0.0500 (   585 PWs)   bands (ev):

     3.2017   8.4879  10.6055  12.6088  15.7199  18.3526

     occupation numbers 
     1.0000   0.0000   0.0000   0.0000   0.0000   0.0000

          k = 0.5196 0.3062 0.0000 (   583 PWs)   bands (ev):

     3.0301   8.3245  12.0025  13.3900  14.2297  17.0840

     occupation numbers 
     1.0000   0.0000   0.0000   0.0000   0.0000   0.0000

          k = 0.5774 0.3470-0.1000 (   585 PWs)   bands (ev):

     4.6124   6.7724  10.4387  12.4492  15.5571  18.2013

     occupation numbers 
     1.0000   1.0000   0.0000   0.0000   0.0000   0.0000

          k = 0.5485 0.3266-0.0500 (   586 PWs)   bands (ev):

     3.7910   7.4558  11.6008  12.6586  14.9037  17.2884

     occupation numbers 
     1.0000   1.0234   0.0000   0.0000   0.0000   0.0000

          k = 0.5196 0.3674 0.0000 (   584 PWs)   bands (ev):

     3.7059   7.3720  13.0872  13.2561  13.2561  16.5616

     occupation numbers 
     1.0000   1.0028   0.0000   0.0000   0.0000   0.0000

          k = 0.5774 0.4082-0.1000 (   586 PWs)   bands (ev):

     4.9709   6.2911  10.4459  13.3334  14.5947  18.0473

     occupation numbers 
     1.0000   1.0000   0.0000   0.0000   0.0000   0.0000

          k = 0.5485 0.3878-0.0500 (   587 PWs)   bands (ev):

     4.4441   6.6028  11.8379  13.2372  14.0639  16.9270

     occupation numbers 
     1.0000   1.0000   0.0000   0.0000   0.0000   0.0000

          k = 0.5196-0.7961 0.0000 (   587 PWs)   bands (ev):

     4.4441   6.6028  11.8379  13.2372  14.0639  16.9270

     occupation numbers 
     1.0000   1.0000   0.0000   0.0000   0.0000   0.0000

          k = 0.5485-0.7757-0.0500 (   584 PWs)   bands (ev):

     4.8877   6.2054  11.5182  12.5800  14.8224  17.2105

     occupation numbers 
     1.0000   1.0000   0.0000   0.0000   0.0000   0.0000

          k = 0.5196-0.7348 0.0000 (   586 PWs)   bands (ev):

     4.9709   6.2911  10.4459  13.3334  14.5947  18.0473

     occupation numbers 
     1.0000   1.0000   0.0000   0.0000   0.0000   0.0000

          k = 0.5485-0.7144-0.0500 (   585 PWs)   bands (ev):

     4.6124   6.7724  10.4387  12.4492  15.5571  18.2013

     occupation numbers 
     1.0000   1.0000   0.0000   0.0000   0.0000   0.0000

          k = 0.5196-0.6736 0.0000 (   585 PWs)   bands (ev):

     4.7805   6.9380   9.0976  13.5447  14.9975  19.5863

     occupation numbers 
     1.0000   1.0000   0.0000   0.0000   0.0000   0.0000

          k = 0.5485-0.6532-0.0500 (   581 PWs)   bands (ev):

     4.1312   7.7817   9.1835  12.6576  16.0619  19.7105

     occupation numbers 
     1.0000   0.2967   0.0000   0.0000   0.0000   0.0000

          k = 0.5196-0.6124 0.0000 (   579 PWs)   bands (ev):

     4.3854   7.7129   8.1521  13.8710  15.4339  21.3282

     occupation numbers 
     1.0000   0.6533   0.0000   0.0000   0.0000   0.0000

          k = 0.5485-0.5920-0.0500 (   579 PWs)   bands (ev):

     3.7149   7.9169   9.0296  13.0208  16.5478  21.4629

     occupation numbers 
     1.0000   0.0166   0.0000   0.0000   0.0000   0.0000

          k = 0.5196-0.5511 0.0000 (   577 PWs)   bands (ev):

     4.0552   6.6193   9.3526  14.3124  15.9580  23.1717

     occupation numbers 
     1.0000   1.0000   0.0000   0.0000   0.0000   0.0000

          k = 0.5485-0.5307-0.0500 (   577 PWs)   bands (ev):

     3.4081   6.8063  10.3452  13.5122  17.1007  23.3112

     occupation numbers 
     1.0000   1.0000   0.0000   0.0000   0.0000   0.0000

          k = 0.5196-0.4899 0.0000 (   576 PWs)   bands (ev):

     3.8336   5.5596  10.7594  14.8686  16.5833  24.9937

     occupation numbers 
     1.0000   1.0000   0.0000   0.0000   0.0000   0.0000

          k = 0.5485-0.4695-0.0500 (   578 PWs)   bands (ev):

     3.2221   5.7888  11.7907  14.1241  17.7429  24.2272

     occupation numbers 
     1.0000   1.0000   0.0000   0.0000   0.0000   0.0000

          k = 0.5196-0.4287 0.0000 (   574 PWs)   bands (ev):

     3.7289   4.6161  12.2818  15.5396  17.3065  23.9550

     occupation numbers 
     1.0000   1.0000   0.0000   0.0000   0.0000   0.0000

          k = 0.5485-0.4082-0.0500 (   579 PWs)   bands (ev):

     3.1606   4.8854  13.3395  14.8524  18.4702  22.7501

     occupation numbers 
     1.0000   1.0000   0.0000   0.0000   0.0000   0.0000

          k = 0.5196-0.3674 0.0000 (   576 PWs)   bands (ev):

     3.6657   3.8754  13.9009  16.3248  18.1087  22.4571

     occupation numbers 
     1.0000   1.0000   0.0000   0.0000   0.0000   0.0000

          k = 0.5485-0.3470-0.0500 (   579 PWs)   bands (ev):

     3.2226   4.1050  14.9672  15.6929  19.2492  21.3094

     occupation numbers 
     1.0000   1.0000   0.0000   0.0000   0.0000   0.0000

          k = 0.5196-0.3062 0.0000 (   577 PWs)   bands (ev):

     3.0528   3.9339  15.5866  17.2232  18.9338  21.0668

     occupation numbers 
     1.0000   1.0000   0.0000   0.0000   0.0000   0.0000

          k = 0.5485-0.2858-0.0500 (   580 PWs)   bands (ev):

     3.3306   3.5294  16.5769  16.6681  19.8437  20.1288

     occupation numbers 
     1.0000   1.0000   0.0000   0.0000   0.0000   0.0000

          k = 0.5196-0.2449 0.0000 (   578 PWs)   bands (ev):

     2.4771   4.2076  17.2562  18.2291  19.5789  19.7936

     occupation numbers 
     1.0000   1.0000   0.0000   0.0000   0.0000   0.0000

          k = 0.5774-0.2041-0.1000 (   580 PWs)   bands (ev):

     3.3306   3.5294  16.5769  16.6681  19.8437  20.1288

     occupation numbers 
     1.0000   1.0000   0.0000   0.0000   0.0000   0.0000

          k = 0.5485-0.2245-0.0500 (   576 PWs)   bands (ev):

     2.8818   3.7636  17.6251  17.8337  19.1676  20.1482

     occupation numbers 
     1.0000   1.0000   0.0000   0.0000   0.0000   0.0000

          k =-0.5774 0.2041 0.0000 (   580 PWs)   bands (ev):

     3.1629   3.3554  18.7904  18.7904  19.0786  19.0786

     occupation numbers 
     1.0000   1.0000   0.0000   0.0000   0.0000   0.0000

          k =-0.5774 0.2654 0.0000 (   576 PWs)   bands (ev):

     2.8818   3.7636  17.6251  17.8337  19.1676  20.1482

     occupation numbers 
     1.0000   1.0000   0.0000   0.0000   0.0000   0.0000

          k =-0.5774 0.3266 0.0000 (   583 PWs)   bands (ev):

     2.6486   4.3777  16.0027  16.8604  18.5424  21.4597

     occupation numbers 
     1.0000   1.0000   0.0000   0.0000   0.0000   0.0000

          k =-0.5774 0.3878 0.0000 (   576 PWs)   bands (ev):

     2.5404   5.1188  14.3613  15.9987  17.7467  22.8824

     occupation numbers 
     1.0000   1.0000   0.0000   0.0000   0.0000   0.0000

          k =-0.5774 0.4491 0.0000 (   580 PWs)   bands (ev):

     2.5599   5.9810  12.7856  15.2512  16.9766  24.4090

     occupation numbers 
     1.0000   1.0000   0.0000   0.0000   0.0000   0.0000

          k =-0.5774 0.5103 0.0000 (   579 PWs)   bands (ev):

     2.7068   6.9589  11.3051  14.6183  16.2844  23.4281

     occupation numbers 
     1.0000   1.0000   0.0000   0.0000   0.0000   0.0000

          k =-0.5774 0.5715 0.0000 (   582 PWs)   bands (ev):

     2.9793   8.0416   9.9387  14.1004  15.6839  21.5408

     occupation numbers 
     1.0000   0.0002   0.0000   0.0000   0.0000   0.0000

          k =-0.5774 0.6328 0.0000 (   582 PWs)   bands (ev):

     3.3730   8.6254   9.2908  13.6976  15.1659  19.7345

     occupation numbers 
     1.0000   0.0000   0.0000   0.0000   0.0000   0.0000

          k =-0.5774 0.6940 0.0000 (   588 PWs)   bands (ev):

     3.8762   7.5387  10.5294  13.4099  14.6789  18.1238

     occupation numbers 
     1.0000   1.0747   0.0000   0.0000   0.0000   0.0000

          k =-0.5774 0.7553 0.0000 (   587 PWs)   bands (ev):

     4.4441   6.6028  11.8379  13.2372  14.0639  16.9270

     occupation numbers 
     1.0000   1.0000   0.0000   0.0000   0.0000   0.0000

          k =-0.5774-0.4082 0.0000 (   588 PWs)   bands (ev):

     4.8046   6.1191  12.9996  13.1797  13.1797  16.4814

     occupation numbers 
     1.0000   1.0000   0.0000   0.0000   0.0000   0.0000

     the Fermi energy is     7.7596 ev

!    total energy              =      -6.70753469 Ry
     Harris-Foulkes estimate   =      -6.70753469 Ry
     estimated scf accuracy    <          8.9E-09 Ry

     The total energy is the sum of the following terms:

     one-electron contribution =       2.93509140 Ry
     hartree contribution      =       0.00810755 Ry
     xc contribution           =      -4.28270164 Ry
     ewald contribution        =      -5.36800090 Ry
     smearing contrib. (-TS)   =      -0.00003110 Ry

     convergence has been achieved in   4 iterations

     Forces acting on atoms (cartesian axes, Ry/au):

     atom    1 type  1   force =     0.00000000    0.00000000    0.00000000
     The non-local contrib.  to forces
     atom    1 type  1   force =    -0.00000000    0.00000000    0.00000000
     The ionic contribution  to forces
     atom    1 type  1   force =     0.00000000    0.00000000    0.00000000
     The local contribution  to forces
     atom    1 type  1   force =     0.00000000    0.00000000   -0.00000000
     The core correction contribution to forces
     atom    1 type  1   force =    -0.00000000    0.00000000   -0.00000000
     The Hubbard contrib.    to forces
     atom    1 type  1   force =     0.00000000    0.00000000    0.00000000
     The SCF correction term to forces
     atom    1 type  1   force =    -0.00000000    0.00000000   -0.00000000

     Total force =     0.000000     Total SCF correction =     0.000000

     BFGS Geometry Optimization

     bfgs converged in   1 scf cycles and   0 bfgs steps
     (criteria: energy <  1.0E-04 Ry, force <  1.0E-03 Ry/Bohr)

     End of BFGS Geometry Optimization

     Final energy   =      -6.7075346850 Ry
Begin final coordinates

ATOMIC_POSITIONS (crystal)
Al       0.000000000   0.000000000   0.000000000
End final coordinates


 
     init_run     :    159.66s CPU     53.29s WALL (       1 calls)
     electrons    :   3424.03s CPU    890.78s WALL (       1 calls)
     forces       :     98.46s CPU     13.71s WALL (       1 calls)

     Called by init_run:
     wfcinit      :    159.31s CPU     51.84s WALL (       1 calls)
     wfcinit:atom :      0.69s CPU      0.19s WALL (    2112 calls)
     wfcinit:wfcr :    156.76s CPU     51.15s WALL (    2112 calls)
     potinit      :      0.05s CPU      0.11s WALL (       1 calls)

     Called by electrons:
     c_bands      :   3071.99s CPU    805.43s WALL (       5 calls)
     sum_band     :    350.42s CPU     85.01s WALL (       5 calls)
     v_of_rho     :      0.56s CPU      0.16s WALL (       5 calls)
     v_h          :      0.01s CPU      0.00s WALL (       5 calls)
     v_xc         :      0.66s CPU      0.18s WALL (       6 calls)
     newd         :      0.37s CPU      0.11s WALL (       5 calls)
     mix_rho      :      0.08s CPU      0.02s WALL (       5 calls)

     Called by c_bands:
     init_us_2    :     18.63s CPU      3.83s WALL (   25344 calls)
     cegterg      :   3051.04s CPU    800.85s WALL (   10560 calls)

     Called by sum_band:
     sum_band:bec :      0.85s CPU      0.20s WALL (   10560 calls)
     addusdens    :      0.32s CPU      0.09s WALL (       5 calls)

     Called by *egterg:
     h_psi        :   2544.13s CPU    692.37s WALL (   35645 calls)
     s_psi        :    149.47s CPU     34.33s WALL (   35645 calls)
     g_psi        :      2.52s CPU      0.55s WALL (   22973 calls)
     cdiaghg      :     32.35s CPU      8.59s WALL (   31421 calls)
     cegterg:over :    163.46s CPU     38.44s WALL (   22973 calls)
     cegterg:upda :    120.42s CPU     31.48s WALL (   22973 calls)
     cegterg:last :    115.50s CPU     27.54s WALL (   11753 calls)

     Called by h_psi:
     h_psi:pot    :   2540.46s CPU    691.54s WALL (   35645 calls)
     h_psi:calbec :    276.82s CPU     70.70s WALL (   35645 calls)
     vloc_psi     :   2067.08s CPU    574.74s WALL (   35645 calls)
     add_vuspsi   :    193.35s CPU     45.50s WALL (   35645 calls)

     General routines
     calbec       :    643.20s CPU    152.67s WALL (   54653 calls)
     fft          :      0.89s CPU      0.25s WALL (      78 calls)
     fftw         :   2081.74s CPU    577.33s WALL (  411026 calls)
 
     Parallel routines
 
     PWSCF        :     1h 1m CPU        0h15m WALL

 
   This run was terminated on:   3:11:43  29Jan2019            

=------------------------------------------------------------------------------=
   JOB DONE.
=------------------------------------------------------------------------------=
