
     Program PWSCF v.6.2 (svn rev. 14038) starts on 24Jan2019 at 17: 0: 2 

     This program is part of the open-source Quantum ESPRESSO suite
     for quantum simulation of materials; please cite
         "P. Giannozzi et al., J. Phys.:Condens. Matter 21 395502 (2009);
         "P. Giannozzi et al., J. Phys.:Condens. Matter 29 465901 (2017);
          URL http://www.quantum-espresso.org", 
     in publications or presentations arising from this work. More details at
     http://www.quantum-espresso.org/quote

     Parallel version (MPI), running on     1 processors

     MPI processes distributed on     1 nodes
     Reading input from ./AlfccSEPNEG0DOT29289321881345254.in
Warning: card &IONS ignored
Warning: card / ignored
Warning: card &CELL ignored
Warning: card / ignored

     Current dimensions of program PWSCF are:
     Max number of different atomic species (ntypx) = 10
     Max number of k-points (npk) =  40000
     Max angular momentum in pseudopotentials (lmaxx) =  3
     Message from routine iosys:
     minimal I/O required, wf_collect reset to FALSE

     Subspace diagonalization in iterative solution of the eigenvalue problem:
     a serial algorithm will be used

     Found symmetry operation: I + ( -0.5000 -0.5000  0.0000)
     This is a supercell, fractional translations are disabled
 
     G-vector sticks info
     --------------------
     sticks:   dense  smooth     PW     G-vecs:    dense   smooth      PW
     Sum         465     465    149                 5281     5281    1021
 


     bravais-lattice index     =            0
     lattice parameter (alat)  =       7.6325  a.u.
     unit-cell volume          =     314.3986 (a.u.)^3
     number of atoms/cell      =            4
     number of atomic types    =            1
     number of electrons       =        12.00
     number of Kohn-Sham states=           10
     kinetic-energy cutoff     =      25.0000  Ry
     charge density cutoff     =     100.0000  Ry
     convergence threshold     =      1.0E-07
     mixing beta               =       0.7000
     number of iterations used =            8  plain     mixing
     Exchange-correlation      = SLA  PW   PBE  PBE ( 1  4  3  4 0 0)

     celldm(1)=   7.632472  celldm(2)=   0.000000  celldm(3)=   0.000000
     celldm(4)=   0.000000  celldm(5)=   0.000000  celldm(6)=   0.000000

     crystal axes: (cart. coord. in units of alat)
               a(1) = (   1.000000   0.000000   0.000000 )  
               a(2) = (   0.000000   1.000000   0.000000 )  
               a(3) = (   0.000000   0.000000   0.707107 )  

     reciprocal axes: (cart. coord. in units 2 pi/alat)
               b(1) = (  1.000000  0.000000  0.000000 )  
               b(2) = (  0.000000  1.000000  0.000000 )  
               b(3) = (  0.000000  0.000000  1.414213 )  


     PseudoPot. # 1 for Al read from file:
     ./al_pbe_v1.uspp.F.UPF
     MD5 check sum: 0a6289f5291fc8f409219462bc851e1f
     Pseudo is Ultrasoft + core correction, Zval =  3.0
     Generated by new atomic code, or converted to UPF format
     Using radial grid of  893 points,  3 beta functions with: 
                l(1) =   0
                l(2) =   1
                l(3) =   2
     Q(r) pseudized with  8 coefficients,  rinner =    0.900   0.900   0.900
                                                       0.900   0.900

     atomic species   valence    mass     pseudopotential
        Al             3.00    26.98150     Al( 1.00)

     16 Sym. Ops., with inversion, found


                                    s                        frac. trans.

      isym =  1     identity                                     

 cryst.   s( 1) = (     1          0          0      )
                  (     0          1          0      )
                  (     0          0          1      )

 cart.    s( 1) = (  1.0000000  0.0000000  0.0000000 )
                  (  0.0000000  1.0000000  0.0000000 )
                  (  0.0000000  0.0000000  1.0000000 )


      isym =  2     180 deg rotation - cart. axis [0,0,1]        

 cryst.   s( 2) = (    -1          0          0      )
                  (     0         -1          0      )
                  (     0          0          1      )

 cart.    s( 2) = ( -1.0000000  0.0000000  0.0000000 )
                  (  0.0000000 -1.0000000  0.0000000 )
                  (  0.0000000  0.0000000  1.0000000 )


      isym =  3     180 deg rotation - cart. axis [0,1,0]        

 cryst.   s( 3) = (    -1          0          0      )
                  (     0          1          0      )
                  (     0          0         -1      )

 cart.    s( 3) = ( -1.0000000  0.0000000  0.0000000 )
                  (  0.0000000  1.0000000  0.0000000 )
                  (  0.0000000  0.0000000 -1.0000000 )


      isym =  4     180 deg rotation - cart. axis [1,0,0]        

 cryst.   s( 4) = (     1          0          0      )
                  (     0         -1          0      )
                  (     0          0         -1      )

 cart.    s( 4) = (  1.0000000  0.0000000  0.0000000 )
                  (  0.0000000 -1.0000000  0.0000000 )
                  (  0.0000000  0.0000000 -1.0000000 )


      isym =  5     180 deg rotation - cart. axis [1,1,0]        

 cryst.   s( 5) = (     0          1          0      )
                  (     1          0          0      )
                  (     0          0         -1      )

 cart.    s( 5) = (  0.0000000  1.0000000  0.0000000 )
                  (  1.0000000  0.0000000  0.0000000 )
                  (  0.0000000  0.0000000 -1.0000000 )


      isym =  6     180 deg rotation - cart. axis [1,-1,0]       

 cryst.   s( 6) = (     0         -1          0      )
                  (    -1          0          0      )
                  (     0          0         -1      )

 cart.    s( 6) = (  0.0000000 -1.0000000  0.0000000 )
                  ( -1.0000000  0.0000000  0.0000000 )
                  (  0.0000000  0.0000000 -1.0000000 )


      isym =  7      90 deg rotation - cart. axis [0,0,-1]       

 cryst.   s( 7) = (     0         -1          0      )
                  (     1          0          0      )
                  (     0          0          1      )

 cart.    s( 7) = (  0.0000000  1.0000000  0.0000000 )
                  ( -1.0000000  0.0000000  0.0000000 )
                  (  0.0000000  0.0000000  1.0000000 )


      isym =  8      90 deg rotation - cart. axis [0,0,1]        

 cryst.   s( 8) = (     0          1          0      )
                  (    -1          0          0      )
                  (     0          0          1      )

 cart.    s( 8) = (  0.0000000 -1.0000000  0.0000000 )
                  (  1.0000000  0.0000000  0.0000000 )
                  (  0.0000000  0.0000000  1.0000000 )


      isym =  9     inversion                                    

 cryst.   s( 9) = (    -1          0          0      )
                  (     0         -1          0      )
                  (     0          0         -1      )

 cart.    s( 9) = ( -1.0000000  0.0000000  0.0000000 )
                  (  0.0000000 -1.0000000  0.0000000 )
                  (  0.0000000  0.0000000 -1.0000000 )


      isym = 10     inv. 180 deg rotation - cart. axis [0,0,1]   

 cryst.   s(10) = (     1          0          0      )
                  (     0          1          0      )
                  (     0          0         -1      )

 cart.    s(10) = (  1.0000000  0.0000000  0.0000000 )
                  (  0.0000000  1.0000000  0.0000000 )
                  (  0.0000000  0.0000000 -1.0000000 )


      isym = 11     inv. 180 deg rotation - cart. axis [0,1,0]   

 cryst.   s(11) = (     1          0          0      )
                  (     0         -1          0      )
                  (     0          0          1      )

 cart.    s(11) = (  1.0000000  0.0000000  0.0000000 )
                  (  0.0000000 -1.0000000  0.0000000 )
                  (  0.0000000  0.0000000  1.0000000 )


      isym = 12     inv. 180 deg rotation - cart. axis [1,0,0]   

 cryst.   s(12) = (    -1          0          0      )
                  (     0          1          0      )
                  (     0          0          1      )

 cart.    s(12) = ( -1.0000000  0.0000000  0.0000000 )
                  (  0.0000000  1.0000000  0.0000000 )
                  (  0.0000000  0.0000000  1.0000000 )


      isym = 13     inv. 180 deg rotation - cart. axis [1,1,0]   

 cryst.   s(13) = (     0         -1          0      )
                  (    -1          0          0      )
                  (     0          0          1      )

 cart.    s(13) = (  0.0000000 -1.0000000  0.0000000 )
                  ( -1.0000000  0.0000000  0.0000000 )
                  (  0.0000000  0.0000000  1.0000000 )


      isym = 14     inv. 180 deg rotation - cart. axis [1,-1,0]  

 cryst.   s(14) = (     0          1          0      )
                  (     1          0          0      )
                  (     0          0          1      )

 cart.    s(14) = (  0.0000000  1.0000000  0.0000000 )
                  (  1.0000000  0.0000000  0.0000000 )
                  (  0.0000000  0.0000000  1.0000000 )


      isym = 15     inv.  90 deg rotation - cart. axis [0,0,-1]  

 cryst.   s(15) = (     0          1          0      )
                  (    -1          0          0      )
                  (     0          0         -1      )

 cart.    s(15) = (  0.0000000 -1.0000000  0.0000000 )
                  (  1.0000000  0.0000000  0.0000000 )
                  (  0.0000000  0.0000000 -1.0000000 )


      isym = 16     inv.  90 deg rotation - cart. axis [0,0,1]   

 cryst.   s(16) = (     0         -1          0      )
                  (     1          0          0      )
                  (     0          0         -1      )

 cart.    s(16) = (  0.0000000  1.0000000  0.0000000 )
                  ( -1.0000000  0.0000000  0.0000000 )
                  (  0.0000000  0.0000000 -1.0000000 )


   Cartesian axes

     site n.     atom                  positions (alat units)
         1           Al  tau(   1) = (   0.0000000   0.0000000   0.0000000  )
         2           Al  tau(   2) = (   0.5000000   0.5000000   0.0000000  )
         3           Al  tau(   3) = (   0.5000000   0.0000000   0.3535534  )
         4           Al  tau(   4) = (   0.0000000   0.5000000   0.3535534  )

   Crystallographic axes

     site n.     atom                  positions (cryst. coord.)
         1           Al  tau(   1) = (  0.0000000  0.0000000  0.0000000  )
         2           Al  tau(   2) = (  0.5000000  0.5000000  0.0000000  )
         3           Al  tau(   3) = (  0.5000000  0.0000000  0.5000000  )
         4           Al  tau(   4) = (  0.0000000  0.5000000  0.5000000  )

     number of k points=   715  Marzari-Vanderbilt smearing, width (Ry)=  0.0100
                       cart. coord. in units 2pi/alat
        k(    1) = (   0.0000000   0.0000000   0.0000000), wk =   0.0002469
        k(    2) = (   0.0000000   0.0000000   0.0565685), wk =   0.0004938
        k(    3) = (   0.0000000   0.0000000   0.1131371), wk =   0.0004938
        k(    4) = (   0.0000000   0.0000000   0.1697056), wk =   0.0004938
        k(    5) = (   0.0000000   0.0000000   0.2262742), wk =   0.0004938
        k(    6) = (   0.0000000   0.0000000   0.2828427), wk =   0.0004938
        k(    7) = (   0.0000000   0.0000000   0.3394112), wk =   0.0004938
        k(    8) = (   0.0000000   0.0000000   0.3959798), wk =   0.0004938
        k(    9) = (   0.0000000   0.0000000   0.4525483), wk =   0.0004938
        k(   10) = (   0.0000000   0.0000000   0.5091168), wk =   0.0004938
        k(   11) = (   0.0000000   0.0000000   0.5656854), wk =   0.0004938
        k(   12) = (   0.0000000   0.0000000   0.6222539), wk =   0.0004938
        k(   13) = (   0.0000000   0.0000000   0.6788225), wk =   0.0004938
        k(   14) = (   0.0000000   0.0555556   0.0000000), wk =   0.0009877
        k(   15) = (   0.0000000   0.0555556   0.0565685), wk =   0.0019753
        k(   16) = (   0.0000000   0.0555556   0.1131371), wk =   0.0019753
        k(   17) = (   0.0000000   0.0555556   0.1697056), wk =   0.0019753
        k(   18) = (   0.0000000   0.0555556   0.2262742), wk =   0.0019753
        k(   19) = (   0.0000000   0.0555556   0.2828427), wk =   0.0019753
        k(   20) = (   0.0000000   0.0555556   0.3394112), wk =   0.0019753
        k(   21) = (   0.0000000   0.0555556   0.3959798), wk =   0.0019753
        k(   22) = (   0.0000000   0.0555556   0.4525483), wk =   0.0019753
        k(   23) = (   0.0000000   0.0555556   0.5091168), wk =   0.0019753
        k(   24) = (   0.0000000   0.0555556   0.5656854), wk =   0.0019753
        k(   25) = (   0.0000000   0.0555556   0.6222539), wk =   0.0019753
        k(   26) = (   0.0000000   0.0555556   0.6788225), wk =   0.0019753
        k(   27) = (   0.0000000   0.1111111   0.0000000), wk =   0.0009877
        k(   28) = (   0.0000000   0.1111111   0.0565685), wk =   0.0019753
        k(   29) = (   0.0000000   0.1111111   0.1131371), wk =   0.0019753
        k(   30) = (   0.0000000   0.1111111   0.1697056), wk =   0.0019753
        k(   31) = (   0.0000000   0.1111111   0.2262742), wk =   0.0019753
        k(   32) = (   0.0000000   0.1111111   0.2828427), wk =   0.0019753
        k(   33) = (   0.0000000   0.1111111   0.3394112), wk =   0.0019753
        k(   34) = (   0.0000000   0.1111111   0.3959798), wk =   0.0019753
        k(   35) = (   0.0000000   0.1111111   0.4525483), wk =   0.0019753
        k(   36) = (   0.0000000   0.1111111   0.5091168), wk =   0.0019753
        k(   37) = (   0.0000000   0.1111111   0.5656854), wk =   0.0019753
        k(   38) = (   0.0000000   0.1111111   0.6222539), wk =   0.0019753
        k(   39) = (   0.0000000   0.1111111   0.6788225), wk =   0.0019753
        k(   40) = (   0.0000000   0.1666667   0.0000000), wk =   0.0009877
        k(   41) = (   0.0000000   0.1666667   0.0565685), wk =   0.0019753
        k(   42) = (   0.0000000   0.1666667   0.1131371), wk =   0.0019753
        k(   43) = (   0.0000000   0.1666667   0.1697056), wk =   0.0019753
        k(   44) = (   0.0000000   0.1666667   0.2262742), wk =   0.0019753
        k(   45) = (   0.0000000   0.1666667   0.2828427), wk =   0.0019753
        k(   46) = (   0.0000000   0.1666667   0.3394112), wk =   0.0019753
        k(   47) = (   0.0000000   0.1666667   0.3959798), wk =   0.0019753
        k(   48) = (   0.0000000   0.1666667   0.4525483), wk =   0.0019753
        k(   49) = (   0.0000000   0.1666667   0.5091168), wk =   0.0019753
        k(   50) = (   0.0000000   0.1666667   0.5656854), wk =   0.0019753
        k(   51) = (   0.0000000   0.1666667   0.6222539), wk =   0.0019753
        k(   52) = (   0.0000000   0.1666667   0.6788225), wk =   0.0019753
        k(   53) = (   0.0000000   0.2222222   0.0000000), wk =   0.0009877
        k(   54) = (   0.0000000   0.2222222   0.0565685), wk =   0.0019753
        k(   55) = (   0.0000000   0.2222222   0.1131371), wk =   0.0019753
        k(   56) = (   0.0000000   0.2222222   0.1697056), wk =   0.0019753
        k(   57) = (   0.0000000   0.2222222   0.2262742), wk =   0.0019753
        k(   58) = (   0.0000000   0.2222222   0.2828427), wk =   0.0019753
        k(   59) = (   0.0000000   0.2222222   0.3394112), wk =   0.0019753
        k(   60) = (   0.0000000   0.2222222   0.3959798), wk =   0.0019753
        k(   61) = (   0.0000000   0.2222222   0.4525483), wk =   0.0019753
        k(   62) = (   0.0000000   0.2222222   0.5091168), wk =   0.0019753
        k(   63) = (   0.0000000   0.2222222   0.5656854), wk =   0.0019753
        k(   64) = (   0.0000000   0.2222222   0.6222539), wk =   0.0019753
        k(   65) = (   0.0000000   0.2222222   0.6788225), wk =   0.0019753
        k(   66) = (   0.0000000   0.2777778   0.0000000), wk =   0.0009877
        k(   67) = (   0.0000000   0.2777778   0.0565685), wk =   0.0019753
        k(   68) = (   0.0000000   0.2777778   0.1131371), wk =   0.0019753
        k(   69) = (   0.0000000   0.2777778   0.1697056), wk =   0.0019753
        k(   70) = (   0.0000000   0.2777778   0.2262742), wk =   0.0019753
        k(   71) = (   0.0000000   0.2777778   0.2828427), wk =   0.0019753
        k(   72) = (   0.0000000   0.2777778   0.3394112), wk =   0.0019753
        k(   73) = (   0.0000000   0.2777778   0.3959798), wk =   0.0019753
        k(   74) = (   0.0000000   0.2777778   0.4525483), wk =   0.0019753
        k(   75) = (   0.0000000   0.2777778   0.5091168), wk =   0.0019753
        k(   76) = (   0.0000000   0.2777778   0.5656854), wk =   0.0019753
        k(   77) = (   0.0000000   0.2777778   0.6222539), wk =   0.0019753
        k(   78) = (   0.0000000   0.2777778   0.6788225), wk =   0.0019753
        k(   79) = (   0.0000000   0.3333333   0.0000000), wk =   0.0009877
        k(   80) = (   0.0000000   0.3333333   0.0565685), wk =   0.0019753
        k(   81) = (   0.0000000   0.3333333   0.1131371), wk =   0.0019753
        k(   82) = (   0.0000000   0.3333333   0.1697056), wk =   0.0019753
        k(   83) = (   0.0000000   0.3333333   0.2262742), wk =   0.0019753
        k(   84) = (   0.0000000   0.3333333   0.2828427), wk =   0.0019753
        k(   85) = (   0.0000000   0.3333333   0.3394112), wk =   0.0019753
        k(   86) = (   0.0000000   0.3333333   0.3959798), wk =   0.0019753
        k(   87) = (   0.0000000   0.3333333   0.4525483), wk =   0.0019753
        k(   88) = (   0.0000000   0.3333333   0.5091168), wk =   0.0019753
        k(   89) = (   0.0000000   0.3333333   0.5656854), wk =   0.0019753
        k(   90) = (   0.0000000   0.3333333   0.6222539), wk =   0.0019753
        k(   91) = (   0.0000000   0.3333333   0.6788225), wk =   0.0019753
        k(   92) = (   0.0000000   0.3888889   0.0000000), wk =   0.0009877
        k(   93) = (   0.0000000   0.3888889   0.0565685), wk =   0.0019753
        k(   94) = (   0.0000000   0.3888889   0.1131371), wk =   0.0019753
        k(   95) = (   0.0000000   0.3888889   0.1697056), wk =   0.0019753
        k(   96) = (   0.0000000   0.3888889   0.2262742), wk =   0.0019753
        k(   97) = (   0.0000000   0.3888889   0.2828427), wk =   0.0019753
        k(   98) = (   0.0000000   0.3888889   0.3394112), wk =   0.0019753
        k(   99) = (   0.0000000   0.3888889   0.3959798), wk =   0.0019753
        k(  100) = (   0.0000000   0.3888889   0.4525483), wk =   0.0019753
        k(  101) = (   0.0000000   0.3888889   0.5091168), wk =   0.0019753
        k(  102) = (   0.0000000   0.3888889   0.5656854), wk =   0.0019753
        k(  103) = (   0.0000000   0.3888889   0.6222539), wk =   0.0019753
        k(  104) = (   0.0000000   0.3888889   0.6788225), wk =   0.0019753
        k(  105) = (   0.0000000   0.4444444   0.0000000), wk =   0.0009877
        k(  106) = (   0.0000000   0.4444444   0.0565685), wk =   0.0019753
        k(  107) = (   0.0000000   0.4444444   0.1131371), wk =   0.0019753
        k(  108) = (   0.0000000   0.4444444   0.1697056), wk =   0.0019753
        k(  109) = (   0.0000000   0.4444444   0.2262742), wk =   0.0019753
        k(  110) = (   0.0000000   0.4444444   0.2828427), wk =   0.0019753
        k(  111) = (   0.0000000   0.4444444   0.3394112), wk =   0.0019753
        k(  112) = (   0.0000000   0.4444444   0.3959798), wk =   0.0019753
        k(  113) = (   0.0000000   0.4444444   0.4525483), wk =   0.0019753
        k(  114) = (   0.0000000   0.4444444   0.5091168), wk =   0.0019753
        k(  115) = (   0.0000000   0.4444444   0.5656854), wk =   0.0019753
        k(  116) = (   0.0000000   0.4444444   0.6222539), wk =   0.0019753
        k(  117) = (   0.0000000   0.4444444   0.6788225), wk =   0.0019753
        k(  118) = (   0.0000000  -0.5000000   0.0000000), wk =   0.0004938
        k(  119) = (   0.0000000  -0.5000000   0.0565685), wk =   0.0009877
        k(  120) = (   0.0000000  -0.5000000   0.1131371), wk =   0.0009877
        k(  121) = (   0.0000000  -0.5000000   0.1697056), wk =   0.0009877
        k(  122) = (   0.0000000  -0.5000000   0.2262742), wk =   0.0009877
        k(  123) = (   0.0000000  -0.5000000   0.2828427), wk =   0.0009877
        k(  124) = (   0.0000000  -0.5000000   0.3394112), wk =   0.0009877
        k(  125) = (   0.0000000  -0.5000000   0.3959798), wk =   0.0009877
        k(  126) = (   0.0000000  -0.5000000   0.4525483), wk =   0.0009877
        k(  127) = (   0.0000000  -0.5000000   0.5091168), wk =   0.0009877
        k(  128) = (   0.0000000  -0.5000000   0.5656854), wk =   0.0009877
        k(  129) = (   0.0000000  -0.5000000   0.6222539), wk =   0.0009877
        k(  130) = (   0.0000000  -0.5000000   0.6788225), wk =   0.0009877
        k(  131) = (   0.0555556   0.0555556   0.0000000), wk =   0.0009877
        k(  132) = (   0.0555556   0.0555556   0.0565685), wk =   0.0019753
        k(  133) = (   0.0555556   0.0555556   0.1131371), wk =   0.0019753
        k(  134) = (   0.0555556   0.0555556   0.1697056), wk =   0.0019753
        k(  135) = (   0.0555556   0.0555556   0.2262742), wk =   0.0019753
        k(  136) = (   0.0555556   0.0555556   0.2828427), wk =   0.0019753
        k(  137) = (   0.0555556   0.0555556   0.3394112), wk =   0.0019753
        k(  138) = (   0.0555556   0.0555556   0.3959798), wk =   0.0019753
        k(  139) = (   0.0555556   0.0555556   0.4525483), wk =   0.0019753
        k(  140) = (   0.0555556   0.0555556   0.5091168), wk =   0.0019753
        k(  141) = (   0.0555556   0.0555556   0.5656854), wk =   0.0019753
        k(  142) = (   0.0555556   0.0555556   0.6222539), wk =   0.0019753
        k(  143) = (   0.0555556   0.0555556   0.6788225), wk =   0.0019753
        k(  144) = (   0.0555556   0.1111111   0.0000000), wk =   0.0019753
        k(  145) = (   0.0555556   0.1111111   0.0565685), wk =   0.0039506
        k(  146) = (   0.0555556   0.1111111   0.1131371), wk =   0.0039506
        k(  147) = (   0.0555556   0.1111111   0.1697056), wk =   0.0039506
        k(  148) = (   0.0555556   0.1111111   0.2262742), wk =   0.0039506
        k(  149) = (   0.0555556   0.1111111   0.2828427), wk =   0.0039506
        k(  150) = (   0.0555556   0.1111111   0.3394112), wk =   0.0039506
        k(  151) = (   0.0555556   0.1111111   0.3959798), wk =   0.0039506
        k(  152) = (   0.0555556   0.1111111   0.4525483), wk =   0.0039506
        k(  153) = (   0.0555556   0.1111111   0.5091168), wk =   0.0039506
        k(  154) = (   0.0555556   0.1111111   0.5656854), wk =   0.0039506
        k(  155) = (   0.0555556   0.1111111   0.6222539), wk =   0.0039506
        k(  156) = (   0.0555556   0.1111111   0.6788225), wk =   0.0039506
        k(  157) = (   0.0555556   0.1666667   0.0000000), wk =   0.0019753
        k(  158) = (   0.0555556   0.1666667   0.0565685), wk =   0.0039506
        k(  159) = (   0.0555556   0.1666667   0.1131371), wk =   0.0039506
        k(  160) = (   0.0555556   0.1666667   0.1697056), wk =   0.0039506
        k(  161) = (   0.0555556   0.1666667   0.2262742), wk =   0.0039506
        k(  162) = (   0.0555556   0.1666667   0.2828427), wk =   0.0039506
        k(  163) = (   0.0555556   0.1666667   0.3394112), wk =   0.0039506
        k(  164) = (   0.0555556   0.1666667   0.3959798), wk =   0.0039506
        k(  165) = (   0.0555556   0.1666667   0.4525483), wk =   0.0039506
        k(  166) = (   0.0555556   0.1666667   0.5091168), wk =   0.0039506
        k(  167) = (   0.0555556   0.1666667   0.5656854), wk =   0.0039506
        k(  168) = (   0.0555556   0.1666667   0.6222539), wk =   0.0039506
        k(  169) = (   0.0555556   0.1666667   0.6788225), wk =   0.0039506
        k(  170) = (   0.0555556   0.2222222   0.0000000), wk =   0.0019753
        k(  171) = (   0.0555556   0.2222222   0.0565685), wk =   0.0039506
        k(  172) = (   0.0555556   0.2222222   0.1131371), wk =   0.0039506
        k(  173) = (   0.0555556   0.2222222   0.1697056), wk =   0.0039506
        k(  174) = (   0.0555556   0.2222222   0.2262742), wk =   0.0039506
        k(  175) = (   0.0555556   0.2222222   0.2828427), wk =   0.0039506
        k(  176) = (   0.0555556   0.2222222   0.3394112), wk =   0.0039506
        k(  177) = (   0.0555556   0.2222222   0.3959798), wk =   0.0039506
        k(  178) = (   0.0555556   0.2222222   0.4525483), wk =   0.0039506
        k(  179) = (   0.0555556   0.2222222   0.5091168), wk =   0.0039506
        k(  180) = (   0.0555556   0.2222222   0.5656854), wk =   0.0039506
        k(  181) = (   0.0555556   0.2222222   0.6222539), wk =   0.0039506
        k(  182) = (   0.0555556   0.2222222   0.6788225), wk =   0.0039506
        k(  183) = (   0.0555556   0.2777778   0.0000000), wk =   0.0019753
        k(  184) = (   0.0555556   0.2777778   0.0565685), wk =   0.0039506
        k(  185) = (   0.0555556   0.2777778   0.1131371), wk =   0.0039506
        k(  186) = (   0.0555556   0.2777778   0.1697056), wk =   0.0039506
        k(  187) = (   0.0555556   0.2777778   0.2262742), wk =   0.0039506
        k(  188) = (   0.0555556   0.2777778   0.2828427), wk =   0.0039506
        k(  189) = (   0.0555556   0.2777778   0.3394112), wk =   0.0039506
        k(  190) = (   0.0555556   0.2777778   0.3959798), wk =   0.0039506
        k(  191) = (   0.0555556   0.2777778   0.4525483), wk =   0.0039506
        k(  192) = (   0.0555556   0.2777778   0.5091168), wk =   0.0039506
        k(  193) = (   0.0555556   0.2777778   0.5656854), wk =   0.0039506
        k(  194) = (   0.0555556   0.2777778   0.6222539), wk =   0.0039506
        k(  195) = (   0.0555556   0.2777778   0.6788225), wk =   0.0039506
        k(  196) = (   0.0555556   0.3333333   0.0000000), wk =   0.0019753
        k(  197) = (   0.0555556   0.3333333   0.0565685), wk =   0.0039506
        k(  198) = (   0.0555556   0.3333333   0.1131371), wk =   0.0039506
        k(  199) = (   0.0555556   0.3333333   0.1697056), wk =   0.0039506
        k(  200) = (   0.0555556   0.3333333   0.2262742), wk =   0.0039506
        k(  201) = (   0.0555556   0.3333333   0.2828427), wk =   0.0039506
        k(  202) = (   0.0555556   0.3333333   0.3394112), wk =   0.0039506
        k(  203) = (   0.0555556   0.3333333   0.3959798), wk =   0.0039506
        k(  204) = (   0.0555556   0.3333333   0.4525483), wk =   0.0039506
        k(  205) = (   0.0555556   0.3333333   0.5091168), wk =   0.0039506
        k(  206) = (   0.0555556   0.3333333   0.5656854), wk =   0.0039506
        k(  207) = (   0.0555556   0.3333333   0.6222539), wk =   0.0039506
        k(  208) = (   0.0555556   0.3333333   0.6788225), wk =   0.0039506
        k(  209) = (   0.0555556   0.3888889   0.0000000), wk =   0.0019753
        k(  210) = (   0.0555556   0.3888889   0.0565685), wk =   0.0039506
        k(  211) = (   0.0555556   0.3888889   0.1131371), wk =   0.0039506
        k(  212) = (   0.0555556   0.3888889   0.1697056), wk =   0.0039506
        k(  213) = (   0.0555556   0.3888889   0.2262742), wk =   0.0039506
        k(  214) = (   0.0555556   0.3888889   0.2828427), wk =   0.0039506
        k(  215) = (   0.0555556   0.3888889   0.3394112), wk =   0.0039506
        k(  216) = (   0.0555556   0.3888889   0.3959798), wk =   0.0039506
        k(  217) = (   0.0555556   0.3888889   0.4525483), wk =   0.0039506
        k(  218) = (   0.0555556   0.3888889   0.5091168), wk =   0.0039506
        k(  219) = (   0.0555556   0.3888889   0.5656854), wk =   0.0039506
        k(  220) = (   0.0555556   0.3888889   0.6222539), wk =   0.0039506
        k(  221) = (   0.0555556   0.3888889   0.6788225), wk =   0.0039506
        k(  222) = (   0.0555556   0.4444444   0.0000000), wk =   0.0019753
        k(  223) = (   0.0555556   0.4444444   0.0565685), wk =   0.0039506
        k(  224) = (   0.0555556   0.4444444   0.1131371), wk =   0.0039506
        k(  225) = (   0.0555556   0.4444444   0.1697056), wk =   0.0039506
        k(  226) = (   0.0555556   0.4444444   0.2262742), wk =   0.0039506
        k(  227) = (   0.0555556   0.4444444   0.2828427), wk =   0.0039506
        k(  228) = (   0.0555556   0.4444444   0.3394112), wk =   0.0039506
        k(  229) = (   0.0555556   0.4444444   0.3959798), wk =   0.0039506
        k(  230) = (   0.0555556   0.4444444   0.4525483), wk =   0.0039506
        k(  231) = (   0.0555556   0.4444444   0.5091168), wk =   0.0039506
        k(  232) = (   0.0555556   0.4444444   0.5656854), wk =   0.0039506
        k(  233) = (   0.0555556   0.4444444   0.6222539), wk =   0.0039506
        k(  234) = (   0.0555556   0.4444444   0.6788225), wk =   0.0039506
        k(  235) = (   0.0555556  -0.5000000   0.0000000), wk =   0.0009877
        k(  236) = (   0.0555556  -0.5000000   0.0565685), wk =   0.0019753
        k(  237) = (   0.0555556  -0.5000000   0.1131371), wk =   0.0019753
        k(  238) = (   0.0555556  -0.5000000   0.1697056), wk =   0.0019753
        k(  239) = (   0.0555556  -0.5000000   0.2262742), wk =   0.0019753
        k(  240) = (   0.0555556  -0.5000000   0.2828427), wk =   0.0019753
        k(  241) = (   0.0555556  -0.5000000   0.3394112), wk =   0.0019753
        k(  242) = (   0.0555556  -0.5000000   0.3959798), wk =   0.0019753
        k(  243) = (   0.0555556  -0.5000000   0.4525483), wk =   0.0019753
        k(  244) = (   0.0555556  -0.5000000   0.5091168), wk =   0.0019753
        k(  245) = (   0.0555556  -0.5000000   0.5656854), wk =   0.0019753
        k(  246) = (   0.0555556  -0.5000000   0.6222539), wk =   0.0019753
        k(  247) = (   0.0555556  -0.5000000   0.6788225), wk =   0.0019753
        k(  248) = (   0.1111111   0.1111111   0.0000000), wk =   0.0009877
        k(  249) = (   0.1111111   0.1111111   0.0565685), wk =   0.0019753
        k(  250) = (   0.1111111   0.1111111   0.1131371), wk =   0.0019753
        k(  251) = (   0.1111111   0.1111111   0.1697056), wk =   0.0019753
        k(  252) = (   0.1111111   0.1111111   0.2262742), wk =   0.0019753
        k(  253) = (   0.1111111   0.1111111   0.2828427), wk =   0.0019753
        k(  254) = (   0.1111111   0.1111111   0.3394112), wk =   0.0019753
        k(  255) = (   0.1111111   0.1111111   0.3959798), wk =   0.0019753
        k(  256) = (   0.1111111   0.1111111   0.4525483), wk =   0.0019753
        k(  257) = (   0.1111111   0.1111111   0.5091168), wk =   0.0019753
        k(  258) = (   0.1111111   0.1111111   0.5656854), wk =   0.0019753
        k(  259) = (   0.1111111   0.1111111   0.6222539), wk =   0.0019753
        k(  260) = (   0.1111111   0.1111111   0.6788225), wk =   0.0019753
        k(  261) = (   0.1111111   0.1666667   0.0000000), wk =   0.0019753
        k(  262) = (   0.1111111   0.1666667   0.0565685), wk =   0.0039506
        k(  263) = (   0.1111111   0.1666667   0.1131371), wk =   0.0039506
        k(  264) = (   0.1111111   0.1666667   0.1697056), wk =   0.0039506
        k(  265) = (   0.1111111   0.1666667   0.2262742), wk =   0.0039506
        k(  266) = (   0.1111111   0.1666667   0.2828427), wk =   0.0039506
        k(  267) = (   0.1111111   0.1666667   0.3394112), wk =   0.0039506
        k(  268) = (   0.1111111   0.1666667   0.3959798), wk =   0.0039506
        k(  269) = (   0.1111111   0.1666667   0.4525483), wk =   0.0039506
        k(  270) = (   0.1111111   0.1666667   0.5091168), wk =   0.0039506
        k(  271) = (   0.1111111   0.1666667   0.5656854), wk =   0.0039506
        k(  272) = (   0.1111111   0.1666667   0.6222539), wk =   0.0039506
        k(  273) = (   0.1111111   0.1666667   0.6788225), wk =   0.0039506
        k(  274) = (   0.1111111   0.2222222   0.0000000), wk =   0.0019753
        k(  275) = (   0.1111111   0.2222222   0.0565685), wk =   0.0039506
        k(  276) = (   0.1111111   0.2222222   0.1131371), wk =   0.0039506
        k(  277) = (   0.1111111   0.2222222   0.1697056), wk =   0.0039506
        k(  278) = (   0.1111111   0.2222222   0.2262742), wk =   0.0039506
        k(  279) = (   0.1111111   0.2222222   0.2828427), wk =   0.0039506
        k(  280) = (   0.1111111   0.2222222   0.3394112), wk =   0.0039506
        k(  281) = (   0.1111111   0.2222222   0.3959798), wk =   0.0039506
        k(  282) = (   0.1111111   0.2222222   0.4525483), wk =   0.0039506
        k(  283) = (   0.1111111   0.2222222   0.5091168), wk =   0.0039506
        k(  284) = (   0.1111111   0.2222222   0.5656854), wk =   0.0039506
        k(  285) = (   0.1111111   0.2222222   0.6222539), wk =   0.0039506
        k(  286) = (   0.1111111   0.2222222   0.6788225), wk =   0.0039506
        k(  287) = (   0.1111111   0.2777778   0.0000000), wk =   0.0019753
        k(  288) = (   0.1111111   0.2777778   0.0565685), wk =   0.0039506
        k(  289) = (   0.1111111   0.2777778   0.1131371), wk =   0.0039506
        k(  290) = (   0.1111111   0.2777778   0.1697056), wk =   0.0039506
        k(  291) = (   0.1111111   0.2777778   0.2262742), wk =   0.0039506
        k(  292) = (   0.1111111   0.2777778   0.2828427), wk =   0.0039506
        k(  293) = (   0.1111111   0.2777778   0.3394112), wk =   0.0039506
        k(  294) = (   0.1111111   0.2777778   0.3959798), wk =   0.0039506
        k(  295) = (   0.1111111   0.2777778   0.4525483), wk =   0.0039506
        k(  296) = (   0.1111111   0.2777778   0.5091168), wk =   0.0039506
        k(  297) = (   0.1111111   0.2777778   0.5656854), wk =   0.0039506
        k(  298) = (   0.1111111   0.2777778   0.6222539), wk =   0.0039506
        k(  299) = (   0.1111111   0.2777778   0.6788225), wk =   0.0039506
        k(  300) = (   0.1111111   0.3333333   0.0000000), wk =   0.0019753
        k(  301) = (   0.1111111   0.3333333   0.0565685), wk =   0.0039506
        k(  302) = (   0.1111111   0.3333333   0.1131371), wk =   0.0039506
        k(  303) = (   0.1111111   0.3333333   0.1697056), wk =   0.0039506
        k(  304) = (   0.1111111   0.3333333   0.2262742), wk =   0.0039506
        k(  305) = (   0.1111111   0.3333333   0.2828427), wk =   0.0039506
        k(  306) = (   0.1111111   0.3333333   0.3394112), wk =   0.0039506
        k(  307) = (   0.1111111   0.3333333   0.3959798), wk =   0.0039506
        k(  308) = (   0.1111111   0.3333333   0.4525483), wk =   0.0039506
        k(  309) = (   0.1111111   0.3333333   0.5091168), wk =   0.0039506
        k(  310) = (   0.1111111   0.3333333   0.5656854), wk =   0.0039506
        k(  311) = (   0.1111111   0.3333333   0.6222539), wk =   0.0039506
        k(  312) = (   0.1111111   0.3333333   0.6788225), wk =   0.0039506
        k(  313) = (   0.1111111   0.3888889   0.0000000), wk =   0.0019753
        k(  314) = (   0.1111111   0.3888889   0.0565685), wk =   0.0039506
        k(  315) = (   0.1111111   0.3888889   0.1131371), wk =   0.0039506
        k(  316) = (   0.1111111   0.3888889   0.1697056), wk =   0.0039506
        k(  317) = (   0.1111111   0.3888889   0.2262742), wk =   0.0039506
        k(  318) = (   0.1111111   0.3888889   0.2828427), wk =   0.0039506
        k(  319) = (   0.1111111   0.3888889   0.3394112), wk =   0.0039506
        k(  320) = (   0.1111111   0.3888889   0.3959798), wk =   0.0039506
        k(  321) = (   0.1111111   0.3888889   0.4525483), wk =   0.0039506
        k(  322) = (   0.1111111   0.3888889   0.5091168), wk =   0.0039506
        k(  323) = (   0.1111111   0.3888889   0.5656854), wk =   0.0039506
        k(  324) = (   0.1111111   0.3888889   0.6222539), wk =   0.0039506
        k(  325) = (   0.1111111   0.3888889   0.6788225), wk =   0.0039506
        k(  326) = (   0.1111111   0.4444444   0.0000000), wk =   0.0019753
        k(  327) = (   0.1111111   0.4444444   0.0565685), wk =   0.0039506
        k(  328) = (   0.1111111   0.4444444   0.1131371), wk =   0.0039506
        k(  329) = (   0.1111111   0.4444444   0.1697056), wk =   0.0039506
        k(  330) = (   0.1111111   0.4444444   0.2262742), wk =   0.0039506
        k(  331) = (   0.1111111   0.4444444   0.2828427), wk =   0.0039506
        k(  332) = (   0.1111111   0.4444444   0.3394112), wk =   0.0039506
        k(  333) = (   0.1111111   0.4444444   0.3959798), wk =   0.0039506
        k(  334) = (   0.1111111   0.4444444   0.4525483), wk =   0.0039506
        k(  335) = (   0.1111111   0.4444444   0.5091168), wk =   0.0039506
        k(  336) = (   0.1111111   0.4444444   0.5656854), wk =   0.0039506
        k(  337) = (   0.1111111   0.4444444   0.6222539), wk =   0.0039506
        k(  338) = (   0.1111111   0.4444444   0.6788225), wk =   0.0039506
        k(  339) = (   0.1111111  -0.5000000   0.0000000), wk =   0.0009877
        k(  340) = (   0.1111111  -0.5000000   0.0565685), wk =   0.0019753
        k(  341) = (   0.1111111  -0.5000000   0.1131371), wk =   0.0019753
        k(  342) = (   0.1111111  -0.5000000   0.1697056), wk =   0.0019753
        k(  343) = (   0.1111111  -0.5000000   0.2262742), wk =   0.0019753
        k(  344) = (   0.1111111  -0.5000000   0.2828427), wk =   0.0019753
        k(  345) = (   0.1111111  -0.5000000   0.3394112), wk =   0.0019753
        k(  346) = (   0.1111111  -0.5000000   0.3959798), wk =   0.0019753
        k(  347) = (   0.1111111  -0.5000000   0.4525483), wk =   0.0019753
        k(  348) = (   0.1111111  -0.5000000   0.5091168), wk =   0.0019753
        k(  349) = (   0.1111111  -0.5000000   0.5656854), wk =   0.0019753
        k(  350) = (   0.1111111  -0.5000000   0.6222539), wk =   0.0019753
        k(  351) = (   0.1111111  -0.5000000   0.6788225), wk =   0.0019753
        k(  352) = (   0.1666667   0.1666667   0.0000000), wk =   0.0009877
        k(  353) = (   0.1666667   0.1666667   0.0565685), wk =   0.0019753
        k(  354) = (   0.1666667   0.1666667   0.1131371), wk =   0.0019753
        k(  355) = (   0.1666667   0.1666667   0.1697056), wk =   0.0019753
        k(  356) = (   0.1666667   0.1666667   0.2262742), wk =   0.0019753
        k(  357) = (   0.1666667   0.1666667   0.2828427), wk =   0.0019753
        k(  358) = (   0.1666667   0.1666667   0.3394112), wk =   0.0019753
        k(  359) = (   0.1666667   0.1666667   0.3959798), wk =   0.0019753
        k(  360) = (   0.1666667   0.1666667   0.4525483), wk =   0.0019753
        k(  361) = (   0.1666667   0.1666667   0.5091168), wk =   0.0019753
        k(  362) = (   0.1666667   0.1666667   0.5656854), wk =   0.0019753
        k(  363) = (   0.1666667   0.1666667   0.6222539), wk =   0.0019753
        k(  364) = (   0.1666667   0.1666667   0.6788225), wk =   0.0019753
        k(  365) = (   0.1666667   0.2222222   0.0000000), wk =   0.0019753
        k(  366) = (   0.1666667   0.2222222   0.0565685), wk =   0.0039506
        k(  367) = (   0.1666667   0.2222222   0.1131371), wk =   0.0039506
        k(  368) = (   0.1666667   0.2222222   0.1697056), wk =   0.0039506
        k(  369) = (   0.1666667   0.2222222   0.2262742), wk =   0.0039506
        k(  370) = (   0.1666667   0.2222222   0.2828427), wk =   0.0039506
        k(  371) = (   0.1666667   0.2222222   0.3394112), wk =   0.0039506
        k(  372) = (   0.1666667   0.2222222   0.3959798), wk =   0.0039506
        k(  373) = (   0.1666667   0.2222222   0.4525483), wk =   0.0039506
        k(  374) = (   0.1666667   0.2222222   0.5091168), wk =   0.0039506
        k(  375) = (   0.1666667   0.2222222   0.5656854), wk =   0.0039506
        k(  376) = (   0.1666667   0.2222222   0.6222539), wk =   0.0039506
        k(  377) = (   0.1666667   0.2222222   0.6788225), wk =   0.0039506
        k(  378) = (   0.1666667   0.2777778   0.0000000), wk =   0.0019753
        k(  379) = (   0.1666667   0.2777778   0.0565685), wk =   0.0039506
        k(  380) = (   0.1666667   0.2777778   0.1131371), wk =   0.0039506
        k(  381) = (   0.1666667   0.2777778   0.1697056), wk =   0.0039506
        k(  382) = (   0.1666667   0.2777778   0.2262742), wk =   0.0039506
        k(  383) = (   0.1666667   0.2777778   0.2828427), wk =   0.0039506
        k(  384) = (   0.1666667   0.2777778   0.3394112), wk =   0.0039506
        k(  385) = (   0.1666667   0.2777778   0.3959798), wk =   0.0039506
        k(  386) = (   0.1666667   0.2777778   0.4525483), wk =   0.0039506
        k(  387) = (   0.1666667   0.2777778   0.5091168), wk =   0.0039506
        k(  388) = (   0.1666667   0.2777778   0.5656854), wk =   0.0039506
        k(  389) = (   0.1666667   0.2777778   0.6222539), wk =   0.0039506
        k(  390) = (   0.1666667   0.2777778   0.6788225), wk =   0.0039506
        k(  391) = (   0.1666667   0.3333333   0.0000000), wk =   0.0019753
        k(  392) = (   0.1666667   0.3333333   0.0565685), wk =   0.0039506
        k(  393) = (   0.1666667   0.3333333   0.1131371), wk =   0.0039506
        k(  394) = (   0.1666667   0.3333333   0.1697056), wk =   0.0039506
        k(  395) = (   0.1666667   0.3333333   0.2262742), wk =   0.0039506
        k(  396) = (   0.1666667   0.3333333   0.2828427), wk =   0.0039506
        k(  397) = (   0.1666667   0.3333333   0.3394112), wk =   0.0039506
        k(  398) = (   0.1666667   0.3333333   0.3959798), wk =   0.0039506
        k(  399) = (   0.1666667   0.3333333   0.4525483), wk =   0.0039506
        k(  400) = (   0.1666667   0.3333333   0.5091168), wk =   0.0039506
        k(  401) = (   0.1666667   0.3333333   0.5656854), wk =   0.0039506
        k(  402) = (   0.1666667   0.3333333   0.6222539), wk =   0.0039506
        k(  403) = (   0.1666667   0.3333333   0.6788225), wk =   0.0039506
        k(  404) = (   0.1666667   0.3888889   0.0000000), wk =   0.0019753
        k(  405) = (   0.1666667   0.3888889   0.0565685), wk =   0.0039506
        k(  406) = (   0.1666667   0.3888889   0.1131371), wk =   0.0039506
        k(  407) = (   0.1666667   0.3888889   0.1697056), wk =   0.0039506
        k(  408) = (   0.1666667   0.3888889   0.2262742), wk =   0.0039506
        k(  409) = (   0.1666667   0.3888889   0.2828427), wk =   0.0039506
        k(  410) = (   0.1666667   0.3888889   0.3394112), wk =   0.0039506
        k(  411) = (   0.1666667   0.3888889   0.3959798), wk =   0.0039506
        k(  412) = (   0.1666667   0.3888889   0.4525483), wk =   0.0039506
        k(  413) = (   0.1666667   0.3888889   0.5091168), wk =   0.0039506
        k(  414) = (   0.1666667   0.3888889   0.5656854), wk =   0.0039506
        k(  415) = (   0.1666667   0.3888889   0.6222539), wk =   0.0039506
        k(  416) = (   0.1666667   0.3888889   0.6788225), wk =   0.0039506
        k(  417) = (   0.1666667   0.4444444   0.0000000), wk =   0.0019753
        k(  418) = (   0.1666667   0.4444444   0.0565685), wk =   0.0039506
        k(  419) = (   0.1666667   0.4444444   0.1131371), wk =   0.0039506
        k(  420) = (   0.1666667   0.4444444   0.1697056), wk =   0.0039506
        k(  421) = (   0.1666667   0.4444444   0.2262742), wk =   0.0039506
        k(  422) = (   0.1666667   0.4444444   0.2828427), wk =   0.0039506
        k(  423) = (   0.1666667   0.4444444   0.3394112), wk =   0.0039506
        k(  424) = (   0.1666667   0.4444444   0.3959798), wk =   0.0039506
        k(  425) = (   0.1666667   0.4444444   0.4525483), wk =   0.0039506
        k(  426) = (   0.1666667   0.4444444   0.5091168), wk =   0.0039506
        k(  427) = (   0.1666667   0.4444444   0.5656854), wk =   0.0039506
        k(  428) = (   0.1666667   0.4444444   0.6222539), wk =   0.0039506
        k(  429) = (   0.1666667   0.4444444   0.6788225), wk =   0.0039506
        k(  430) = (   0.1666667  -0.5000000   0.0000000), wk =   0.0009877
        k(  431) = (   0.1666667  -0.5000000   0.0565685), wk =   0.0019753
        k(  432) = (   0.1666667  -0.5000000   0.1131371), wk =   0.0019753
        k(  433) = (   0.1666667  -0.5000000   0.1697056), wk =   0.0019753
        k(  434) = (   0.1666667  -0.5000000   0.2262742), wk =   0.0019753
        k(  435) = (   0.1666667  -0.5000000   0.2828427), wk =   0.0019753
        k(  436) = (   0.1666667  -0.5000000   0.3394112), wk =   0.0019753
        k(  437) = (   0.1666667  -0.5000000   0.3959798), wk =   0.0019753
        k(  438) = (   0.1666667  -0.5000000   0.4525483), wk =   0.0019753
        k(  439) = (   0.1666667  -0.5000000   0.5091168), wk =   0.0019753
        k(  440) = (   0.1666667  -0.5000000   0.5656854), wk =   0.0019753
        k(  441) = (   0.1666667  -0.5000000   0.6222539), wk =   0.0019753
        k(  442) = (   0.1666667  -0.5000000   0.6788225), wk =   0.0019753
        k(  443) = (   0.2222222   0.2222222   0.0000000), wk =   0.0009877
        k(  444) = (   0.2222222   0.2222222   0.0565685), wk =   0.0019753
        k(  445) = (   0.2222222   0.2222222   0.1131371), wk =   0.0019753
        k(  446) = (   0.2222222   0.2222222   0.1697056), wk =   0.0019753
        k(  447) = (   0.2222222   0.2222222   0.2262742), wk =   0.0019753
        k(  448) = (   0.2222222   0.2222222   0.2828427), wk =   0.0019753
        k(  449) = (   0.2222222   0.2222222   0.3394112), wk =   0.0019753
        k(  450) = (   0.2222222   0.2222222   0.3959798), wk =   0.0019753
        k(  451) = (   0.2222222   0.2222222   0.4525483), wk =   0.0019753
        k(  452) = (   0.2222222   0.2222222   0.5091168), wk =   0.0019753
        k(  453) = (   0.2222222   0.2222222   0.5656854), wk =   0.0019753
        k(  454) = (   0.2222222   0.2222222   0.6222539), wk =   0.0019753
        k(  455) = (   0.2222222   0.2222222   0.6788225), wk =   0.0019753
        k(  456) = (   0.2222222   0.2777778   0.0000000), wk =   0.0019753
        k(  457) = (   0.2222222   0.2777778   0.0565685), wk =   0.0039506
        k(  458) = (   0.2222222   0.2777778   0.1131371), wk =   0.0039506
        k(  459) = (   0.2222222   0.2777778   0.1697056), wk =   0.0039506
        k(  460) = (   0.2222222   0.2777778   0.2262742), wk =   0.0039506
        k(  461) = (   0.2222222   0.2777778   0.2828427), wk =   0.0039506
        k(  462) = (   0.2222222   0.2777778   0.3394112), wk =   0.0039506
        k(  463) = (   0.2222222   0.2777778   0.3959798), wk =   0.0039506
        k(  464) = (   0.2222222   0.2777778   0.4525483), wk =   0.0039506
        k(  465) = (   0.2222222   0.2777778   0.5091168), wk =   0.0039506
        k(  466) = (   0.2222222   0.2777778   0.5656854), wk =   0.0039506
        k(  467) = (   0.2222222   0.2777778   0.6222539), wk =   0.0039506
        k(  468) = (   0.2222222   0.2777778   0.6788225), wk =   0.0039506
        k(  469) = (   0.2222222   0.3333333   0.0000000), wk =   0.0019753
        k(  470) = (   0.2222222   0.3333333   0.0565685), wk =   0.0039506
        k(  471) = (   0.2222222   0.3333333   0.1131371), wk =   0.0039506
        k(  472) = (   0.2222222   0.3333333   0.1697056), wk =   0.0039506
        k(  473) = (   0.2222222   0.3333333   0.2262742), wk =   0.0039506
        k(  474) = (   0.2222222   0.3333333   0.2828427), wk =   0.0039506
        k(  475) = (   0.2222222   0.3333333   0.3394112), wk =   0.0039506
        k(  476) = (   0.2222222   0.3333333   0.3959798), wk =   0.0039506
        k(  477) = (   0.2222222   0.3333333   0.4525483), wk =   0.0039506
        k(  478) = (   0.2222222   0.3333333   0.5091168), wk =   0.0039506
        k(  479) = (   0.2222222   0.3333333   0.5656854), wk =   0.0039506
        k(  480) = (   0.2222222   0.3333333   0.6222539), wk =   0.0039506
        k(  481) = (   0.2222222   0.3333333   0.6788225), wk =   0.0039506
        k(  482) = (   0.2222222   0.3888889   0.0000000), wk =   0.0019753
        k(  483) = (   0.2222222   0.3888889   0.0565685), wk =   0.0039506
        k(  484) = (   0.2222222   0.3888889   0.1131371), wk =   0.0039506
        k(  485) = (   0.2222222   0.3888889   0.1697056), wk =   0.0039506
        k(  486) = (   0.2222222   0.3888889   0.2262742), wk =   0.0039506
        k(  487) = (   0.2222222   0.3888889   0.2828427), wk =   0.0039506
        k(  488) = (   0.2222222   0.3888889   0.3394112), wk =   0.0039506
        k(  489) = (   0.2222222   0.3888889   0.3959798), wk =   0.0039506
        k(  490) = (   0.2222222   0.3888889   0.4525483), wk =   0.0039506
        k(  491) = (   0.2222222   0.3888889   0.5091168), wk =   0.0039506
        k(  492) = (   0.2222222   0.3888889   0.5656854), wk =   0.0039506
        k(  493) = (   0.2222222   0.3888889   0.6222539), wk =   0.0039506
        k(  494) = (   0.2222222   0.3888889   0.6788225), wk =   0.0039506
        k(  495) = (   0.2222222   0.4444444   0.0000000), wk =   0.0019753
        k(  496) = (   0.2222222   0.4444444   0.0565685), wk =   0.0039506
        k(  497) = (   0.2222222   0.4444444   0.1131371), wk =   0.0039506
        k(  498) = (   0.2222222   0.4444444   0.1697056), wk =   0.0039506
        k(  499) = (   0.2222222   0.4444444   0.2262742), wk =   0.0039506
        k(  500) = (   0.2222222   0.4444444   0.2828427), wk =   0.0039506
        k(  501) = (   0.2222222   0.4444444   0.3394112), wk =   0.0039506
        k(  502) = (   0.2222222   0.4444444   0.3959798), wk =   0.0039506
        k(  503) = (   0.2222222   0.4444444   0.4525483), wk =   0.0039506
        k(  504) = (   0.2222222   0.4444444   0.5091168), wk =   0.0039506
        k(  505) = (   0.2222222   0.4444444   0.5656854), wk =   0.0039506
        k(  506) = (   0.2222222   0.4444444   0.6222539), wk =   0.0039506
        k(  507) = (   0.2222222   0.4444444   0.6788225), wk =   0.0039506
        k(  508) = (   0.2222222  -0.5000000   0.0000000), wk =   0.0009877
        k(  509) = (   0.2222222  -0.5000000   0.0565685), wk =   0.0019753
        k(  510) = (   0.2222222  -0.5000000   0.1131371), wk =   0.0019753
        k(  511) = (   0.2222222  -0.5000000   0.1697056), wk =   0.0019753
        k(  512) = (   0.2222222  -0.5000000   0.2262742), wk =   0.0019753
        k(  513) = (   0.2222222  -0.5000000   0.2828427), wk =   0.0019753
        k(  514) = (   0.2222222  -0.5000000   0.3394112), wk =   0.0019753
        k(  515) = (   0.2222222  -0.5000000   0.3959798), wk =   0.0019753
        k(  516) = (   0.2222222  -0.5000000   0.4525483), wk =   0.0019753
        k(  517) = (   0.2222222  -0.5000000   0.5091168), wk =   0.0019753
        k(  518) = (   0.2222222  -0.5000000   0.5656854), wk =   0.0019753
        k(  519) = (   0.2222222  -0.5000000   0.6222539), wk =   0.0019753
        k(  520) = (   0.2222222  -0.5000000   0.6788225), wk =   0.0019753
        k(  521) = (   0.2777778   0.2777778   0.0000000), wk =   0.0009877
        k(  522) = (   0.2777778   0.2777778   0.0565685), wk =   0.0019753
        k(  523) = (   0.2777778   0.2777778   0.1131371), wk =   0.0019753
        k(  524) = (   0.2777778   0.2777778   0.1697056), wk =   0.0019753
        k(  525) = (   0.2777778   0.2777778   0.2262742), wk =   0.0019753
        k(  526) = (   0.2777778   0.2777778   0.2828427), wk =   0.0019753
        k(  527) = (   0.2777778   0.2777778   0.3394112), wk =   0.0019753
        k(  528) = (   0.2777778   0.2777778   0.3959798), wk =   0.0019753
        k(  529) = (   0.2777778   0.2777778   0.4525483), wk =   0.0019753
        k(  530) = (   0.2777778   0.2777778   0.5091168), wk =   0.0019753
        k(  531) = (   0.2777778   0.2777778   0.5656854), wk =   0.0019753
        k(  532) = (   0.2777778   0.2777778   0.6222539), wk =   0.0019753
        k(  533) = (   0.2777778   0.2777778   0.6788225), wk =   0.0019753
        k(  534) = (   0.2777778   0.3333333   0.0000000), wk =   0.0019753
        k(  535) = (   0.2777778   0.3333333   0.0565685), wk =   0.0039506
        k(  536) = (   0.2777778   0.3333333   0.1131371), wk =   0.0039506
        k(  537) = (   0.2777778   0.3333333   0.1697056), wk =   0.0039506
        k(  538) = (   0.2777778   0.3333333   0.2262742), wk =   0.0039506
        k(  539) = (   0.2777778   0.3333333   0.2828427), wk =   0.0039506
        k(  540) = (   0.2777778   0.3333333   0.3394112), wk =   0.0039506
        k(  541) = (   0.2777778   0.3333333   0.3959798), wk =   0.0039506
        k(  542) = (   0.2777778   0.3333333   0.4525483), wk =   0.0039506
        k(  543) = (   0.2777778   0.3333333   0.5091168), wk =   0.0039506
        k(  544) = (   0.2777778   0.3333333   0.5656854), wk =   0.0039506
        k(  545) = (   0.2777778   0.3333333   0.6222539), wk =   0.0039506
        k(  546) = (   0.2777778   0.3333333   0.6788225), wk =   0.0039506
        k(  547) = (   0.2777778   0.3888889   0.0000000), wk =   0.0019753
        k(  548) = (   0.2777778   0.3888889   0.0565685), wk =   0.0039506
        k(  549) = (   0.2777778   0.3888889   0.1131371), wk =   0.0039506
        k(  550) = (   0.2777778   0.3888889   0.1697056), wk =   0.0039506
        k(  551) = (   0.2777778   0.3888889   0.2262742), wk =   0.0039506
        k(  552) = (   0.2777778   0.3888889   0.2828427), wk =   0.0039506
        k(  553) = (   0.2777778   0.3888889   0.3394112), wk =   0.0039506
        k(  554) = (   0.2777778   0.3888889   0.3959798), wk =   0.0039506
        k(  555) = (   0.2777778   0.3888889   0.4525483), wk =   0.0039506
        k(  556) = (   0.2777778   0.3888889   0.5091168), wk =   0.0039506
        k(  557) = (   0.2777778   0.3888889   0.5656854), wk =   0.0039506
        k(  558) = (   0.2777778   0.3888889   0.6222539), wk =   0.0039506
        k(  559) = (   0.2777778   0.3888889   0.6788225), wk =   0.0039506
        k(  560) = (   0.2777778   0.4444444   0.0000000), wk =   0.0019753
        k(  561) = (   0.2777778   0.4444444   0.0565685), wk =   0.0039506
        k(  562) = (   0.2777778   0.4444444   0.1131371), wk =   0.0039506
        k(  563) = (   0.2777778   0.4444444   0.1697056), wk =   0.0039506
        k(  564) = (   0.2777778   0.4444444   0.2262742), wk =   0.0039506
        k(  565) = (   0.2777778   0.4444444   0.2828427), wk =   0.0039506
        k(  566) = (   0.2777778   0.4444444   0.3394112), wk =   0.0039506
        k(  567) = (   0.2777778   0.4444444   0.3959798), wk =   0.0039506
        k(  568) = (   0.2777778   0.4444444   0.4525483), wk =   0.0039506
        k(  569) = (   0.2777778   0.4444444   0.5091168), wk =   0.0039506
        k(  570) = (   0.2777778   0.4444444   0.5656854), wk =   0.0039506
        k(  571) = (   0.2777778   0.4444444   0.6222539), wk =   0.0039506
        k(  572) = (   0.2777778   0.4444444   0.6788225), wk =   0.0039506
        k(  573) = (   0.2777778  -0.5000000   0.0000000), wk =   0.0009877
        k(  574) = (   0.2777778  -0.5000000   0.0565685), wk =   0.0019753
        k(  575) = (   0.2777778  -0.5000000   0.1131371), wk =   0.0019753
        k(  576) = (   0.2777778  -0.5000000   0.1697056), wk =   0.0019753
        k(  577) = (   0.2777778  -0.5000000   0.2262742), wk =   0.0019753
        k(  578) = (   0.2777778  -0.5000000   0.2828427), wk =   0.0019753
        k(  579) = (   0.2777778  -0.5000000   0.3394112), wk =   0.0019753
        k(  580) = (   0.2777778  -0.5000000   0.3959798), wk =   0.0019753
        k(  581) = (   0.2777778  -0.5000000   0.4525483), wk =   0.0019753
        k(  582) = (   0.2777778  -0.5000000   0.5091168), wk =   0.0019753
        k(  583) = (   0.2777778  -0.5000000   0.5656854), wk =   0.0019753
        k(  584) = (   0.2777778  -0.5000000   0.6222539), wk =   0.0019753
        k(  585) = (   0.2777778  -0.5000000   0.6788225), wk =   0.0019753
        k(  586) = (   0.3333333   0.3333333   0.0000000), wk =   0.0009877
        k(  587) = (   0.3333333   0.3333333   0.0565685), wk =   0.0019753
        k(  588) = (   0.3333333   0.3333333   0.1131371), wk =   0.0019753
        k(  589) = (   0.3333333   0.3333333   0.1697056), wk =   0.0019753
        k(  590) = (   0.3333333   0.3333333   0.2262742), wk =   0.0019753
        k(  591) = (   0.3333333   0.3333333   0.2828427), wk =   0.0019753
        k(  592) = (   0.3333333   0.3333333   0.3394112), wk =   0.0019753
        k(  593) = (   0.3333333   0.3333333   0.3959798), wk =   0.0019753
        k(  594) = (   0.3333333   0.3333333   0.4525483), wk =   0.0019753
        k(  595) = (   0.3333333   0.3333333   0.5091168), wk =   0.0019753
        k(  596) = (   0.3333333   0.3333333   0.5656854), wk =   0.0019753
        k(  597) = (   0.3333333   0.3333333   0.6222539), wk =   0.0019753
        k(  598) = (   0.3333333   0.3333333   0.6788225), wk =   0.0019753
        k(  599) = (   0.3333333   0.3888889   0.0000000), wk =   0.0019753
        k(  600) = (   0.3333333   0.3888889   0.0565685), wk =   0.0039506
        k(  601) = (   0.3333333   0.3888889   0.1131371), wk =   0.0039506
        k(  602) = (   0.3333333   0.3888889   0.1697056), wk =   0.0039506
        k(  603) = (   0.3333333   0.3888889   0.2262742), wk =   0.0039506
        k(  604) = (   0.3333333   0.3888889   0.2828427), wk =   0.0039506
        k(  605) = (   0.3333333   0.3888889   0.3394112), wk =   0.0039506
        k(  606) = (   0.3333333   0.3888889   0.3959798), wk =   0.0039506
        k(  607) = (   0.3333333   0.3888889   0.4525483), wk =   0.0039506
        k(  608) = (   0.3333333   0.3888889   0.5091168), wk =   0.0039506
        k(  609) = (   0.3333333   0.3888889   0.5656854), wk =   0.0039506
        k(  610) = (   0.3333333   0.3888889   0.6222539), wk =   0.0039506
        k(  611) = (   0.3333333   0.3888889   0.6788225), wk =   0.0039506
        k(  612) = (   0.3333333   0.4444444   0.0000000), wk =   0.0019753
        k(  613) = (   0.3333333   0.4444444   0.0565685), wk =   0.0039506
        k(  614) = (   0.3333333   0.4444444   0.1131371), wk =   0.0039506
        k(  615) = (   0.3333333   0.4444444   0.1697056), wk =   0.0039506
        k(  616) = (   0.3333333   0.4444444   0.2262742), wk =   0.0039506
        k(  617) = (   0.3333333   0.4444444   0.2828427), wk =   0.0039506
        k(  618) = (   0.3333333   0.4444444   0.3394112), wk =   0.0039506
        k(  619) = (   0.3333333   0.4444444   0.3959798), wk =   0.0039506
        k(  620) = (   0.3333333   0.4444444   0.4525483), wk =   0.0039506
        k(  621) = (   0.3333333   0.4444444   0.5091168), wk =   0.0039506
        k(  622) = (   0.3333333   0.4444444   0.5656854), wk =   0.0039506
        k(  623) = (   0.3333333   0.4444444   0.6222539), wk =   0.0039506
        k(  624) = (   0.3333333   0.4444444   0.6788225), wk =   0.0039506
        k(  625) = (   0.3333333  -0.5000000   0.0000000), wk =   0.0009877
        k(  626) = (   0.3333333  -0.5000000   0.0565685), wk =   0.0019753
        k(  627) = (   0.3333333  -0.5000000   0.1131371), wk =   0.0019753
        k(  628) = (   0.3333333  -0.5000000   0.1697056), wk =   0.0019753
        k(  629) = (   0.3333333  -0.5000000   0.2262742), wk =   0.0019753
        k(  630) = (   0.3333333  -0.5000000   0.2828427), wk =   0.0019753
        k(  631) = (   0.3333333  -0.5000000   0.3394112), wk =   0.0019753
        k(  632) = (   0.3333333  -0.5000000   0.3959798), wk =   0.0019753
        k(  633) = (   0.3333333  -0.5000000   0.4525483), wk =   0.0019753
        k(  634) = (   0.3333333  -0.5000000   0.5091168), wk =   0.0019753
        k(  635) = (   0.3333333  -0.5000000   0.5656854), wk =   0.0019753
        k(  636) = (   0.3333333  -0.5000000   0.6222539), wk =   0.0019753
        k(  637) = (   0.3333333  -0.5000000   0.6788225), wk =   0.0019753
        k(  638) = (   0.3888889   0.3888889   0.0000000), wk =   0.0009877
        k(  639) = (   0.3888889   0.3888889   0.0565685), wk =   0.0019753
        k(  640) = (   0.3888889   0.3888889   0.1131371), wk =   0.0019753
        k(  641) = (   0.3888889   0.3888889   0.1697056), wk =   0.0019753
        k(  642) = (   0.3888889   0.3888889   0.2262742), wk =   0.0019753
        k(  643) = (   0.3888889   0.3888889   0.2828427), wk =   0.0019753
        k(  644) = (   0.3888889   0.3888889   0.3394112), wk =   0.0019753
        k(  645) = (   0.3888889   0.3888889   0.3959798), wk =   0.0019753
        k(  646) = (   0.3888889   0.3888889   0.4525483), wk =   0.0019753
        k(  647) = (   0.3888889   0.3888889   0.5091168), wk =   0.0019753
        k(  648) = (   0.3888889   0.3888889   0.5656854), wk =   0.0019753
        k(  649) = (   0.3888889   0.3888889   0.6222539), wk =   0.0019753
        k(  650) = (   0.3888889   0.3888889   0.6788225), wk =   0.0019753
        k(  651) = (   0.3888889   0.4444444   0.0000000), wk =   0.0019753
        k(  652) = (   0.3888889   0.4444444   0.0565685), wk =   0.0039506
        k(  653) = (   0.3888889   0.4444444   0.1131371), wk =   0.0039506
        k(  654) = (   0.3888889   0.4444444   0.1697056), wk =   0.0039506
        k(  655) = (   0.3888889   0.4444444   0.2262742), wk =   0.0039506
        k(  656) = (   0.3888889   0.4444444   0.2828427), wk =   0.0039506
        k(  657) = (   0.3888889   0.4444444   0.3394112), wk =   0.0039506
        k(  658) = (   0.3888889   0.4444444   0.3959798), wk =   0.0039506
        k(  659) = (   0.3888889   0.4444444   0.4525483), wk =   0.0039506
        k(  660) = (   0.3888889   0.4444444   0.5091168), wk =   0.0039506
        k(  661) = (   0.3888889   0.4444444   0.5656854), wk =   0.0039506
        k(  662) = (   0.3888889   0.4444444   0.6222539), wk =   0.0039506
        k(  663) = (   0.3888889   0.4444444   0.6788225), wk =   0.0039506
        k(  664) = (   0.3888889  -0.5000000   0.0000000), wk =   0.0009877
        k(  665) = (   0.3888889  -0.5000000   0.0565685), wk =   0.0019753
        k(  666) = (   0.3888889  -0.5000000   0.1131371), wk =   0.0019753
        k(  667) = (   0.3888889  -0.5000000   0.1697056), wk =   0.0019753
        k(  668) = (   0.3888889  -0.5000000   0.2262742), wk =   0.0019753
        k(  669) = (   0.3888889  -0.5000000   0.2828427), wk =   0.0019753
        k(  670) = (   0.3888889  -0.5000000   0.3394112), wk =   0.0019753
        k(  671) = (   0.3888889  -0.5000000   0.3959798), wk =   0.0019753
        k(  672) = (   0.3888889  -0.5000000   0.4525483), wk =   0.0019753
        k(  673) = (   0.3888889  -0.5000000   0.5091168), wk =   0.0019753
        k(  674) = (   0.3888889  -0.5000000   0.5656854), wk =   0.0019753
        k(  675) = (   0.3888889  -0.5000000   0.6222539), wk =   0.0019753
        k(  676) = (   0.3888889  -0.5000000   0.6788225), wk =   0.0019753
        k(  677) = (   0.4444444   0.4444444   0.0000000), wk =   0.0009877
        k(  678) = (   0.4444444   0.4444444   0.0565685), wk =   0.0019753
        k(  679) = (   0.4444444   0.4444444   0.1131371), wk =   0.0019753
        k(  680) = (   0.4444444   0.4444444   0.1697056), wk =   0.0019753
        k(  681) = (   0.4444444   0.4444444   0.2262742), wk =   0.0019753
        k(  682) = (   0.4444444   0.4444444   0.2828427), wk =   0.0019753
        k(  683) = (   0.4444444   0.4444444   0.3394112), wk =   0.0019753
        k(  684) = (   0.4444444   0.4444444   0.3959798), wk =   0.0019753
        k(  685) = (   0.4444444   0.4444444   0.4525483), wk =   0.0019753
        k(  686) = (   0.4444444   0.4444444   0.5091168), wk =   0.0019753
        k(  687) = (   0.4444444   0.4444444   0.5656854), wk =   0.0019753
        k(  688) = (   0.4444444   0.4444444   0.6222539), wk =   0.0019753
        k(  689) = (   0.4444444   0.4444444   0.6788225), wk =   0.0019753
        k(  690) = (   0.4444444  -0.5000000   0.0000000), wk =   0.0009877
        k(  691) = (   0.4444444  -0.5000000   0.0565685), wk =   0.0019753
        k(  692) = (   0.4444444  -0.5000000   0.1131371), wk =   0.0019753
        k(  693) = (   0.4444444  -0.5000000   0.1697056), wk =   0.0019753
        k(  694) = (   0.4444444  -0.5000000   0.2262742), wk =   0.0019753
        k(  695) = (   0.4444444  -0.5000000   0.2828427), wk =   0.0019753
        k(  696) = (   0.4444444  -0.5000000   0.3394112), wk =   0.0019753
        k(  697) = (   0.4444444  -0.5000000   0.3959798), wk =   0.0019753
        k(  698) = (   0.4444444  -0.5000000   0.4525483), wk =   0.0019753
        k(  699) = (   0.4444444  -0.5000000   0.5091168), wk =   0.0019753
        k(  700) = (   0.4444444  -0.5000000   0.5656854), wk =   0.0019753
        k(  701) = (   0.4444444  -0.5000000   0.6222539), wk =   0.0019753
        k(  702) = (   0.4444444  -0.5000000   0.6788225), wk =   0.0019753
        k(  703) = (  -0.5000000  -0.5000000   0.0000000), wk =   0.0002469
        k(  704) = (  -0.5000000  -0.5000000   0.0565685), wk =   0.0004938
        k(  705) = (  -0.5000000  -0.5000000   0.1131371), wk =   0.0004938
        k(  706) = (  -0.5000000  -0.5000000   0.1697056), wk =   0.0004938
        k(  707) = (  -0.5000000  -0.5000000   0.2262742), wk =   0.0004938
        k(  708) = (  -0.5000000  -0.5000000   0.2828427), wk =   0.0004938
        k(  709) = (  -0.5000000  -0.5000000   0.3394112), wk =   0.0004938
        k(  710) = (  -0.5000000  -0.5000000   0.3959798), wk =   0.0004938
        k(  711) = (  -0.5000000  -0.5000000   0.4525483), wk =   0.0004938
        k(  712) = (  -0.5000000  -0.5000000   0.5091168), wk =   0.0004938
        k(  713) = (  -0.5000000  -0.5000000   0.5656854), wk =   0.0004938
        k(  714) = (  -0.5000000  -0.5000000   0.6222539), wk =   0.0004938
        k(  715) = (  -0.5000000  -0.5000000   0.6788225), wk =   0.0004938

                       cryst. coord.
        k(    1) = (   0.0000000   0.0000000   0.0000000), wk =   0.0002469
        k(    2) = (   0.0000000   0.0000000   0.0400000), wk =   0.0004938
        k(    3) = (   0.0000000   0.0000000   0.0800000), wk =   0.0004938
        k(    4) = (   0.0000000   0.0000000   0.1200000), wk =   0.0004938
        k(    5) = (   0.0000000   0.0000000   0.1600000), wk =   0.0004938
        k(    6) = (   0.0000000   0.0000000   0.2000000), wk =   0.0004938
        k(    7) = (   0.0000000   0.0000000   0.2400000), wk =   0.0004938
        k(    8) = (   0.0000000   0.0000000   0.2800000), wk =   0.0004938
        k(    9) = (   0.0000000   0.0000000   0.3200000), wk =   0.0004938
        k(   10) = (   0.0000000   0.0000000   0.3600000), wk =   0.0004938
        k(   11) = (   0.0000000   0.0000000   0.4000000), wk =   0.0004938
        k(   12) = (   0.0000000   0.0000000   0.4400000), wk =   0.0004938
        k(   13) = (   0.0000000   0.0000000   0.4800000), wk =   0.0004938
        k(   14) = (   0.0000000   0.0555556   0.0000000), wk =   0.0009877
        k(   15) = (   0.0000000   0.0555556   0.0400000), wk =   0.0019753
        k(   16) = (   0.0000000   0.0555556   0.0800000), wk =   0.0019753
        k(   17) = (   0.0000000   0.0555556   0.1200000), wk =   0.0019753
        k(   18) = (   0.0000000   0.0555556   0.1600000), wk =   0.0019753
        k(   19) = (   0.0000000   0.0555556   0.2000000), wk =   0.0019753
        k(   20) = (   0.0000000   0.0555556   0.2400000), wk =   0.0019753
        k(   21) = (   0.0000000   0.0555556   0.2800000), wk =   0.0019753
        k(   22) = (   0.0000000   0.0555556   0.3200000), wk =   0.0019753
        k(   23) = (   0.0000000   0.0555556   0.3600000), wk =   0.0019753
        k(   24) = (   0.0000000   0.0555556   0.4000000), wk =   0.0019753
        k(   25) = (   0.0000000   0.0555556   0.4400000), wk =   0.0019753
        k(   26) = (   0.0000000   0.0555556   0.4800000), wk =   0.0019753
        k(   27) = (   0.0000000   0.1111111   0.0000000), wk =   0.0009877
        k(   28) = (   0.0000000   0.1111111   0.0400000), wk =   0.0019753
        k(   29) = (   0.0000000   0.1111111   0.0800000), wk =   0.0019753
        k(   30) = (   0.0000000   0.1111111   0.1200000), wk =   0.0019753
        k(   31) = (   0.0000000   0.1111111   0.1600000), wk =   0.0019753
        k(   32) = (   0.0000000   0.1111111   0.2000000), wk =   0.0019753
        k(   33) = (   0.0000000   0.1111111   0.2400000), wk =   0.0019753
        k(   34) = (   0.0000000   0.1111111   0.2800000), wk =   0.0019753
        k(   35) = (   0.0000000   0.1111111   0.3200000), wk =   0.0019753
        k(   36) = (   0.0000000   0.1111111   0.3600000), wk =   0.0019753
        k(   37) = (   0.0000000   0.1111111   0.4000000), wk =   0.0019753
        k(   38) = (   0.0000000   0.1111111   0.4400000), wk =   0.0019753
        k(   39) = (   0.0000000   0.1111111   0.4800000), wk =   0.0019753
        k(   40) = (   0.0000000   0.1666667   0.0000000), wk =   0.0009877
        k(   41) = (   0.0000000   0.1666667   0.0400000), wk =   0.0019753
        k(   42) = (   0.0000000   0.1666667   0.0800000), wk =   0.0019753
        k(   43) = (   0.0000000   0.1666667   0.1200000), wk =   0.0019753
        k(   44) = (   0.0000000   0.1666667   0.1600000), wk =   0.0019753
        k(   45) = (   0.0000000   0.1666667   0.2000000), wk =   0.0019753
        k(   46) = (   0.0000000   0.1666667   0.2400000), wk =   0.0019753
        k(   47) = (   0.0000000   0.1666667   0.2800000), wk =   0.0019753
        k(   48) = (   0.0000000   0.1666667   0.3200000), wk =   0.0019753
        k(   49) = (   0.0000000   0.1666667   0.3600000), wk =   0.0019753
        k(   50) = (   0.0000000   0.1666667   0.4000000), wk =   0.0019753
        k(   51) = (   0.0000000   0.1666667   0.4400000), wk =   0.0019753
        k(   52) = (   0.0000000   0.1666667   0.4800000), wk =   0.0019753
        k(   53) = (   0.0000000   0.2222222   0.0000000), wk =   0.0009877
        k(   54) = (   0.0000000   0.2222222   0.0400000), wk =   0.0019753
        k(   55) = (   0.0000000   0.2222222   0.0800000), wk =   0.0019753
        k(   56) = (   0.0000000   0.2222222   0.1200000), wk =   0.0019753
        k(   57) = (   0.0000000   0.2222222   0.1600000), wk =   0.0019753
        k(   58) = (   0.0000000   0.2222222   0.2000000), wk =   0.0019753
        k(   59) = (   0.0000000   0.2222222   0.2400000), wk =   0.0019753
        k(   60) = (   0.0000000   0.2222222   0.2800000), wk =   0.0019753
        k(   61) = (   0.0000000   0.2222222   0.3200000), wk =   0.0019753
        k(   62) = (   0.0000000   0.2222222   0.3600000), wk =   0.0019753
        k(   63) = (   0.0000000   0.2222222   0.4000000), wk =   0.0019753
        k(   64) = (   0.0000000   0.2222222   0.4400000), wk =   0.0019753
        k(   65) = (   0.0000000   0.2222222   0.4800000), wk =   0.0019753
        k(   66) = (   0.0000000   0.2777778   0.0000000), wk =   0.0009877
        k(   67) = (   0.0000000   0.2777778   0.0400000), wk =   0.0019753
        k(   68) = (   0.0000000   0.2777778   0.0800000), wk =   0.0019753
        k(   69) = (   0.0000000   0.2777778   0.1200000), wk =   0.0019753
        k(   70) = (   0.0000000   0.2777778   0.1600000), wk =   0.0019753
        k(   71) = (   0.0000000   0.2777778   0.2000000), wk =   0.0019753
        k(   72) = (   0.0000000   0.2777778   0.2400000), wk =   0.0019753
        k(   73) = (   0.0000000   0.2777778   0.2800000), wk =   0.0019753
        k(   74) = (   0.0000000   0.2777778   0.3200000), wk =   0.0019753
        k(   75) = (   0.0000000   0.2777778   0.3600000), wk =   0.0019753
        k(   76) = (   0.0000000   0.2777778   0.4000000), wk =   0.0019753
        k(   77) = (   0.0000000   0.2777778   0.4400000), wk =   0.0019753
        k(   78) = (   0.0000000   0.2777778   0.4800000), wk =   0.0019753
        k(   79) = (   0.0000000   0.3333333   0.0000000), wk =   0.0009877
        k(   80) = (   0.0000000   0.3333333   0.0400000), wk =   0.0019753
        k(   81) = (   0.0000000   0.3333333   0.0800000), wk =   0.0019753
        k(   82) = (   0.0000000   0.3333333   0.1200000), wk =   0.0019753
        k(   83) = (   0.0000000   0.3333333   0.1600000), wk =   0.0019753
        k(   84) = (   0.0000000   0.3333333   0.2000000), wk =   0.0019753
        k(   85) = (   0.0000000   0.3333333   0.2400000), wk =   0.0019753
        k(   86) = (   0.0000000   0.3333333   0.2800000), wk =   0.0019753
        k(   87) = (   0.0000000   0.3333333   0.3200000), wk =   0.0019753
        k(   88) = (   0.0000000   0.3333333   0.3600000), wk =   0.0019753
        k(   89) = (   0.0000000   0.3333333   0.4000000), wk =   0.0019753
        k(   90) = (   0.0000000   0.3333333   0.4400000), wk =   0.0019753
        k(   91) = (   0.0000000   0.3333333   0.4800000), wk =   0.0019753
        k(   92) = (   0.0000000   0.3888889   0.0000000), wk =   0.0009877
        k(   93) = (   0.0000000   0.3888889   0.0400000), wk =   0.0019753
        k(   94) = (   0.0000000   0.3888889   0.0800000), wk =   0.0019753
        k(   95) = (   0.0000000   0.3888889   0.1200000), wk =   0.0019753
        k(   96) = (   0.0000000   0.3888889   0.1600000), wk =   0.0019753
        k(   97) = (   0.0000000   0.3888889   0.2000000), wk =   0.0019753
        k(   98) = (   0.0000000   0.3888889   0.2400000), wk =   0.0019753
        k(   99) = (   0.0000000   0.3888889   0.2800000), wk =   0.0019753
        k(  100) = (   0.0000000   0.3888889   0.3200000), wk =   0.0019753
        k(  101) = (   0.0000000   0.3888889   0.3600000), wk =   0.0019753
        k(  102) = (   0.0000000   0.3888889   0.4000000), wk =   0.0019753
        k(  103) = (   0.0000000   0.3888889   0.4400000), wk =   0.0019753
        k(  104) = (   0.0000000   0.3888889   0.4800000), wk =   0.0019753
        k(  105) = (   0.0000000   0.4444444   0.0000000), wk =   0.0009877
        k(  106) = (   0.0000000   0.4444444   0.0400000), wk =   0.0019753
        k(  107) = (   0.0000000   0.4444444   0.0800000), wk =   0.0019753
        k(  108) = (   0.0000000   0.4444444   0.1200000), wk =   0.0019753
        k(  109) = (   0.0000000   0.4444444   0.1600000), wk =   0.0019753
        k(  110) = (   0.0000000   0.4444444   0.2000000), wk =   0.0019753
        k(  111) = (   0.0000000   0.4444444   0.2400000), wk =   0.0019753
        k(  112) = (   0.0000000   0.4444444   0.2800000), wk =   0.0019753
        k(  113) = (   0.0000000   0.4444444   0.3200000), wk =   0.0019753
        k(  114) = (   0.0000000   0.4444444   0.3600000), wk =   0.0019753
        k(  115) = (   0.0000000   0.4444444   0.4000000), wk =   0.0019753
        k(  116) = (   0.0000000   0.4444444   0.4400000), wk =   0.0019753
        k(  117) = (   0.0000000   0.4444444   0.4800000), wk =   0.0019753
        k(  118) = (   0.0000000  -0.5000000   0.0000000), wk =   0.0004938
        k(  119) = (   0.0000000  -0.5000000   0.0400000), wk =   0.0009877
        k(  120) = (   0.0000000  -0.5000000   0.0800000), wk =   0.0009877
        k(  121) = (   0.0000000  -0.5000000   0.1200000), wk =   0.0009877
        k(  122) = (   0.0000000  -0.5000000   0.1600000), wk =   0.0009877
        k(  123) = (   0.0000000  -0.5000000   0.2000000), wk =   0.0009877
        k(  124) = (   0.0000000  -0.5000000   0.2400000), wk =   0.0009877
        k(  125) = (   0.0000000  -0.5000000   0.2800000), wk =   0.0009877
        k(  126) = (   0.0000000  -0.5000000   0.3200000), wk =   0.0009877
        k(  127) = (   0.0000000  -0.5000000   0.3600000), wk =   0.0009877
        k(  128) = (   0.0000000  -0.5000000   0.4000000), wk =   0.0009877
        k(  129) = (   0.0000000  -0.5000000   0.4400000), wk =   0.0009877
        k(  130) = (   0.0000000  -0.5000000   0.4800000), wk =   0.0009877
        k(  131) = (   0.0555556   0.0555556   0.0000000), wk =   0.0009877
        k(  132) = (   0.0555556   0.0555556   0.0400000), wk =   0.0019753
        k(  133) = (   0.0555556   0.0555556   0.0800000), wk =   0.0019753
        k(  134) = (   0.0555556   0.0555556   0.1200000), wk =   0.0019753
        k(  135) = (   0.0555556   0.0555556   0.1600000), wk =   0.0019753
        k(  136) = (   0.0555556   0.0555556   0.2000000), wk =   0.0019753
        k(  137) = (   0.0555556   0.0555556   0.2400000), wk =   0.0019753
        k(  138) = (   0.0555556   0.0555556   0.2800000), wk =   0.0019753
        k(  139) = (   0.0555556   0.0555556   0.3200000), wk =   0.0019753
        k(  140) = (   0.0555556   0.0555556   0.3600000), wk =   0.0019753
        k(  141) = (   0.0555556   0.0555556   0.4000000), wk =   0.0019753
        k(  142) = (   0.0555556   0.0555556   0.4400000), wk =   0.0019753
        k(  143) = (   0.0555556   0.0555556   0.4800000), wk =   0.0019753
        k(  144) = (   0.0555556   0.1111111   0.0000000), wk =   0.0019753
        k(  145) = (   0.0555556   0.1111111   0.0400000), wk =   0.0039506
        k(  146) = (   0.0555556   0.1111111   0.0800000), wk =   0.0039506
        k(  147) = (   0.0555556   0.1111111   0.1200000), wk =   0.0039506
        k(  148) = (   0.0555556   0.1111111   0.1600000), wk =   0.0039506
        k(  149) = (   0.0555556   0.1111111   0.2000000), wk =   0.0039506
        k(  150) = (   0.0555556   0.1111111   0.2400000), wk =   0.0039506
        k(  151) = (   0.0555556   0.1111111   0.2800000), wk =   0.0039506
        k(  152) = (   0.0555556   0.1111111   0.3200000), wk =   0.0039506
        k(  153) = (   0.0555556   0.1111111   0.3600000), wk =   0.0039506
        k(  154) = (   0.0555556   0.1111111   0.4000000), wk =   0.0039506
        k(  155) = (   0.0555556   0.1111111   0.4400000), wk =   0.0039506
        k(  156) = (   0.0555556   0.1111111   0.4800000), wk =   0.0039506
        k(  157) = (   0.0555556   0.1666667   0.0000000), wk =   0.0019753
        k(  158) = (   0.0555556   0.1666667   0.0400000), wk =   0.0039506
        k(  159) = (   0.0555556   0.1666667   0.0800000), wk =   0.0039506
        k(  160) = (   0.0555556   0.1666667   0.1200000), wk =   0.0039506
        k(  161) = (   0.0555556   0.1666667   0.1600000), wk =   0.0039506
        k(  162) = (   0.0555556   0.1666667   0.2000000), wk =   0.0039506
        k(  163) = (   0.0555556   0.1666667   0.2400000), wk =   0.0039506
        k(  164) = (   0.0555556   0.1666667   0.2800000), wk =   0.0039506
        k(  165) = (   0.0555556   0.1666667   0.3200000), wk =   0.0039506
        k(  166) = (   0.0555556   0.1666667   0.3600000), wk =   0.0039506
        k(  167) = (   0.0555556   0.1666667   0.4000000), wk =   0.0039506
        k(  168) = (   0.0555556   0.1666667   0.4400000), wk =   0.0039506
        k(  169) = (   0.0555556   0.1666667   0.4800000), wk =   0.0039506
        k(  170) = (   0.0555556   0.2222222   0.0000000), wk =   0.0019753
        k(  171) = (   0.0555556   0.2222222   0.0400000), wk =   0.0039506
        k(  172) = (   0.0555556   0.2222222   0.0800000), wk =   0.0039506
        k(  173) = (   0.0555556   0.2222222   0.1200000), wk =   0.0039506
        k(  174) = (   0.0555556   0.2222222   0.1600000), wk =   0.0039506
        k(  175) = (   0.0555556   0.2222222   0.2000000), wk =   0.0039506
        k(  176) = (   0.0555556   0.2222222   0.2400000), wk =   0.0039506
        k(  177) = (   0.0555556   0.2222222   0.2800000), wk =   0.0039506
        k(  178) = (   0.0555556   0.2222222   0.3200000), wk =   0.0039506
        k(  179) = (   0.0555556   0.2222222   0.3600000), wk =   0.0039506
        k(  180) = (   0.0555556   0.2222222   0.4000000), wk =   0.0039506
        k(  181) = (   0.0555556   0.2222222   0.4400000), wk =   0.0039506
        k(  182) = (   0.0555556   0.2222222   0.4800000), wk =   0.0039506
        k(  183) = (   0.0555556   0.2777778   0.0000000), wk =   0.0019753
        k(  184) = (   0.0555556   0.2777778   0.0400000), wk =   0.0039506
        k(  185) = (   0.0555556   0.2777778   0.0800000), wk =   0.0039506
        k(  186) = (   0.0555556   0.2777778   0.1200000), wk =   0.0039506
        k(  187) = (   0.0555556   0.2777778   0.1600000), wk =   0.0039506
        k(  188) = (   0.0555556   0.2777778   0.2000000), wk =   0.0039506
        k(  189) = (   0.0555556   0.2777778   0.2400000), wk =   0.0039506
        k(  190) = (   0.0555556   0.2777778   0.2800000), wk =   0.0039506
        k(  191) = (   0.0555556   0.2777778   0.3200000), wk =   0.0039506
        k(  192) = (   0.0555556   0.2777778   0.3600000), wk =   0.0039506
        k(  193) = (   0.0555556   0.2777778   0.4000000), wk =   0.0039506
[...]
    17.1108  17.5643

     occupation numbers 
     1.0000   1.0000   1.0000   1.0000   0.0151   0.0000   0.0000   0.0000
     0.0000   0.0000

          k = 0.3889 0.4444 0.3394 (   673 PWs)   bands (ev):

     2.3062   3.2693   4.2208   5.1582  11.2505  12.1216  13.0235  13.9524
    17.3529  17.8224

     occupation numbers 
     1.0000   1.0000   1.0000   1.0000   1.0000   0.1908   0.0000   0.0000
     0.0000   0.0000

          k = 0.3889 0.4444 0.3960 (   670 PWs)   bands (ev):

     2.6671   3.6250   4.5692   5.4937  10.3130  11.1880  12.0889  13.0095
    17.6490  18.1266

     occupation numbers 
     1.0000   1.0000   1.0000   1.0000   1.0000   1.0000   0.3191   0.0000
     0.0000   0.0000

          k = 0.3889 0.4444 0.4525 (   672 PWs)   bands (ev):

     3.0812   4.0320   4.9650   5.8649   9.4338  10.2971  11.1938  12.1089
    17.9915  18.4757

     occupation numbers 
     1.0000   1.0000   1.0000   1.0000   1.0000   1.0000   1.0000   0.2357
     0.0000   0.0000

          k = 0.3889 0.4444 0.5091 (   671 PWs)   bands (ev):

     3.5471   4.4877   5.4013   6.2424   8.6448   9.4604  10.3454  11.2545
    18.3729  18.8677

     occupation numbers 
     1.0000   1.0000   1.0000   1.0000   1.0000   1.0000   1.0000   1.0000
     0.0000   0.0000

          k = 0.3889 0.4444 0.5657 (   670 PWs)   bands (ev):

     4.0623   4.9868   5.8594   6.5104   8.0638   8.6993   9.5512  10.4501
    18.7823  19.2993

     occupation numbers 
     1.0000   1.0000   1.0000   1.0000   1.0000   1.0000   1.0000   1.0000
     0.0000   0.0000

          k = 0.3889 0.4444 0.6223 (   666 PWs)   bands (ev):

     4.6227   5.5167   6.2726   6.3561   8.0046   8.0819   8.8252   9.7006
    19.1975  19.7646

     occupation numbers 
     1.0000   1.0000   1.0000   1.0000   1.0000   1.0000   1.0000   1.0000
     0.0000   0.0000

          k = 0.3889 0.4444 0.6788 (   668 PWs)   bands (ev):

     5.2196   5.8282   6.0381   6.3922   7.8578   8.2078   8.4193   9.0153
    19.5675  19.7844

     occupation numbers 
     1.0000   1.0000   1.0000   1.0000   1.0000   1.0000   1.0000   1.0000
     0.0000   0.0000

          k = 0.3889-0.5000 0.0000 (   660 PWs)   bands (ev):

     1.7597   1.7598   3.6927   3.6928  16.3701  16.3702  17.6261  17.6262
    18.1476  18.1478

     occupation numbers 
     1.0000   1.0000   1.0000   1.0000   0.0000   0.0000   0.0000   0.0000
     0.0000   0.0000

          k = 0.3889-0.5000 0.0566 (   662 PWs)   bands (ev):

     1.7877   1.7879   3.7200   3.7201  16.2202  16.2203  17.2651  17.2652
    18.0128  18.0130

     occupation numbers 
     1.0000   1.0000   1.0000   1.0000   0.0000   0.0000   0.0000   0.0000
     0.0000   0.0000

          k = 0.3889-0.5000 0.1131 (   664 PWs)   bands (ev):

     1.8717   1.8719   3.8019   3.8020  15.5899  15.5899  17.0089  17.0090
    17.3896  17.3897

     occupation numbers 
     1.0000   1.0000   1.0000   1.0000   0.0000   0.0000   0.0000   0.0000
     0.0000   0.0000

          k = 0.3889-0.5000 0.1697 (   668 PWs)   bands (ev):

     2.0116   2.0117   3.9381   3.9382  14.6503  14.6504  16.4485  16.4486
    17.0359  17.0361

     occupation numbers 
     1.0000   1.0000   1.0000   1.0000   0.0000   0.0000   0.0000   0.0000
     0.0000   0.0000

          k = 0.3889-0.5000 0.2263 (   668 PWs)   bands (ev):

     2.2069   2.2070   4.1281   4.1282  13.6445  13.6446  15.4442  15.4444
    17.1727  17.1728

     occupation numbers 
     1.0000   1.0000   1.0000   1.0000   0.0000   0.0000   0.0000   0.0000
     0.0000   0.0000

          k = 0.3889-0.5000 0.2828 (   668 PWs)   bands (ev):

     2.4574   2.4575   4.3711   4.3712  12.6412  12.6413  14.4432  14.4434
    17.3747  17.3748

     occupation numbers 
     1.0000   1.0000   1.0000   1.0000   0.0000   0.0000   0.0000   0.0000
     0.0000   0.0000

          k = 0.3889-0.5000 0.3394 (   674 PWs)   bands (ev):

     2.7623   2.7624   4.6654   4.6655  11.6641  11.6643  13.4672  13.4674
    17.6301  17.6301

     occupation numbers 
     1.0000   1.0000   1.0000   1.0000   1.0015   1.0015   0.0000   0.0000
     0.0000   0.0000

          k = 0.3889-0.5000 0.3960 (   672 PWs)   bands (ev):

     3.1209   3.1210   5.0086   5.0087  10.7257  10.7259  12.5266  12.5267
    17.9339  17.9340

     occupation numbers 
     1.0000   1.0000   1.0000   1.0000   1.0000   1.0000   0.0000   0.0000
     0.0000   0.0000

          k = 0.3889-0.5000 0.4525 (   670 PWs)   bands (ev):

     3.5319   3.5320   5.3953   5.3953   9.8367   9.8369  11.6275  11.6277
    18.2830  18.2831

     occupation numbers 
     1.0000   1.0000   1.0000   1.0000   1.0000   1.0000   1.0004   1.0004
     0.0000   0.0000

          k = 0.3889-0.5000 0.5091 (   670 PWs)   bands (ev):

     3.9934   3.9935   5.8119   5.8120   9.0137   9.0138  10.7748  10.7750
    18.6734  18.6735

     occupation numbers 
     1.0000   1.0000   1.0000   1.0000   1.0000   1.0000   1.0000   1.0000
     0.0000   0.0000

          k = 0.3889-0.5000 0.5657 (   672 PWs)   bands (ev):

     4.5021   4.5022   6.2150   6.2150   8.3022   8.3024   9.9737   9.9738
    19.0991  19.0992

     occupation numbers 
     1.0000   1.0000   1.0000   1.0000   1.0000   1.0000   1.0000   1.0000
     0.0000   0.0000

          k = 0.3889-0.5000 0.6223 (   668 PWs)   bands (ev):

     5.0512   5.0512   6.4281   6.4282   7.8799   7.8802   9.2319   9.2321
    19.5484  19.5485

     occupation numbers 
     1.0000   1.0000   1.0000   1.0000   1.0000   1.0000   1.0000   1.0000
     0.0000   0.0000

          k = 0.3889-0.5000 0.6788 (   672 PWs)   bands (ev):

     5.6234   5.6234   6.1588   6.1588   8.0404   8.0407   8.5674   8.5676
    19.9952  19.9954

     occupation numbers 
     1.0000   1.0000   1.0000   1.0000   1.0000   1.0000   1.0000   1.0000
     0.0000   0.0000

          k = 0.4444 0.4444 0.0000 (   666 PWs)   bands (ev):

     1.7057   2.6771   2.6772   3.6399  17.2123  17.2123  17.5811  17.5812
    18.4062  18.4064

     occupation numbers 
     1.0000   1.0000   1.0000   1.0000   0.0000   0.0000   0.0000   0.0000
     0.0000   0.0000

          k = 0.4444 0.4444 0.0566 (   663 PWs)   bands (ev):

     1.7337   2.7049   2.7049   3.6673  16.7678  17.0691  17.0691  17.6044
    18.0546  18.0547

     occupation numbers 
     1.0000   1.0000   1.0000   1.0000   0.0000   0.0000   0.0000   0.0000
     0.0000   0.0000

          k = 0.4444 0.4444 0.1131 (   660 PWs)   bands (ev):

     1.8178   2.7880   2.7880   3.7493  15.7321  16.4415  16.4415  17.5182
    17.6742  17.8046

     occupation numbers 
     1.0000   1.0000   1.0000   1.0000   0.0000   0.0000   0.0000   0.0000
     0.0000   0.0000

          k = 0.4444 0.4444 0.1697 (   668 PWs)   bands (ev):

     1.9577   2.9262   2.9262   3.8856  14.6776  15.5010  15.5010  16.4710
    17.7905  17.8356

     occupation numbers 
     1.0000   1.0000   1.0000   1.0000   0.0000   0.0000   0.0000   0.0000
     0.0000   0.0000

          k = 0.4444 0.4444 0.2263 (   664 PWs)   bands (ev):

     2.1532   3.1193   3.1193   4.0757  13.6327  14.4956  14.4956  15.4311
    17.9532  17.9723

     occupation numbers 
     1.0000   1.0000   1.0000   1.0000   0.0000   0.0000   0.0000   0.0000
     0.0000   0.0000

          k = 0.4444 0.4444 0.2828 (   666 PWs)   bands (ev):

     2.4037   3.3666   3.3666   4.3188  12.6124  13.4928  13.4928  14.4144
    18.1616  18.1716

     occupation numbers 
     1.0000   1.0000   1.0000   1.0000   0.0000   0.0000   0.0000   0.0000
     0.0000   0.0000

          k = 0.4444 0.4444 0.3394 (   672 PWs)   bands (ev):

     2.7089   3.6673   3.6673   4.6134  11.6267  12.5153  12.5153  13.4305
    18.4156  18.4219

     occupation numbers 
     1.0000   1.0000   1.0000   1.0000   1.0004   0.0000   0.0000   0.0000
     0.0000   0.0000

          k = 0.4444 0.4444 0.3960 (   672 PWs)   bands (ev):

     3.0677   4.0201   4.0201   4.9568  10.6834  11.5739  11.5739  12.4853
    18.7141  18.7177

     occupation numbers 
     1.0000   1.0000   1.0000   1.0000   1.0000   1.0001   1.0001   0.0000
     0.0000   0.0000

          k = 0.4444 0.4444 0.4525 (   674 PWs)   bands (ev):

     3.4790   4.4228   4.4228   5.3437   9.7914  10.6760  10.6760  11.5834
    19.0534  19.0559

     occupation numbers 
     1.0000   1.0000   1.0000   1.0000   1.0000   1.0000   1.0000   1.0001
     0.0000   0.0000

          k = 0.4444 0.4444 0.5091 (   670 PWs)   bands (ev):

     3.9408   4.8712   4.8712   5.7606   8.9664   9.8287   9.8288  10.7288
    19.4211  19.4384

     occupation numbers 
     1.0000   1.0000   1.0000   1.0000   1.0000   1.0000   1.0000   1.0000
     0.0000   0.0000

          k = 0.4444 0.4444 0.5657 (   670 PWs)   bands (ev):

     4.4498   5.3562   5.3562   6.1640   8.2536   9.0434   9.0434   9.9264
    19.8042  19.8569

     occupation numbers 
     1.0000   1.0000   1.0000   1.0000   1.0000   1.0000   1.0000   1.0000
     0.0000   0.0000

          k = 0.4444 0.4444 0.6223 (   670 PWs)   bands (ev):

     4.9993   5.8508   5.8508   6.3774   7.8306   8.3478   8.3478   9.1837
    20.1648  20.1649

     occupation numbers 
     1.0000   1.0000   1.0000   1.0000   1.0000   1.0000   1.0000   1.0000
     0.0000   0.0000

          k = 0.4444 0.4444 0.6788 (   668 PWs)   bands (ev):

     5.5719   6.1078   6.2517   6.2517   7.8463   7.8464   7.9910   8.5185
    20.4127  20.4128

     occupation numbers 
     1.0000   1.0000   1.0000   1.0000   1.0000   1.0000   1.0000   1.0000
     0.0000   0.0000

          k = 0.4444-0.5000 0.0000 (   666 PWs)   bands (ev):

     2.1656   2.1657   3.1330   3.1331  17.4747  17.4749  17.9710  17.9711
    18.3502  18.3505

     occupation numbers 
     1.0000   1.0000   1.0000   1.0000   0.0000   0.0000   0.0000   0.0000
     0.0000   0.0000

          k = 0.4444-0.5000 0.0566 (   662 PWs)   bands (ev):

     2.1935   2.1936   3.1605   3.1606  17.0595  17.0596  17.8004  17.8004
    17.9505  17.9505

     occupation numbers 
     1.0000   1.0000   1.0000   1.0000   0.0000   0.0000   0.0000   0.0000
     0.0000   0.0000

          k = 0.4444-0.5000 0.1131 (   658 PWs)   bands (ev):

     2.2771   2.2772   3.2431   3.2432  16.1164  16.1164  17.0114  17.0115
    17.8256  17.8257

     occupation numbers 
     1.0000   1.0000   1.0000   1.0000   0.0000   0.0000   0.0000   0.0000
     0.0000   0.0000

          k = 0.4444-0.5000 0.1697 (   668 PWs)   bands (ev):

     2.4162   2.4163   3.3805   3.3806  15.0851  15.0852  15.9827  15.9828
    17.9340  17.9341

     occupation numbers 
     1.0000   1.0000   1.0000   1.0000   0.0000   0.0000   0.0000   0.0000
     0.0000   0.0000

          k = 0.4444-0.5000 0.2263 (   666 PWs)   bands (ev):

     2.6106   2.6107   3.5723   3.5723  14.0492  14.0493  14.9488  14.9489
    18.0948  18.0949

     occupation numbers 
     1.0000   1.0000   1.0000   1.0000   0.0000   0.0000   0.0000   0.0000
     0.0000   0.0000

          k = 0.4444-0.5000 0.2828 (   668 PWs)   bands (ev):

     2.8597   2.8598   3.8177   3.8178  13.0330  13.0331  13.9344  13.9346
    18.3035  18.3035

     occupation numbers 
     1.0000   1.0000   1.0000   1.0000   0.0000   0.0000   0.0000   0.0000
     0.0000   0.0000

          k = 0.4444-0.5000 0.3394 (   672 PWs)   bands (ev):

     3.1629   3.1630   4.1158   4.1158  12.0488  12.0489  12.9512  12.9514
    18.5580  18.5581

     occupation numbers 
     1.0000   1.0000   1.0000   1.0000   0.5223   0.5216   0.0000   0.0000
     0.0000   0.0000

          k = 0.4444-0.5000 0.3960 (   672 PWs)   bands (ev):

     3.5190   3.5191   4.4646   4.4647  11.1045  11.1047  12.0064  12.0065
    18.8568  18.8568

     occupation numbers 
     1.0000   1.0000   1.0000   1.0000   1.0000   1.0000   0.7537   0.7529
     0.0000   0.0000

          k = 0.4444-0.5000 0.4525 (   674 PWs)   bands (ev):

     3.9266   3.9267   4.8610   4.8611  10.2072  10.2074  11.1052  11.1053
    19.1972  19.1972

     occupation numbers 
     1.0000   1.0000   1.0000   1.0000   1.0000   1.0000   1.0000   1.0000
     0.0000   0.0000

          k = 0.4444-0.5000 0.5091 (   670 PWs)   bands (ev):

     4.3830   4.3830   5.2980   5.2980   9.3664   9.3666  10.2527  10.2528
    19.5750  19.5751

     occupation numbers 
     1.0000   1.0000   1.0000   1.0000   1.0000   1.0000   1.0000   1.0000
     0.0000   0.0000

          k = 0.4444-0.5000 0.5657 (   666 PWs)   bands (ev):

     4.8828   4.8828   5.7568   5.7569   8.6024   8.6026   9.4557   9.4558
    19.9816  19.9818

     occupation numbers 
     1.0000   1.0000   1.0000   1.0000   1.0000   1.0000   1.0000   1.0000
     0.0000   0.0000

          k = 0.4444-0.5000 0.6223 (   670 PWs)   bands (ev):

     5.4136   5.4136   6.1708   6.1708   7.9830   7.9832   8.7276   8.7278
    20.3977  20.3979

     occupation numbers 
     1.0000   1.0000   1.0000   1.0000   1.0000   1.0000   1.0000   1.0000
     0.0000   0.0000

          k = 0.4444-0.5000 0.6788 (   666 PWs)   bands (ev):

     5.9359   5.9359   6.2907   6.2908   7.7580   7.7583   8.1087   8.1089
    20.7757  20.7760

     occupation numbers 
     1.0000   1.0000   1.0000   1.0000   1.0000   1.0000   1.0000   1.0000
     0.0000   0.0000

          k =-0.5000-0.5000 0.0000 (   672 PWs)   bands (ev):

     2.6236   2.6236   2.6236   2.6238  18.3613  18.3615  18.3616  18.3616
    18.3616  18.3618

     occupation numbers 
     1.0000   1.0000   1.0000   1.0000   0.0000   0.0000   0.0000   0.0000
     0.0000   0.0000

          k =-0.5000-0.5000 0.0566 (   660 PWs)   bands (ev):

     2.6513   2.6514   2.6514   2.6515  17.6055  17.6055  17.6055  17.6056
    18.3845  18.3847

     occupation numbers 
     1.0000   1.0000   1.0000   1.0000   0.0000   0.0000   0.0000   0.0000
     0.0000   0.0000

          k =-0.5000-0.5000 0.1131 (   660 PWs)   bands (ev):

     2.7344   2.7345   2.7345   2.7346  16.5776  16.5777  16.5777  16.5778
    18.4538  18.4542

     occupation numbers 
     1.0000   1.0000   1.0000   1.0000   0.0000   0.0000   0.0000   0.0000
     0.0000   0.0000

          k =-0.5000-0.5000 0.1697 (   668 PWs)   bands (ev):

     2.8728   2.8729   2.8729   2.8730  15.5260  15.5261  15.5261  15.5262
    18.5693  18.5696

     occupation numbers 
     1.0000   1.0000   1.0000   1.0000   0.0000   0.0000   0.0000   0.0000
     0.0000   0.0000

          k =-0.5000-0.5000 0.2263 (   668 PWs)   bands (ev):

     3.0660   3.0661   3.0661   3.0662  14.4830  14.4831  14.4831  14.4832
    18.7303  18.7306

     occupation numbers 
     1.0000   1.0000   1.0000   1.0000   0.0000   0.0000   0.0000   0.0000
     0.0000   0.0000

          k =-0.5000-0.5000 0.2828 (   668 PWs)   bands (ev):

     3.3135   3.3135   3.3135   3.3136  13.4638  13.4639  13.4639  13.4641
    18.9368  18.9368

     occupation numbers 
     1.0000   1.0000   1.0000   1.0000   0.0000   0.0000   0.0000   0.0000
     0.0000   0.0000

          k =-0.5000-0.5000 0.3394 (   684 PWs)   bands (ev):

     3.6144   3.6144   3.6144   3.6145  12.4779  12.4780  12.4780  12.4782
    19.1867  19.1871

     occupation numbers 
     1.0000   1.0000   1.0000   1.0000   0.0000   0.0000   0.0000   0.0000
     0.0000   0.0000

          k =-0.5000-0.5000 0.3960 (   672 PWs)   bands (ev):

     3.9674   3.9675   3.9675   3.9676  11.5318  11.5319  11.5319  11.5321
    19.4794  19.4795

     occupation numbers 
     1.0000   1.0000   1.0000   1.0000   1.0000   1.0000   1.0000   1.0000
     0.0000   0.0000

          k =-0.5000-0.5000 0.4525 (   680 PWs)   bands (ev):

     4.3704   4.3704   4.3704   4.3705  10.6309  10.6310  10.6310  10.6312
    19.8106  19.8108

     occupation numbers 
     1.0000   1.0000   1.0000   1.0000   1.0000   1.0000   1.0000   1.0000
     0.0000   0.0000

          k =-0.5000-0.5000 0.5091 (   672 PWs)   bands (ev):

     4.8191   4.8192   4.8192   4.8192   9.7817   9.7819   9.7819   9.7821
    20.1743  20.1744

     occupation numbers 
     1.0000   1.0000   1.0000   1.0000   1.0000   1.0000   1.0000   1.0000
     0.0000   0.0000

          k =-0.5000-0.5000 0.5657 (   672 PWs)   bands (ev):

     5.3044   5.3045   5.3045   5.3045   8.9950   8.9951   8.9951   8.9953
    20.5558  20.5559

     occupation numbers 
     1.0000   1.0000   1.0000   1.0000   1.0000   1.0000   1.0000   1.0000
     0.0000   0.0000

          k =-0.5000-0.5000 0.6223 (   672 PWs)   bands (ev):

     5.7996   5.7996   5.7996   5.7996   8.2984   8.2986   8.2986   8.2988
    20.9197  20.9197

     occupation numbers 
     1.0000   1.0000   1.0000   1.0000   1.0000   1.0000   1.0000   1.0000
     0.0000   0.0000

          k =-0.5000-0.5000 0.6788 (   664 PWs)   bands (ev):

     6.2008   6.2009   6.2009   6.2009   7.7962   7.7964   7.7964   7.7968
    21.1750  21.1750

     occupation numbers 
     1.0000   1.0000   1.0000   1.0000   1.0000   1.0000   1.0000   1.0000
     0.0000   0.0000

     the Fermi energy is    12.0718 ev

!    total energy              =     -26.60226561 Ry
     Harris-Foulkes estimate   =     -26.60226564 Ry
     estimated scf accuracy    <       0.00000007 Ry

     The total energy is the sum of the following terms:

     one-electron contribution =      15.63742339 Ry
     hartree contribution      =       0.05788911 Ry
     xc contribution           =     -18.02232465 Ry
     ewald contribution        =     -24.27516601 Ry
     smearing contrib. (-TS)   =      -0.00008745 Ry

     convergence has been achieved in   5 iterations
 
     init_run     :    251.85s CPU     37.96s WALL (       1 calls)
     electrons    :   2163.80s CPU    464.76s WALL (       1 calls)

     Called by init_run:
     wfcinit      :    251.37s CPU     37.65s WALL (       1 calls)
     wfcinit:atom :      0.92s CPU      0.12s WALL (     715 calls)
     wfcinit:wfcr :    246.49s CPU     36.99s WALL (     715 calls)
     potinit      :      0.04s CPU      0.02s WALL (       1 calls)

     Called by electrons:
     c_bands      :   1986.40s CPU    427.01s WALL (       6 calls)
     sum_band     :    176.15s CPU     37.48s WALL (       6 calls)
     v_of_rho     :      0.44s CPU      0.09s WALL (       6 calls)
     v_h          :      0.01s CPU      0.00s WALL (       6 calls)
     v_xc         :      0.43s CPU      0.09s WALL (       6 calls)
     newd         :      0.63s CPU      0.14s WALL (       6 calls)
     mix_rho      :      0.16s CPU      0.03s WALL (       6 calls)

     Called by c_bands:
     init_us_2    :     11.67s CPU      2.15s WALL (    9295 calls)
     cegterg      :   1957.91s CPU    421.82s WALL (    4290 calls)

     Called by sum_band:
     sum_band:bec :      0.55s CPU      0.11s WALL (    4290 calls)
     addusdens    :      0.35s CPU      0.08s WALL (       6 calls)

     Called by *egterg:
     h_psi        :   1610.04s CPU    334.24s WALL (   14466 calls)
     s_psi        :    122.22s CPU     24.90s WALL (   14466 calls)
     g_psi        :      2.11s CPU      0.38s WALL (    9461 calls)
     cdiaghg      :     63.60s CPU     12.75s WALL (   13036 calls)
     cegterg:over :    105.50s CPU     26.56s WALL (    9461 calls)
     cegterg:upda :    145.51s CPU     30.85s WALL (    9461 calls)
     cegterg:last :     45.94s CPU      9.75s WALL (    4294 calls)

     Called by h_psi:
     h_psi:pot    :   1607.32s CPU    333.75s WALL (   14466 calls)
     h_psi:calbec :    214.10s CPU     44.99s WALL (   14466 calls)
     vloc_psi     :   1240.75s CPU    257.58s WALL (   14466 calls)
     add_vuspsi   :    150.59s CPU     30.88s WALL (   14466 calls)

     General routines
     calbec       :    337.97s CPU     72.26s WALL (   18756 calls)
     fft          :      0.62s CPU      0.15s WALL (      80 calls)
     fftw         :   1245.22s CPU    259.05s WALL (  279658 calls)
 
     Parallel routines
 
     PWSCF        : 40m15.81s CPU     8m22.80s WALL

 
   This run was terminated on:  17: 8:24  24Jan2019            

=------------------------------------------------------------------------------=
   JOB DONE.
=------------------------------------------------------------------------------=
