
     Program PWSCF v.6.2 (svn rev. 14038) starts on 24Jan2019 at 17: 3: 7 

     This program is part of the open-source Quantum ESPRESSO suite
     for quantum simulation of materials; please cite
         "P. Giannozzi et al., J. Phys.:Condens. Matter 21 395502 (2009);
         "P. Giannozzi et al., J. Phys.:Condens. Matter 29 465901 (2017);
          URL http://www.quantum-espresso.org", 
     in publications or presentations arising from this work. More details at
     http://www.quantum-espresso.org/quote

     Parallel version (MPI), running on     1 processors

     MPI processes distributed on     1 nodes
     Reading input from ./AlfccSEPNEG0DOT030830865138258168.in
Warning: card &IONS ignored
Warning: card / ignored
Warning: card &CELL ignored
Warning: card / ignored

     Current dimensions of program PWSCF are:
     Max number of different atomic species (ntypx) = 10
     Max number of k-points (npk) =  40000
     Max angular momentum in pseudopotentials (lmaxx) =  3
     Message from routine iosys:
     minimal I/O required, wf_collect reset to FALSE

     Subspace diagonalization in iterative solution of the eigenvalue problem:
     a serial algorithm will be used

     Found symmetry operation: I + ( -0.5000 -0.5000  0.0000)
     This is a supercell, fractional translations are disabled
 
     G-vector sticks info
     --------------------
     sticks:   dense  smooth     PW     G-vecs:    dense   smooth      PW
     Sum         465     465    145                 7279     7279    1341
 


     bravais-lattice index     =            0
     lattice parameter (alat)  =       7.6325  a.u.
     unit-cell volume          =     430.9185 (a.u.)^3
     number of atoms/cell      =            4
     number of atomic types    =            1
     number of electrons       =        12.00
     number of Kohn-Sham states=           10
     kinetic-energy cutoff     =      25.0000  Ry
     charge density cutoff     =     100.0000  Ry
     convergence threshold     =      1.0E-07
     mixing beta               =       0.7000
     number of iterations used =            8  plain     mixing
     Exchange-correlation      = SLA  PW   PBE  PBE ( 1  4  3  4 0 0)

     celldm(1)=   7.632472  celldm(2)=   0.000000  celldm(3)=   0.000000
     celldm(4)=   0.000000  celldm(5)=   0.000000  celldm(6)=   0.000000

     crystal axes: (cart. coord. in units of alat)
               a(1) = (   1.000000   0.000000   0.000000 )  
               a(2) = (   0.000000   1.000000   0.000000 )  
               a(3) = (   0.000000   0.000000   0.969169 )  

     reciprocal axes: (cart. coord. in units 2 pi/alat)
               b(1) = (  1.000000  0.000000  0.000000 )  
               b(2) = (  0.000000  1.000000  0.000000 )  
               b(3) = (  0.000000  0.000000  1.031812 )  


     PseudoPot. # 1 for Al read from file:
     ./al_pbe_v1.uspp.F.UPF
     MD5 check sum: 0a6289f5291fc8f409219462bc851e1f
     Pseudo is Ultrasoft + core correction, Zval =  3.0
     Generated by new atomic code, or converted to UPF format
     Using radial grid of  893 points,  3 beta functions with: 
                l(1) =   0
                l(2) =   1
                l(3) =   2
     Q(r) pseudized with  8 coefficients,  rinner =    0.900   0.900   0.900
                                                       0.900   0.900

     atomic species   valence    mass     pseudopotential
        Al             3.00    26.98150     Al( 1.00)

     16 Sym. Ops., with inversion, found


                                    s                        frac. trans.

      isym =  1     identity                                     

 cryst.   s( 1) = (     1          0          0      )
                  (     0          1          0      )
                  (     0          0          1      )

 cart.    s( 1) = (  1.0000000  0.0000000  0.0000000 )
                  (  0.0000000  1.0000000  0.0000000 )
                  (  0.0000000  0.0000000  1.0000000 )


      isym =  2     180 deg rotation - cart. axis [0,0,1]        

 cryst.   s( 2) = (    -1          0          0      )
                  (     0         -1          0      )
                  (     0          0          1      )

 cart.    s( 2) = ( -1.0000000  0.0000000  0.0000000 )
                  (  0.0000000 -1.0000000  0.0000000 )
                  (  0.0000000  0.0000000  1.0000000 )


      isym =  3     180 deg rotation - cart. axis [0,1,0]        

 cryst.   s( 3) = (    -1          0          0      )
                  (     0          1          0      )
                  (     0          0         -1      )

 cart.    s( 3) = ( -1.0000000  0.0000000  0.0000000 )
                  (  0.0000000  1.0000000  0.0000000 )
                  (  0.0000000  0.0000000 -1.0000000 )


      isym =  4     180 deg rotation - cart. axis [1,0,0]        

 cryst.   s( 4) = (     1          0          0      )
                  (     0         -1          0      )
                  (     0          0         -1      )

 cart.    s( 4) = (  1.0000000  0.0000000  0.0000000 )
                  (  0.0000000 -1.0000000  0.0000000 )
                  (  0.0000000  0.0000000 -1.0000000 )


      isym =  5     180 deg rotation - cart. axis [1,1,0]        

 cryst.   s( 5) = (     0          1          0      )
                  (     1          0          0      )
                  (     0          0         -1      )

 cart.    s( 5) = (  0.0000000  1.0000000  0.0000000 )
                  (  1.0000000  0.0000000  0.0000000 )
                  (  0.0000000  0.0000000 -1.0000000 )


      isym =  6     180 deg rotation - cart. axis [1,-1,0]       

 cryst.   s( 6) = (     0         -1          0      )
                  (    -1          0          0      )
                  (     0          0         -1      )

 cart.    s( 6) = (  0.0000000 -1.0000000  0.0000000 )
                  ( -1.0000000  0.0000000  0.0000000 )
                  (  0.0000000  0.0000000 -1.0000000 )


      isym =  7      90 deg rotation - cart. axis [0,0,-1]       

 cryst.   s( 7) = (     0         -1          0      )
                  (     1          0          0      )
                  (     0          0          1      )

 cart.    s( 7) = (  0.0000000  1.0000000  0.0000000 )
                  ( -1.0000000  0.0000000  0.0000000 )
                  (  0.0000000  0.0000000  1.0000000 )


      isym =  8      90 deg rotation - cart. axis [0,0,1]        

 cryst.   s( 8) = (     0          1          0      )
                  (    -1          0          0      )
                  (     0          0          1      )

 cart.    s( 8) = (  0.0000000 -1.0000000  0.0000000 )
                  (  1.0000000  0.0000000  0.0000000 )
                  (  0.0000000  0.0000000  1.0000000 )


      isym =  9     inversion                                    

 cryst.   s( 9) = (    -1          0          0      )
                  (     0         -1          0      )
                  (     0          0         -1      )

 cart.    s( 9) = ( -1.0000000  0.0000000  0.0000000 )
                  (  0.0000000 -1.0000000  0.0000000 )
                  (  0.0000000  0.0000000 -1.0000000 )


      isym = 10     inv. 180 deg rotation - cart. axis [0,0,1]   

 cryst.   s(10) = (     1          0          0      )
                  (     0          1          0      )
                  (     0          0         -1      )

 cart.    s(10) = (  1.0000000  0.0000000  0.0000000 )
                  (  0.0000000  1.0000000  0.0000000 )
                  (  0.0000000  0.0000000 -1.0000000 )


      isym = 11     inv. 180 deg rotation - cart. axis [0,1,0]   

 cryst.   s(11) = (     1          0          0      )
                  (     0         -1          0      )
                  (     0          0          1      )

 cart.    s(11) = (  1.0000000  0.0000000  0.0000000 )
                  (  0.0000000 -1.0000000  0.0000000 )
                  (  0.0000000  0.0000000  1.0000000 )


      isym = 12     inv. 180 deg rotation - cart. axis [1,0,0]   

 cryst.   s(12) = (    -1          0          0      )
                  (     0          1          0      )
                  (     0          0          1      )

 cart.    s(12) = ( -1.0000000  0.0000000  0.0000000 )
                  (  0.0000000  1.0000000  0.0000000 )
                  (  0.0000000  0.0000000  1.0000000 )


      isym = 13     inv. 180 deg rotation - cart. axis [1,1,0]   

 cryst.   s(13) = (     0         -1          0      )
                  (    -1          0          0      )
                  (     0          0          1      )

 cart.    s(13) = (  0.0000000 -1.0000000  0.0000000 )
                  ( -1.0000000  0.0000000  0.0000000 )
                  (  0.0000000  0.0000000  1.0000000 )


      isym = 14     inv. 180 deg rotation - cart. axis [1,-1,0]  

 cryst.   s(14) = (     0          1          0      )
                  (     1          0          0      )
                  (     0          0          1      )

 cart.    s(14) = (  0.0000000  1.0000000  0.0000000 )
                  (  1.0000000  0.0000000  0.0000000 )
                  (  0.0000000  0.0000000  1.0000000 )


      isym = 15     inv.  90 deg rotation - cart. axis [0,0,-1]  

 cryst.   s(15) = (     0          1          0      )
                  (    -1          0          0      )
                  (     0          0         -1      )

 cart.    s(15) = (  0.0000000 -1.0000000  0.0000000 )
                  (  1.0000000  0.0000000  0.0000000 )
                  (  0.0000000  0.0000000 -1.0000000 )


      isym = 16     inv.  90 deg rotation - cart. axis [0,0,1]   

 cryst.   s(16) = (     0         -1          0      )
                  (     1          0          0      )
                  (     0          0         -1      )

 cart.    s(16) = (  0.0000000  1.0000000  0.0000000 )
                  ( -1.0000000  0.0000000  0.0000000 )
                  (  0.0000000  0.0000000 -1.0000000 )


   Cartesian axes

     site n.     atom                  positions (alat units)
         1           Al  tau(   1) = (   0.0000000   0.0000000   0.0000000  )
         2           Al  tau(   2) = (   0.5000000   0.5000000   0.0000000  )
         3           Al  tau(   3) = (   0.5000000   0.0000000   0.4845845  )
         4           Al  tau(   4) = (   0.0000000   0.5000000   0.4845845  )

   Crystallographic axes

     site n.     atom                  positions (cryst. coord.)
         1           Al  tau(   1) = (  0.0000000  0.0000000  0.0000000  )
         2           Al  tau(   2) = (  0.5000000  0.5000000  0.0000000  )
         3           Al  tau(   3) = (  0.5000000  0.0000000  0.5000000  )
         4           Al  tau(   4) = (  0.0000000  0.5000000  0.5000000  )

     number of k points=   550  Marzari-Vanderbilt smearing, width (Ry)=  0.0100
                       cart. coord. in units 2pi/alat
        k(    1) = (   0.0000000   0.0000000   0.0000000), wk =   0.0003429
        k(    2) = (   0.0000000   0.0000000   0.0573229), wk =   0.0006859
        k(    3) = (   0.0000000   0.0000000   0.1146457), wk =   0.0006859
        k(    4) = (   0.0000000   0.0000000   0.1719686), wk =   0.0006859
        k(    5) = (   0.0000000   0.0000000   0.2292915), wk =   0.0006859
        k(    6) = (   0.0000000   0.0000000   0.2866144), wk =   0.0006859
        k(    7) = (   0.0000000   0.0000000   0.3439372), wk =   0.0006859
        k(    8) = (   0.0000000   0.0000000   0.4012601), wk =   0.0006859
        k(    9) = (   0.0000000   0.0000000   0.4585830), wk =   0.0006859
        k(   10) = (   0.0000000   0.0000000  -0.5159059), wk =   0.0003429
        k(   11) = (   0.0000000   0.0555556   0.0000000), wk =   0.0013717
        k(   12) = (   0.0000000   0.0555556   0.0573229), wk =   0.0027435
        k(   13) = (   0.0000000   0.0555556   0.1146457), wk =   0.0027435
        k(   14) = (   0.0000000   0.0555556   0.1719686), wk =   0.0027435
        k(   15) = (   0.0000000   0.0555556   0.2292915), wk =   0.0027435
        k(   16) = (   0.0000000   0.0555556   0.2866144), wk =   0.0027435
        k(   17) = (   0.0000000   0.0555556   0.3439372), wk =   0.0027435
        k(   18) = (   0.0000000   0.0555556   0.4012601), wk =   0.0027435
        k(   19) = (   0.0000000   0.0555556   0.4585830), wk =   0.0027435
        k(   20) = (   0.0000000   0.0555556  -0.5159059), wk =   0.0013717
        k(   21) = (   0.0000000   0.1111111   0.0000000), wk =   0.0013717
        k(   22) = (   0.0000000   0.1111111   0.0573229), wk =   0.0027435
        k(   23) = (   0.0000000   0.1111111   0.1146457), wk =   0.0027435
        k(   24) = (   0.0000000   0.1111111   0.1719686), wk =   0.0027435
        k(   25) = (   0.0000000   0.1111111   0.2292915), wk =   0.0027435
        k(   26) = (   0.0000000   0.1111111   0.2866144), wk =   0.0027435
        k(   27) = (   0.0000000   0.1111111   0.3439372), wk =   0.0027435
        k(   28) = (   0.0000000   0.1111111   0.4012601), wk =   0.0027435
        k(   29) = (   0.0000000   0.1111111   0.4585830), wk =   0.0027435
        k(   30) = (   0.0000000   0.1111111  -0.5159059), wk =   0.0013717
        k(   31) = (   0.0000000   0.1666667   0.0000000), wk =   0.0013717
        k(   32) = (   0.0000000   0.1666667   0.0573229), wk =   0.0027435
        k(   33) = (   0.0000000   0.1666667   0.1146457), wk =   0.0027435
        k(   34) = (   0.0000000   0.1666667   0.1719686), wk =   0.0027435
        k(   35) = (   0.0000000   0.1666667   0.2292915), wk =   0.0027435
        k(   36) = (   0.0000000   0.1666667   0.2866144), wk =   0.0027435
        k(   37) = (   0.0000000   0.1666667   0.3439372), wk =   0.0027435
        k(   38) = (   0.0000000   0.1666667   0.4012601), wk =   0.0027435
        k(   39) = (   0.0000000   0.1666667   0.4585830), wk =   0.0027435
        k(   40) = (   0.0000000   0.1666667  -0.5159059), wk =   0.0013717
        k(   41) = (   0.0000000   0.2222222   0.0000000), wk =   0.0013717
        k(   42) = (   0.0000000   0.2222222   0.0573229), wk =   0.0027435
        k(   43) = (   0.0000000   0.2222222   0.1146457), wk =   0.0027435
        k(   44) = (   0.0000000   0.2222222   0.1719686), wk =   0.0027435
        k(   45) = (   0.0000000   0.2222222   0.2292915), wk =   0.0027435
        k(   46) = (   0.0000000   0.2222222   0.2866144), wk =   0.0027435
        k(   47) = (   0.0000000   0.2222222   0.3439372), wk =   0.0027435
        k(   48) = (   0.0000000   0.2222222   0.4012601), wk =   0.0027435
        k(   49) = (   0.0000000   0.2222222   0.4585830), wk =   0.0027435
        k(   50) = (   0.0000000   0.2222222  -0.5159059), wk =   0.0013717
        k(   51) = (   0.0000000   0.2777778   0.0000000), wk =   0.0013717
        k(   52) = (   0.0000000   0.2777778   0.0573229), wk =   0.0027435
        k(   53) = (   0.0000000   0.2777778   0.1146457), wk =   0.0027435
        k(   54) = (   0.0000000   0.2777778   0.1719686), wk =   0.0027435
        k(   55) = (   0.0000000   0.2777778   0.2292915), wk =   0.0027435
        k(   56) = (   0.0000000   0.2777778   0.2866144), wk =   0.0027435
        k(   57) = (   0.0000000   0.2777778   0.3439372), wk =   0.0027435
        k(   58) = (   0.0000000   0.2777778   0.4012601), wk =   0.0027435
        k(   59) = (   0.0000000   0.2777778   0.4585830), wk =   0.0027435
        k(   60) = (   0.0000000   0.2777778  -0.5159059), wk =   0.0013717
        k(   61) = (   0.0000000   0.3333333   0.0000000), wk =   0.0013717
        k(   62) = (   0.0000000   0.3333333   0.0573229), wk =   0.0027435
        k(   63) = (   0.0000000   0.3333333   0.1146457), wk =   0.0027435
        k(   64) = (   0.0000000   0.3333333   0.1719686), wk =   0.0027435
        k(   65) = (   0.0000000   0.3333333   0.2292915), wk =   0.0027435
        k(   66) = (   0.0000000   0.3333333   0.2866144), wk =   0.0027435
        k(   67) = (   0.0000000   0.3333333   0.3439372), wk =   0.0027435
        k(   68) = (   0.0000000   0.3333333   0.4012601), wk =   0.0027435
        k(   69) = (   0.0000000   0.3333333   0.4585830), wk =   0.0027435
        k(   70) = (   0.0000000   0.3333333  -0.5159059), wk =   0.0013717
        k(   71) = (   0.0000000   0.3888889   0.0000000), wk =   0.0013717
        k(   72) = (   0.0000000   0.3888889   0.0573229), wk =   0.0027435
        k(   73) = (   0.0000000   0.3888889   0.1146457), wk =   0.0027435
        k(   74) = (   0.0000000   0.3888889   0.1719686), wk =   0.0027435
        k(   75) = (   0.0000000   0.3888889   0.2292915), wk =   0.0027435
        k(   76) = (   0.0000000   0.3888889   0.2866144), wk =   0.0027435
        k(   77) = (   0.0000000   0.3888889   0.3439372), wk =   0.0027435
        k(   78) = (   0.0000000   0.3888889   0.4012601), wk =   0.0027435
        k(   79) = (   0.0000000   0.3888889   0.4585830), wk =   0.0027435
        k(   80) = (   0.0000000   0.3888889  -0.5159059), wk =   0.0013717
        k(   81) = (   0.0000000   0.4444444   0.0000000), wk =   0.0013717
        k(   82) = (   0.0000000   0.4444444   0.0573229), wk =   0.0027435
        k(   83) = (   0.0000000   0.4444444   0.1146457), wk =   0.0027435
        k(   84) = (   0.0000000   0.4444444   0.1719686), wk =   0.0027435
        k(   85) = (   0.0000000   0.4444444   0.2292915), wk =   0.0027435
        k(   86) = (   0.0000000   0.4444444   0.2866144), wk =   0.0027435
        k(   87) = (   0.0000000   0.4444444   0.3439372), wk =   0.0027435
        k(   88) = (   0.0000000   0.4444444   0.4012601), wk =   0.0027435
        k(   89) = (   0.0000000   0.4444444   0.4585830), wk =   0.0027435
        k(   90) = (   0.0000000   0.4444444  -0.5159059), wk =   0.0013717
        k(   91) = (   0.0000000  -0.5000000   0.0000000), wk =   0.0006859
        k(   92) = (   0.0000000  -0.5000000   0.0573229), wk =   0.0013717
        k(   93) = (   0.0000000  -0.5000000   0.1146457), wk =   0.0013717
        k(   94) = (   0.0000000  -0.5000000   0.1719686), wk =   0.0013717
        k(   95) = (   0.0000000  -0.5000000   0.2292915), wk =   0.0013717
        k(   96) = (   0.0000000  -0.5000000   0.2866144), wk =   0.0013717
        k(   97) = (   0.0000000  -0.5000000   0.3439372), wk =   0.0013717
        k(   98) = (   0.0000000  -0.5000000   0.4012601), wk =   0.0013717
        k(   99) = (   0.0000000  -0.5000000   0.4585830), wk =   0.0013717
        k(  100) = (   0.0000000  -0.5000000  -0.5159059), wk =   0.0006859
        k(  101) = (   0.0555556   0.0555556   0.0000000), wk =   0.0013717
        k(  102) = (   0.0555556   0.0555556   0.0573229), wk =   0.0027435
        k(  103) = (   0.0555556   0.0555556   0.1146457), wk =   0.0027435
        k(  104) = (   0.0555556   0.0555556   0.1719686), wk =   0.0027435
        k(  105) = (   0.0555556   0.0555556   0.2292915), wk =   0.0027435
        k(  106) = (   0.0555556   0.0555556   0.2866144), wk =   0.0027435
        k(  107) = (   0.0555556   0.0555556   0.3439372), wk =   0.0027435
        k(  108) = (   0.0555556   0.0555556   0.4012601), wk =   0.0027435
        k(  109) = (   0.0555556   0.0555556   0.4585830), wk =   0.0027435
        k(  110) = (   0.0555556   0.0555556  -0.5159059), wk =   0.0013717
        k(  111) = (   0.0555556   0.1111111   0.0000000), wk =   0.0027435
        k(  112) = (   0.0555556   0.1111111   0.0573229), wk =   0.0054870
        k(  113) = (   0.0555556   0.1111111   0.1146457), wk =   0.0054870
        k(  114) = (   0.0555556   0.1111111   0.1719686), wk =   0.0054870
        k(  115) = (   0.0555556   0.1111111   0.2292915), wk =   0.0054870
        k(  116) = (   0.0555556   0.1111111   0.2866144), wk =   0.0054870
        k(  117) = (   0.0555556   0.1111111   0.3439372), wk =   0.0054870
        k(  118) = (   0.0555556   0.1111111   0.4012601), wk =   0.0054870
        k(  119) = (   0.0555556   0.1111111   0.4585830), wk =   0.0054870
        k(  120) = (   0.0555556   0.1111111  -0.5159059), wk =   0.0027435
        k(  121) = (   0.0555556   0.1666667   0.0000000), wk =   0.0027435
        k(  122) = (   0.0555556   0.1666667   0.0573229), wk =   0.0054870
        k(  123) = (   0.0555556   0.1666667   0.1146457), wk =   0.0054870
        k(  124) = (   0.0555556   0.1666667   0.1719686), wk =   0.0054870
        k(  125) = (   0.0555556   0.1666667   0.2292915), wk =   0.0054870
        k(  126) = (   0.0555556   0.1666667   0.2866144), wk =   0.0054870
        k(  127) = (   0.0555556   0.1666667   0.3439372), wk =   0.0054870
        k(  128) = (   0.0555556   0.1666667   0.4012601), wk =   0.0054870
        k(  129) = (   0.0555556   0.1666667   0.4585830), wk =   0.0054870
        k(  130) = (   0.0555556   0.1666667  -0.5159059), wk =   0.0027435
        k(  131) = (   0.0555556   0.2222222   0.0000000), wk =   0.0027435
        k(  132) = (   0.0555556   0.2222222   0.0573229), wk =   0.0054870
        k(  133) = (   0.0555556   0.2222222   0.1146457), wk =   0.0054870
        k(  134) = (   0.0555556   0.2222222   0.1719686), wk =   0.0054870
        k(  135) = (   0.0555556   0.2222222   0.2292915), wk =   0.0054870
        k(  136) = (   0.0555556   0.2222222   0.2866144), wk =   0.0054870
        k(  137) = (   0.0555556   0.2222222   0.3439372), wk =   0.0054870
        k(  138) = (   0.0555556   0.2222222   0.4012601), wk =   0.0054870
        k(  139) = (   0.0555556   0.2222222   0.4585830), wk =   0.0054870
        k(  140) = (   0.0555556   0.2222222  -0.5159059), wk =   0.0027435
        k(  141) = (   0.0555556   0.2777778   0.0000000), wk =   0.0027435
        k(  142) = (   0.0555556   0.2777778   0.0573229), wk =   0.0054870
        k(  143) = (   0.0555556   0.2777778   0.1146457), wk =   0.0054870
        k(  144) = (   0.0555556   0.2777778   0.1719686), wk =   0.0054870
        k(  145) = (   0.0555556   0.2777778   0.2292915), wk =   0.0054870
        k(  146) = (   0.0555556   0.2777778   0.2866144), wk =   0.0054870
        k(  147) = (   0.0555556   0.2777778   0.3439372), wk =   0.0054870
        k(  148) = (   0.0555556   0.2777778   0.4012601), wk =   0.0054870
        k(  149) = (   0.0555556   0.2777778   0.4585830), wk =   0.0054870
        k(  150) = (   0.0555556   0.2777778  -0.5159059), wk =   0.0027435
        k(  151) = (   0.0555556   0.3333333   0.0000000), wk =   0.0027435
        k(  152) = (   0.0555556   0.3333333   0.0573229), wk =   0.0054870
        k(  153) = (   0.0555556   0.3333333   0.1146457), wk =   0.0054870
        k(  154) = (   0.0555556   0.3333333   0.1719686), wk =   0.0054870
        k(  155) = (   0.0555556   0.3333333   0.2292915), wk =   0.0054870
        k(  156) = (   0.0555556   0.3333333   0.2866144), wk =   0.0054870
        k(  157) = (   0.0555556   0.3333333   0.3439372), wk =   0.0054870
        k(  158) = (   0.0555556   0.3333333   0.4012601), wk =   0.0054870
        k(  159) = (   0.0555556   0.3333333   0.4585830), wk =   0.0054870
        k(  160) = (   0.0555556   0.3333333  -0.5159059), wk =   0.0027435
        k(  161) = (   0.0555556   0.3888889   0.0000000), wk =   0.0027435
        k(  162) = (   0.0555556   0.3888889   0.0573229), wk =   0.0054870
        k(  163) = (   0.0555556   0.3888889   0.1146457), wk =   0.0054870
        k(  164) = (   0.0555556   0.3888889   0.1719686), wk =   0.0054870
        k(  165) = (   0.0555556   0.3888889   0.2292915), wk =   0.0054870
        k(  166) = (   0.0555556   0.3888889   0.2866144), wk =   0.0054870
        k(  167) = (   0.0555556   0.3888889   0.3439372), wk =   0.0054870
        k(  168) = (   0.0555556   0.3888889   0.4012601), wk =   0.0054870
        k(  169) = (   0.0555556   0.3888889   0.4585830), wk =   0.0054870
        k(  170) = (   0.0555556   0.3888889  -0.5159059), wk =   0.0027435
        k(  171) = (   0.0555556   0.4444444   0.0000000), wk =   0.0027435
        k(  172) = (   0.0555556   0.4444444   0.0573229), wk =   0.0054870
        k(  173) = (   0.0555556   0.4444444   0.1146457), wk =   0.0054870
        k(  174) = (   0.0555556   0.4444444   0.1719686), wk =   0.0054870
        k(  175) = (   0.0555556   0.4444444   0.2292915), wk =   0.0054870
        k(  176) = (   0.0555556   0.4444444   0.2866144), wk =   0.0054870
        k(  177) = (   0.0555556   0.4444444   0.3439372), wk =   0.0054870
        k(  178) = (   0.0555556   0.4444444   0.4012601), wk =   0.0054870
        k(  179) = (   0.0555556   0.4444444   0.4585830), wk =   0.0054870
        k(  180) = (   0.0555556   0.4444444  -0.5159059), wk =   0.0027435
        k(  181) = (   0.0555556  -0.5000000   0.0000000), wk =   0.0013717
        k(  182) = (   0.0555556  -0.5000000   0.0573229), wk =   0.0027435
        k(  183) = (   0.0555556  -0.5000000   0.1146457), wk =   0.0027435
        k(  184) = (   0.0555556  -0.5000000   0.1719686), wk =   0.0027435
        k(  185) = (   0.0555556  -0.5000000   0.2292915), wk =   0.0027435
        k(  186) = (   0.0555556  -0.5000000   0.2866144), wk =   0.0027435
        k(  187) = (   0.0555556  -0.5000000   0.3439372), wk =   0.0027435
        k(  188) = (   0.0555556  -0.5000000   0.4012601), wk =   0.0027435
        k(  189) = (   0.0555556  -0.5000000   0.4585830), wk =   0.0027435
        k(  190) = (   0.0555556  -0.5000000  -0.5159059), wk =   0.0013717
        k(  191) = (   0.1111111   0.1111111   0.0000000), wk =   0.0013717
        k(  192) = (   0.1111111   0.1111111   0.0573229), wk =   0.0027435
        k(  193) = (   0.1111111   0.1111111   0.1146457), wk =   0.0027435
        k(  194) = (   0.1111111   0.1111111   0.1719686), wk =   0.0027435
        k(  195) = (   0.1111111   0.1111111   0.2292915), wk =   0.0027435
        k(  196) = (   0.1111111   0.1111111   0.2866144), wk =   0.0027435
        k(  197) = (   0.1111111   0.1111111   0.3439372), wk =   0.0027435
        k(  198) = (   0.1111111   0.1111111   0.4012601), wk =   0.0027435
        k(  199) = (   0.1111111   0.1111111   0.4585830), wk =   0.0027435
        k(  200) = (   0.1111111   0.1111111  -0.5159059), wk =   0.0013717
        k(  201) = (   0.1111111   0.1666667   0.0000000), wk =   0.0027435
        k(  202) = (   0.1111111   0.1666667   0.0573229), wk =   0.0054870
        k(  203) = (   0.1111111   0.1666667   0.1146457), wk =   0.0054870
        k(  204) = (   0.1111111   0.1666667   0.1719686), wk =   0.0054870
        k(  205) = (   0.1111111   0.1666667   0.2292915), wk =   0.0054870
        k(  206) = (   0.1111111   0.1666667   0.2866144), wk =   0.0054870
        k(  207) = (   0.1111111   0.1666667   0.3439372), wk =   0.0054870
        k(  208) = (   0.1111111   0.1666667   0.4012601), wk =   0.0054870
        k(  209) = (   0.1111111   0.1666667   0.4585830), wk =   0.0054870
        k(  210) = (   0.1111111   0.1666667  -0.5159059), wk =   0.0027435
        k(  211) = (   0.1111111   0.2222222   0.0000000), wk =   0.0027435
        k(  212) = (   0.1111111   0.2222222   0.0573229), wk =   0.0054870
        k(  213) = (   0.1111111   0.2222222   0.1146457), wk =   0.0054870
        k(  214) = (   0.1111111   0.2222222   0.1719686), wk =   0.0054870
        k(  215) = (   0.1111111   0.2222222   0.2292915), wk =   0.0054870
        k(  216) = (   0.1111111   0.2222222   0.2866144), wk =   0.0054870
        k(  217) = (   0.1111111   0.2222222   0.3439372), wk =   0.0054870
        k(  218) = (   0.1111111   0.2222222   0.4012601), wk =   0.0054870
        k(  219) = (   0.1111111   0.2222222   0.4585830), wk =   0.0054870
        k(  220) = (   0.1111111   0.2222222  -0.5159059), wk =   0.0027435
        k(  221) = (   0.1111111   0.2777778   0.0000000), wk =   0.0027435
        k(  222) = (   0.1111111   0.2777778   0.0573229), wk =   0.0054870
        k(  223) = (   0.1111111   0.2777778   0.1146457), wk =   0.0054870
        k(  224) = (   0.1111111   0.2777778   0.1719686), wk =   0.0054870
        k(  225) = (   0.1111111   0.2777778   0.2292915), wk =   0.0054870
        k(  226) = (   0.1111111   0.2777778   0.2866144), wk =   0.0054870
        k(  227) = (   0.1111111   0.2777778   0.3439372), wk =   0.0054870
        k(  228) = (   0.1111111   0.2777778   0.4012601), wk =   0.0054870
        k(  229) = (   0.1111111   0.2777778   0.4585830), wk =   0.0054870
        k(  230) = (   0.1111111   0.2777778  -0.5159059), wk =   0.0027435
        k(  231) = (   0.1111111   0.3333333   0.0000000), wk =   0.0027435
        k(  232) = (   0.1111111   0.3333333   0.0573229), wk =   0.0054870
        k(  233) = (   0.1111111   0.3333333   0.1146457), wk =   0.0054870
        k(  234) = (   0.1111111   0.3333333   0.1719686), wk =   0.0054870
        k(  235) = (   0.1111111   0.3333333   0.2292915), wk =   0.0054870
        k(  236) = (   0.1111111   0.3333333   0.2866144), wk =   0.0054870
        k(  237) = (   0.1111111   0.3333333   0.3439372), wk =   0.0054870
        k(  238) = (   0.1111111   0.3333333   0.4012601), wk =   0.0054870
        k(  239) = (   0.1111111   0.3333333   0.4585830), wk =   0.0054870
        k(  240) = (   0.1111111   0.3333333  -0.5159059), wk =   0.0027435
        k(  241) = (   0.1111111   0.3888889   0.0000000), wk =   0.0027435
        k(  242) = (   0.1111111   0.3888889   0.0573229), wk =   0.0054870
        k(  243) = (   0.1111111   0.3888889   0.1146457), wk =   0.0054870
        k(  244) = (   0.1111111   0.3888889   0.1719686), wk =   0.0054870
        k(  245) = (   0.1111111   0.3888889   0.2292915), wk =   0.0054870
        k(  246) = (   0.1111111   0.3888889   0.2866144), wk =   0.0054870
        k(  247) = (   0.1111111   0.3888889   0.3439372), wk =   0.0054870
        k(  248) = (   0.1111111   0.3888889   0.4012601), wk =   0.0054870
        k(  249) = (   0.1111111   0.3888889   0.4585830), wk =   0.0054870
        k(  250) = (   0.1111111   0.3888889  -0.5159059), wk =   0.0027435
        k(  251) = (   0.1111111   0.4444444   0.0000000), wk =   0.0027435
        k(  252) = (   0.1111111   0.4444444   0.0573229), wk =   0.0054870
        k(  253) = (   0.1111111   0.4444444   0.1146457), wk =   0.0054870
        k(  254) = (   0.1111111   0.4444444   0.1719686), wk =   0.0054870
        k(  255) = (   0.1111111   0.4444444   0.2292915), wk =   0.0054870
        k(  256) = (   0.1111111   0.4444444   0.2866144), wk =   0.0054870
        k(  257) = (   0.1111111   0.4444444   0.3439372), wk =   0.0054870
        k(  258) = (   0.1111111   0.4444444   0.4012601), wk =   0.0054870
        k(  259) = (   0.1111111   0.4444444   0.4585830), wk =   0.0054870
        k(  260) = (   0.1111111   0.4444444  -0.5159059), wk =   0.0027435
        k(  261) = (   0.1111111  -0.5000000   0.0000000), wk =   0.0013717
        k(  262) = (   0.1111111  -0.5000000   0.0573229), wk =   0.0027435
        k(  263) = (   0.1111111  -0.5000000   0.1146457), wk =   0.0027435
        k(  264) = (   0.1111111  -0.5000000   0.1719686), wk =   0.0027435
        k(  265) = (   0.1111111  -0.5000000   0.2292915), wk =   0.0027435
        k(  266) = (   0.1111111  -0.5000000   0.2866144), wk =   0.0027435
        k(  267) = (   0.1111111  -0.5000000   0.3439372), wk =   0.0027435
        k(  268) = (   0.1111111  -0.5000000   0.4012601), wk =   0.0027435
        k(  269) = (   0.1111111  -0.5000000   0.4585830), wk =   0.0027435
        k(  270) = (   0.1111111  -0.5000000  -0.5159059), wk =   0.0013717
        k(  271) = (   0.1666667   0.1666667   0.0000000), wk =   0.0013717
        k(  272) = (   0.1666667   0.1666667   0.0573229), wk =   0.0027435
        k(  273) = (   0.1666667   0.1666667   0.1146457), wk =   0.0027435
        k(  274) = (   0.1666667   0.1666667   0.1719686), wk =   0.0027435
        k(  275) = (   0.1666667   0.1666667   0.2292915), wk =   0.0027435
        k(  276) = (   0.1666667   0.1666667   0.2866144), wk =   0.0027435
        k(  277) = (   0.1666667   0.1666667   0.3439372), wk =   0.0027435
        k(  278) = (   0.1666667   0.1666667   0.4012601), wk =   0.0027435
        k(  279) = (   0.1666667   0.1666667   0.4585830), wk =   0.0027435
        k(  280) = (   0.1666667   0.1666667  -0.5159059), wk =   0.0013717
        k(  281) = (   0.1666667   0.2222222   0.0000000), wk =   0.0027435
        k(  282) = (   0.1666667   0.2222222   0.0573229), wk =   0.0054870
        k(  283) = (   0.1666667   0.2222222   0.1146457), wk =   0.0054870
        k(  284) = (   0.1666667   0.2222222   0.1719686), wk =   0.0054870
        k(  285) = (   0.1666667   0.2222222   0.2292915), wk =   0.0054870
        k(  286) = (   0.1666667   0.2222222   0.2866144), wk =   0.0054870
        k(  287) = (   0.1666667   0.2222222   0.3439372), wk =   0.0054870
        k(  288) = (   0.1666667   0.2222222   0.4012601), wk =   0.0054870
        k(  289) = (   0.1666667   0.2222222   0.4585830), wk =   0.0054870
        k(  290) = (   0.1666667   0.2222222  -0.5159059), wk =   0.0027435
        k(  291) = (   0.1666667   0.2777778   0.0000000), wk =   0.0027435
        k(  292) = (   0.1666667   0.2777778   0.0573229), wk =   0.0054870
        k(  293) = (   0.1666667   0.2777778   0.1146457), wk =   0.0054870
        k(  294) = (   0.1666667   0.2777778   0.1719686), wk =   0.0054870
        k(  295) = (   0.1666667   0.2777778   0.2292915), wk =   0.0054870
        k(  296) = (   0.1666667   0.2777778   0.2866144), wk =   0.0054870
        k(  297) = (   0.1666667   0.2777778   0.3439372), wk =   0.0054870
        k(  298) = (   0.1666667   0.2777778   0.4012601), wk =   0.0054870
        k(  299) = (   0.1666667   0.2777778   0.4585830), wk =   0.0054870
        k(  300) = (   0.1666667   0.2777778  -0.5159059), wk =   0.0027435
        k(  301) = (   0.1666667   0.3333333   0.0000000), wk =   0.0027435
        k(  302) = (   0.1666667   0.3333333   0.0573229), wk =   0.0054870
        k(  303) = (   0.1666667   0.3333333   0.1146457), wk =   0.0054870
        k(  304) = (   0.1666667   0.3333333   0.1719686), wk =   0.0054870
        k(  305) = (   0.1666667   0.3333333   0.2292915), wk =   0.0054870
        k(  306) = (   0.1666667   0.3333333   0.2866144), wk =   0.0054870
        k(  307) = (   0.1666667   0.3333333   0.3439372), wk =   0.0054870
        k(  308) = (   0.1666667   0.3333333   0.4012601), wk =   0.0054870
        k(  309) = (   0.1666667   0.3333333   0.4585830), wk =   0.0054870
        k(  310) = (   0.1666667   0.3333333  -0.5159059), wk =   0.0027435
        k(  311) = (   0.1666667   0.3888889   0.0000000), wk =   0.0027435
        k(  312) = (   0.1666667   0.3888889   0.0573229), wk =   0.0054870
        k(  313) = (   0.1666667   0.3888889   0.1146457), wk =   0.0054870
        k(  314) = (   0.1666667   0.3888889   0.1719686), wk =   0.0054870
        k(  315) = (   0.1666667   0.3888889   0.2292915), wk =   0.0054870
        k(  316) = (   0.1666667   0.3888889   0.2866144), wk =   0.0054870
        k(  317) = (   0.1666667   0.3888889   0.3439372), wk =   0.0054870
        k(  318) = (   0.1666667   0.3888889   0.4012601), wk =   0.0054870
        k(  319) = (   0.1666667   0.3888889   0.4585830), wk =   0.0054870
        k(  320) = (   0.1666667   0.3888889  -0.5159059), wk =   0.0027435
        k(  321) = (   0.1666667   0.4444444   0.0000000), wk =   0.0027435
        k(  322) = (   0.1666667   0.4444444   0.0573229), wk =   0.0054870
        k(  323) = (   0.1666667   0.4444444   0.1146457), wk =   0.0054870
        k(  324) = (   0.1666667   0.4444444   0.1719686), wk =   0.0054870
        k(  325) = (   0.1666667   0.4444444   0.2292915), wk =   0.0054870
        k(  326) = (   0.1666667   0.4444444   0.2866144), wk =   0.0054870
        k(  327) = (   0.1666667   0.4444444   0.3439372), wk =   0.0054870
        k(  328) = (   0.1666667   0.4444444   0.4012601), wk =   0.0054870
        k(  329) = (   0.1666667   0.4444444   0.4585830), wk =   0.0054870
        k(  330) = (   0.1666667   0.4444444  -0.5159059), wk =   0.0027435
        k(  331) = (   0.1666667  -0.5000000   0.0000000), wk =   0.0013717
        k(  332) = (   0.1666667  -0.5000000   0.0573229), wk =   0.0027435
        k(  333) = (   0.1666667  -0.5000000   0.1146457), wk =   0.0027435
        k(  334) = (   0.1666667  -0.5000000   0.1719686), wk =   0.0027435
        k(  335) = (   0.1666667  -0.5000000   0.2292915), wk =   0.0027435
        k(  336) = (   0.1666667  -0.5000000   0.2866144), wk =   0.0027435
        k(  337) = (   0.1666667  -0.5000000   0.3439372), wk =   0.0027435
        k(  338) = (   0.1666667  -0.5000000   0.4012601), wk =   0.0027435
        k(  339) = (   0.1666667  -0.5000000   0.4585830), wk =   0.0027435
        k(  340) = (   0.1666667  -0.5000000  -0.5159059), wk =   0.0013717
        k(  341) = (   0.2222222   0.2222222   0.0000000), wk =   0.0013717
        k(  342) = (   0.2222222   0.2222222   0.0573229), wk =   0.0027435
        k(  343) = (   0.2222222   0.2222222   0.1146457), wk =   0.0027435
        k(  344) = (   0.2222222   0.2222222   0.1719686), wk =   0.0027435
        k(  345) = (   0.2222222   0.2222222   0.2292915), wk =   0.0027435
        k(  346) = (   0.2222222   0.2222222   0.2866144), wk =   0.0027435
        k(  347) = (   0.2222222   0.2222222   0.3439372), wk =   0.0027435
        k(  348) = (   0.2222222   0.2222222   0.4012601), wk =   0.0027435
        k(  349) = (   0.2222222   0.2222222   0.4585830), wk =   0.0027435
        k(  350) = (   0.2222222   0.2222222  -0.5159059), wk =   0.0013717
        k(  351) = (   0.2222222   0.2777778   0.0000000), wk =   0.0027435
        k(  352) = (   0.2222222   0.2777778   0.0573229), wk =   0.0054870
        k(  353) = (   0.2222222   0.2777778   0.1146457), wk =   0.0054870
        k(  354) = (   0.2222222   0.2777778   0.1719686), wk =   0.0054870
        k(  355) = (   0.2222222   0.2777778   0.2292915), wk =   0.0054870
        k(  356) = (   0.2222222   0.2777778   0.2866144), wk =   0.0054870
        k(  357) = (   0.2222222   0.2777778   0.3439372), wk =   0.0054870
        k(  358) = (   0.2222222   0.2777778   0.4012601), wk =   0.0054870
        k(  359) = (   0.2222222   0.2777778   0.4585830), wk =   0.0054870
        k(  360) = (   0.2222222   0.2777778  -0.5159059), wk =   0.0027435
        k(  361) = (   0.2222222   0.3333333   0.0000000), wk =   0.0027435
        k(  362) = (   0.2222222   0.3333333   0.0573229), wk =   0.0054870
        k(  363) = (   0.2222222   0.3333333   0.1146457), wk =   0.0054870
        k(  364) = (   0.2222222   0.3333333   0.1719686), wk =   0.0054870
        k(  365) = (   0.2222222   0.3333333   0.2292915), wk =   0.0054870
        k(  366) = (   0.2222222   0.3333333   0.2866144), wk =   0.0054870
        k(  367) = (   0.2222222   0.3333333   0.3439372), wk =   0.0054870
        k(  368) = (   0.2222222   0.3333333   0.4012601), wk =   0.0054870
        k(  369) = (   0.2222222   0.3333333   0.4585830), wk =   0.0054870
        k(  370) = (   0.2222222   0.3333333  -0.5159059), wk =   0.0027435
        k(  371) = (   0.2222222   0.3888889   0.0000000), wk =   0.0027435
        k(  372) = (   0.2222222   0.3888889   0.0573229), wk =   0.0054870
        k(  373) = (   0.2222222   0.3888889   0.1146457), wk =   0.0054870
        k(  374) = (   0.2222222   0.3888889   0.1719686), wk =   0.0054870
        k(  375) = (   0.2222222   0.3888889   0.2292915), wk =   0.0054870
        k(  376) = (   0.2222222   0.3888889   0.2866144), wk =   0.0054870
        k(  377) = (   0.2222222   0.3888889   0.3439372), wk =   0.0054870
        k(  378) = (   0.2222222   0.3888889   0.4012601), wk =   0.0054870
        k(  379) = (   0.2222222   0.3888889   0.4585830), wk =   0.0054870
        k(  380) = (   0.2222222   0.3888889  -0.5159059), wk =   0.0027435
        k(  381) = (   0.2222222   0.4444444   0.0000000), wk =   0.0027435
        k(  382) = (   0.2222222   0.4444444   0.0573229), wk =   0.0054870
        k(  383) = (   0.2222222   0.4444444   0.1146457), wk =   0.0054870
        k(  384) = (   0.2222222   0.4444444   0.1719686), wk =   0.0054870
        k(  385) = (   0.2222222   0.4444444   0.2292915), wk =   0.0054870
        k(  386) = (   0.2222222   0.4444444   0.2866144), wk =   0.0054870
        k(  387) = (   0.2222222   0.4444444   0.3439372), wk =   0.0054870
        k(  388) = (   0.2222222   0.4444444   0.4012601), wk =   0.0054870
        k(  389) = (   0.2222222   0.4444444   0.4585830), wk =   0.0054870
        k(  390) = (   0.2222222   0.4444444  -0.5159059), wk =   0.0027435
        k(  391) = (   0.2222222  -0.5000000   0.0000000), wk =   0.0013717
        k(  392) = (   0.2222222  -0.5000000   0.0573229), wk =   0.0027435
        k(  393) = (   0.2222222  -0.5000000   0.1146457), wk =   0.0027435
        k(  394) = (   0.2222222  -0.5000000   0.1719686), wk =   0.0027435
        k(  395) = (   0.2222222  -0.5000000   0.2292915), wk =   0.0027435
        k(  396) = (   0.2222222  -0.5000000   0.2866144), wk =   0.0027435
        k(  397) = (   0.2222222  -0.5000000   0.3439372), wk =   0.0027435
        k(  398) = (   0.2222222  -0.5000000   0.4012601), wk =   0.0027435
        k(  399) = (   0.2222222  -0.5000000   0.4585830), wk =   0.0027435
        k(  400) = (   0.2222222  -0.5000000  -0.5159059), wk =   0.0013717
        k(  401) = (   0.2777778   0.2777778   0.0000000), wk =   0.0013717
        k(  402) = (   0.2777778   0.2777778   0.0573229), wk =   0.0027435
        k(  403) = (   0.2777778   0.2777778   0.1146457), wk =   0.0027435
        k(  404) = (   0.2777778   0.2777778   0.1719686), wk =   0.0027435
        k(  405) = (   0.2777778   0.2777778   0.2292915), wk =   0.0027435
        k(  406) = (   0.2777778   0.2777778   0.2866144), wk =   0.0027435
        k(  407) = (   0.2777778   0.2777778   0.3439372), wk =   0.0027435
        k(  408) = (   0.2777778   0.2777778   0.4012601), wk =   0.0027435
        k(  409) = (   0.2777778   0.2777778   0.4585830), wk =   0.0027435
        k(  410) = (   0.2777778   0.2777778  -0.5159059), wk =   0.0013717
        k(  411) = (   0.2777778   0.3333333   0.0000000), wk =   0.0027435
        k(  412) = (   0.2777778   0.3333333   0.0573229), wk =   0.0054870
        k(  413) = (   0.2777778   0.3333333   0.1146457), wk =   0.0054870
        k(  414) = (   0.2777778   0.3333333   0.1719686), wk =   0.0054870
        k(  415) = (   0.2777778   0.3333333   0.2292915), wk =   0.0054870
        k(  416) = (   0.2777778   0.3333333   0.2866144), wk =   0.0054870
        k(  417) = (   0.2777778   0.3333333   0.3439372), wk =   0.0054870
        k(  418) = (   0.2777778   0.3333333   0.4012601), wk =   0.0054870
        k(  419) = (   0.2777778   0.3333333   0.4585830), wk =   0.0054870
        k(  420) = (   0.2777778   0.3333333  -0.5159059), wk =   0.0027435
        k(  421) = (   0.2777778   0.3888889   0.0000000), wk =   0.0027435
        k(  422) = (   0.2777778   0.3888889   0.0573229), wk =   0.0054870
        k(  423) = (   0.2777778   0.3888889   0.1146457), wk =   0.0054870
        k(  424) = (   0.2777778   0.3888889   0.1719686), wk =   0.0054870
        k(  425) = (   0.2777778   0.3888889   0.2292915), wk =   0.0054870
        k(  426) = (   0.2777778   0.3888889   0.2866144), wk =   0.0054870
        k(  427) = (   0.2777778   0.3888889   0.3439372), wk =   0.0054870
        k(  428) = (   0.2777778   0.3888889   0.4012601), wk =   0.0054870
        k(  429) = (   0.2777778   0.3888889   0.4585830), wk =   0.0054870
        k(  430) = (   0.2777778   0.3888889  -0.5159059), wk =   0.0027435
        k(  431) = (   0.2777778   0.4444444   0.0000000), wk =   0.0027435
        k(  432) = (   0.2777778   0.4444444   0.0573229), wk =   0.0054870
        k(  433) = (   0.2777778   0.4444444   0.1146457), wk =   0.0054870
        k(  434) = (   0.2777778   0.4444444   0.1719686), wk =   0.0054870
        k(  435) = (   0.2777778   0.4444444   0.2292915), wk =   0.0054870
        k(  436) = (   0.2777778   0.4444444   0.2866144), wk =   0.0054870
        k(  437) = (   0.2777778   0.4444444   0.3439372), wk =   0.0054870
        k(  438) = (   0.2777778   0.4444444   0.4012601), wk =   0.0054870
        k(  439) = (   0.2777778   0.4444444   0.4585830), wk =   0.0054870
        k(  440) = (   0.2777778   0.4444444  -0.5159059), wk =   0.0027435
        k(  441) = (   0.2777778  -0.5000000   0.0000000), wk =   0.0013717
        k(  442) = (   0.2777778  -0.5000000   0.0573229), wk =   0.0027435
        k(  443) = (   0.2777778  -0.5000000   0.1146457), wk =   0.0027435
        k(  444) = (   0.2777778  -0.5000000   0.1719686), wk =   0.0027435
        k(  445) = (   0.2777778  -0.5000000   0.2292915), wk =   0.0027435
        k(  446) = (   0.2777778  -0.5000000   0.2866144), wk =   0.0027435
        k(  447) = (   0.2777778  -0.5000000   0.3439372), wk =   0.0027435
        k(  448) = (   0.2777778  -0.5000000   0.4012601), wk =   0.0027435
        k(  449) = (   0.2777778  -0.5000000   0.4585830), wk =   0.0027435
        k(  450) = (   0.2777778  -0.5000000  -0.5159059), wk =   0.0013717
        k(  451) = (   0.3333333   0.3333333   0.0000000), wk =   0.0013717
        k(  452) = (   0.3333333   0.3333333   0.0573229), wk =   0.0027435
        k(  453) = (   0.3333333   0.3333333   0.1146457), wk =   0.0027435
        k(  454) = (   0.3333333   0.3333333   0.1719686), wk =   0.0027435
        k(  455) = (   0.3333333   0.3333333   0.2292915), wk =   0.0027435
        k(  456) = (   0.3333333   0.3333333   0.2866144), wk =   0.0027435
        k(  457) = (   0.3333333   0.3333333   0.3439372), wk =   0.0027435
        k(  458) = (   0.3333333   0.3333333   0.4012601), wk =   0.0027435
        k(  459) = (   0.3333333   0.3333333   0.4585830), wk =   0.0027435
        k(  460) = (   0.3333333   0.3333333  -0.5159059), wk =   0.0013717
        k(  461) = (   0.3333333   0.3888889   0.0000000), wk =   0.0027435
        k(  462) = (   0.3333333   0.3888889   0.0573229), wk =   0.0054870
        k(  463) = (   0.3333333   0.3888889   0.1146457), wk =   0.0054870
        k(  464) = (   0.3333333   0.3888889   0.1719686), wk =   0.0054870
        k(  465) = (   0.3333333   0.3888889   0.2292915), wk =   0.0054870
        k(  466) = (   0.3333333   0.3888889   0.2866144), wk =   0.0054870
        k(  467) = (   0.3333333   0.3888889   0.3439372), wk =   0.0054870
        k(  468) = (   0.3333333   0.3888889   0.4012601), wk =   0.0054870
        k(  469) = (   0.3333333   0.3888889   0.4585830), wk =   0.0054870
        k(  470) = (   0.3333333   0.3888889  -0.5159059), wk =   0.0027435
        k(  471) = (   0.3333333   0.4444444   0.0000000), wk =   0.0027435
        k(  472) = (   0.3333333   0.4444444   0.0573229), wk =   0.0054870
        k(  473) = (   0.3333333   0.4444444   0.1146457), wk =   0.0054870
        k(  474) = (   0.3333333   0.4444444   0.1719686), wk =   0.0054870
        k(  475) = (   0.3333333   0.4444444   0.2292915), wk =   0.0054870
        k(  476) = (   0.3333333   0.4444444   0.2866144), wk =   0.0054870
        k(  477) = (   0.3333333   0.4444444   0.3439372), wk =   0.0054870
        k(  478) = (   0.3333333   0.4444444   0.4012601), wk =   0.0054870
        k(  479) = (   0.3333333   0.4444444   0.4585830), wk =   0.0054870
        k(  480) = (   0.3333333   0.4444444  -0.5159059), wk =   0.0027435
        k(  481) = (   0.3333333  -0.5000000   0.0000000), wk =   0.0013717
        k(  482) = (   0.3333333  -0.5000000   0.0573229), wk =   0.0027435
        k(  483) = (   0.3333333  -0.5000000   0.1146457), wk =   0.0027435
        k(  484) = (   0.3333333  -0.5000000   0.1719686), wk =   0.0027435
        k(  485) = (   0.3333333  -0.5000000   0.2292915), wk =   0.0027435
        k(  486) = (   0.3333333  -0.5000000   0.2866144), wk =   0.0027435
        k(  487) = (   0.3333333  -0.5000000   0.3439372), wk =   0.0027435
        k(  488) = (   0.3333333  -0.5000000   0.4012601), wk =   0.0027435
        k(  489) = (   0.3333333  -0.5000000   0.4585830), wk =   0.0027435
        k(  490) = (   0.3333333  -0.5000000  -0.5159059), wk =   0.0013717
        k(  491) = (   0.3888889   0.3888889   0.0000000), wk =   0.0013717
        k(  492) = (   0.3888889   0.3888889   0.0573229), wk =   0.0027435
        k(  493) = (   0.3888889   0.3888889   0.1146457), wk =   0.0027435
        k(  494) = (   0.3888889   0.3888889   0.1719686), wk =   0.0027435
        k(  495) = (   0.3888889   0.3888889   0.2292915), wk =   0.0027435
        k(  496) = (   0.3888889   0.3888889   0.2866144), wk =   0.0027435
        k(  497) = (   0.3888889   0.3888889   0.3439372), wk =   0.0027435
        k(  498) = (   0.3888889   0.3888889   0.4012601), wk =   0.0027435
        k(  499) = (   0.3888889   0.3888889   0.4585830), wk =   0.0027435
        k(  500) = (   0.3888889   0.3888889  -0.5159059), wk =   0.0013717
        k(  501) = (   0.3888889   0.4444444   0.0000000), wk =   0.0027435
        k(  502) = (   0.3888889   0.4444444   0.0573229), wk =   0.0054870
        k(  503) = (   0.3888889   0.4444444   0.1146457), wk =   0.0054870
        k(  504) = (   0.3888889   0.4444444   0.1719686), wk =   0.0054870
        k(  505) = (   0.3888889   0.4444444   0.2292915), wk =   0.0054870
        k(  506) = (   0.3888889   0.4444444   0.2866144), wk =   0.0054870
        k(  507) = (   0.3888889   0.4444444   0.3439372), wk =   0.0054870
        k(  508) = (   0.3888889   0.4444444   0.4012601), wk =   0.0054870
        k(  509) = (   0.3888889   0.4444444   0.4585830), wk =   0.0054870
        k(  510) = (   0.3888889   0.4444444  -0.5159059), wk =   0.0027435
        k(  511) = (   0.3888889  -0.5000000   0.0000000), wk =   0.0013717
        k(  512) = (   0.3888889  -0.5000000   0.0573229), wk =   0.0027435
        k(  513) = (   0.3888889  -0.5000000   0.1146457), wk =   0.0027435
        k(  514) = (   0.3888889  -0.5000000   0.1719686), wk =   0.0027435
        k(  515) = (   0.3888889  -0.5000000   0.2292915), wk =   0.0027435
        k(  516) = (   0.3888889  -0.5000000   0.2866144), wk =   0.0027435
        k(  517) = (   0.3888889  -0.5000000   0.3439372), wk =   0.0027435
        k(  518) = (   0.3888889  -0.5000000   0.4012601), wk =   0.0027435
        k(  519) = (   0.3888889  -0.5000000   0.4585830), wk =   0.0027435
        k(  520) = (   0.3888889  -0.5000000  -0.5159059), wk =   0.0013717
        k(  521) = (   0.4444444   0.4444444   0.0000000), wk =   0.0013717
        k(  522) = (   0.4444444   0.4444444   0.0573229), wk =   0.0027435
        k(  523) = (   0.4444444   0.4444444   0.1146457), wk =   0.0027435
        k(  524) = (   0.4444444   0.4444444   0.1719686), wk =   0.0027435
        k(  525) = (   0.4444444   0.4444444   0.2292915), wk =   0.0027435
        k(  526) = (   0.4444444   0.4444444   0.2866144), wk =   0.0027435
        k(  527) = (   0.4444444   0.4444444   0.3439372), wk =   0.0027435
        k(  528) = (   0.4444444   0.4444444   0.4012601), wk =   0.0027435
        k(  529) = (   0.4444444   0.4444444   0.4585830), wk =   0.0027435
        k(  530) = (   0.4444444   0.4444444  -0.5159059), wk =   0.0013717
        k(  531) = (   0.4444444  -0.5000000   0.0000000), wk =   0.0013717
        k(  532) = (   0.4444444  -0.5000000   0.0573229), wk =   0.0027435
        k(  533) = (   0.4444444  -0.5000000   0.1146457), wk =   0.0027435
        k(  534) = (   0.4444444  -0.5000000   0.1719686), wk =   0.0027435
        k(  535) = (   0.4444444  -0.5000000   0.2292915), wk =   0.0027435
        k(  536) = (   0.4444444  -0.5000000   0.2866144), wk =   0.0027435
        k(  537) = (   0.4444444  -0.5000000   0.3439372), wk =   0.0027435
        k(  538) = (   0.4444444  -0.5000000   0.4012601), wk =   0.0027435
        k(  539) = (   0.4444444  -0.5000000   0.4585830), wk =   0.0027435
        k(  540) = (   0.4444444  -0.5000000  -0.5159059), wk =   0.0013717
        k(  541) = (  -0.5000000  -0.5000000   0.0000000), wk =   0.0003429
        k(  542) = (  -0.5000000  -0.5000000   0.0573229), wk =   0.0006859
        k(  543) = (  -0.5000000  -0.5000000   0.1146457), wk =   0.0006859
        k(  544) = (  -0.5000000  -0.5000000   0.1719686), wk =   0.0006859
        k(  545) = (  -0.5000000  -0.5000000   0.2292915), wk =   0.0006859
        k(  546) = (  -0.5000000  -0.5000000   0.2866144), wk =   0.0006859
        k(  547) = (  -0.5000000  -0.5000000   0.3439372), wk =   0.0006859
        k(  548) = (  -0.5000000  -0.5000000   0.4012601), wk =   0.0006859
        k(  549) = (  -0.5000000  -0.5000000   0.4585830), wk =   0.0006859
        k(  550) = (  -0.5000000  -0.5000000  -0.5159059), wk =   0.0003429

                       cryst. coord.
        k(    1) = (   0.0000000   0.0000000   0.0000000), wk =   0.0003429
        k(    2) = (   0.0000000   0.0000000   0.0555556), wk =   0.0006859
        k(    3) = (   0.0000000   0.0000000   0.1111111), wk =   0.0006859
        k(    4) = (   0.0000000   0.0000000   0.1666667), wk =   0.0006859
        k(    5) = (   0.0000000   0.0000000   0.2222222), wk =   0.0006859
        k(    6) = (   0.0000000   0.0000000   0.2777778), wk =   0.0006859
        k(    7) = (   0.0000000   0.0000000   0.3333333), wk =   0.0006859
        k(    8) = (   0.0000000   0.0000000   0.3888889), wk =   0.0006859
        k(    9) = (   0.0000000   0.0000000   0.4444444), wk =   0.0006859
        k(   10) = (   0.0000000   0.0000000  -0.5000000), wk =   0.0003429
        k(   11) = (   0.0000000   0.0555556   0.0000000), wk =   0.0013717
        k(   12) = (   0.0000000   0.0555556   0.0555556), wk =   0.0027435
        k(   13) = (   0.0000000   0.0555556   0.1111111), wk =   0.0027435
        k(   14) = (   0.0000000   0.0555556   0.1666667), wk =   0.0027435
        k(   15) = (   0.0000000   0.0555556   0.2222222), wk =   0.0027435
        k(   16) = (   0.0000000   0.0555556   0.2777778), wk =   0.0027435
        k(   17) = (   0.0000000   0.0555556   0.3333333), wk =   0.0027435
        k(   18) = (   0.0000000   0.0555556   0.3888889), wk =   0.0027435
        k(   19) = (   0.0000000   0.0555556   0.4444444), wk =   0.0027435
        k(   20) = (   0.0000000   0.0555556  -0.5000000), wk =   0.0013717
        k(   21) = (   0.0000000   0.1111111   0.0000000), wk =   0.0013717
        k(   22) = (   0.0000000   0.1111111   0.0555556), wk =   0.0027435
        k(   23) = (   0.0000000   0.1111111   0.1111111), wk =   0.0027435
        k(   24) = (   0.0000000   0.1111111   0.1666667), wk =   0.0027435
        k(   25) = (   0.0000000   0.1111111   0.2222222), wk =   0.0027435
        k(   26) = (   0.0000000   0.1111111   0.2777778), wk =   0.0027435
        k(   27) = (   0.0000000   0.1111111   0.3333333), wk =   0.0027435
        k(   28) = (   0.0000000   0.1111111   0.3888889), wk =   0.0027435
        k(   29) = (   0.0000000   0.1111111   0.4444444), wk =   0.0027435
        k(   30) = (   0.0000000   0.1111111  -0.5000000), wk =   0.0013717
        k(   31) = (   0.0000000   0.1666667   0.0000000), wk =   0.0013717
        k(   32) = (   0.0000000   0.1666667   0.0555556), wk =   0.0027435
        k(   33) = (   0.0000000   0.1666667   0.1111111), wk =   0.0027435
        k(   34) = (   0.0000000   0.1666667   0.1666667), wk =   0.0027435
        k(   35) = (   0.0000000   0.1666667   0.2222222), wk =   0.0027435
        k(   36) = (   0.0000000   0.1666667   0.2777778), wk =   0.0027435
        k(   37) = (   0.0000000   0.1666667   0.3333333), wk =   0.0027435
        k(   38) = (   0.0000000   0.1666667   0.3888889), wk =   0.0027435
        k(   39) = (   0.0000000   0.1666667   0.4444444), wk =   0.0027435
        k(   40) = (   0.0000000   0.1666667  -0.5000000), wk =   0.0013717
        k(   41) = (   0.0000000   0.2222222   0.0000000), wk =   0.0013717
        k(   42) = (   0.0000000   0.2222222   0.0555556), wk =   0.0027435
        k(   43) = (   0.0000000   0.2222222   0.1111111), wk =   0.0027435
        k(   44) = (   0.0000000   0.2222222   0.1666667), wk =   0.0027435
        k(   45) = (   0.0000000   0.2222222   0.2222222), wk =   0.0027435
        k(   46) = (   0.0000000   0.2222222   0.2777778), wk =   0.0027435
        k(   47) = (   0.0000000   0.2222222   0.3333333), wk =   0.0027435
        k(   48) = (   0.0000000   0.2222222   0.3888889), wk =   0.0027435
        k(   49) = (   0.0000000   0.2222222   0.4444444), wk =   0.0027435
        k(   50) = (   0.0000000   0.2222222  -0.5000000), wk =   0.0013717
        k(   51) = (   0.0000000   0.2777778   0.0000000), wk =   0.0013717
        k(   52) = (   0.0000000   0.2777778   0.0555556), wk =   0.0027435
        k(   53) = (   0.0000000   0.2777778   0.1111111), wk =   0.0027435
        k(   54) = (   0.0000000   0.2777778   0.1666667), wk =   0.0027435
        k(   55) = (   0.0000000   0.2777778   0.2222222), wk =   0.0027435
        k(   56) = (   0.0000000   0.2777778   0.2777778), wk =   0.0027435
        k(   57) = (   0.0000000   0.2777778   0.3333333), wk =   0.0027435
        k(   58) = (   0.0000000   0.2777778   0.3888889), wk =   0.0027435
        k(   59) = (   0.0000000   0.2777778   0.4444444), wk =   0.0027435
        k(   60) = (   0.0000000   0.2777778  -0.5000000), wk =   0.0013717
        k(   61) = (   0.0000000   0.3333333   0.0000000), wk =   0.0013717
        k(   62) = (   0.0000000   0.3333333   0.0555556), wk =   0.0027435
        k(   63) = (   0.0000000   0.3333333   0.1111111), wk =   0.0027435
        k(   64) = (   0.0000000   0.3333333   0.1666667), wk =   0.0027435
        k(   65) = (   0.0000000   0.3333333   0.2222222), wk =   0.0027435
        k(   66) = (   0.0000000   0.3333333   0.2777778), wk =   0.0027435
        k(   67) = (   0.0000000   0.3333333   0.3333333), wk =   0.0027435
        k(   68) = (   0.0000000   0.3333333   0.3888889), wk =   0.0027435
        k(   69) = (   0.0000000   0.3333333   0.4444444), wk =   0.0027435
        k(   70) = (   0.0000000   0.3333333  -0.5000000), wk =   0.0013717
        k(   71) = (   0.0000000   0.3888889   0.0000000), wk =   0.0013717
        k(   72) = (   0.0000000   0.3888889   0.0555556), wk =   0.0027435
        k(   73) = (   0.0000000   0.3888889   0.1111111), wk =   0.0027435
        k(   74) = (   0.0000000   0.3888889   0.1666667), wk =   0.0027435
        k(   75) = (   0.0000000   0.3888889   0.2222222), wk =   0.0027435
        k(   76) = (   0.0000000   0.3888889   0.2777778), wk =   0.0027435
        k(   77) = (   0.0000000   0.3888889   0.3333333), wk =   0.0027435
        k(   78) = (   0.0000000   0.3888889   0.3888889), wk =   0.0027435
        k(   79) = (   0.0000000   0.3888889   0.4444444), wk =   0.0027435
        k(   80) = (   0.0000000   0.3888889  -0.5000000), wk =   0.0013717
        k(   81) = (   0.0000000   0.4444444   0.0000000), wk =   0.0013717
        k(   82) = (   0.0000000   0.4444444   0.0555556), wk =   0.0027435
        k(   83) = (   0.0000000   0.4444444   0.1111111), wk =   0.0027435
        k(   84) = (   0.0000000   0.4444444   0.1666667), wk =   0.0027435
        k(   85) = (   0.0000000   0.4444444   0.2222222), wk =   0.0027435
        k(   86) = (   0.0000000   0.4444444   0.2777778), wk =   0.0027435
        k(   87) = (   0.0000000   0.4444444   0.3333333), wk =   0.0027435
        k(   88) = (   0.0000000   0.4444444   0.3888889), wk =   0.0027435
        k(   89) = (   0.0000000   0.4444444   0.4444444), wk =   0.0027435
        k(   90) = (   0.0000000   0.4444444  -0.5000000), wk =   0.0013717
        k(   91) = (   0.0000000  -0.5000000   0.0000000), wk =   0.0006859
        k(   92) = (   0.0000000  -0.5000000   0.0555556), wk =   0.0013717
        k(   93) = (   0.0000000  -0.5000000   0.1111111), wk =   0.0013717
        k(   94) = (   0.0000000  -0.5000000   0.1666667), wk =   0.0013717
        k(   95) = (   0.0000000  -0.5000000   0.2222222), wk =   0.0013717
        k(   96) = (   0.0000000  -0.5000000   0.2777778), wk =   0.0013717
        k(   97) = (   0.0000000  -0.5000000   0.3333333), wk =   0.0013717
        k(   98) = (   0.0000000  -0.5000000   0.3888889), wk =   0.0013717
        k(   99) = (   0.0000000  -0.5000000   0.4444444), wk =   0.0013717
        k(  100) = (   0.0000000  -0.5000000  -0.5000000), wk =   0.0006859
        k(  101) = (   0.0555556   0.0555556   0.0000000), wk =   0.0013717
        k(  102) = (   0.0555556   0.0555556   0.0555556), wk =   0.0027435
        k(  103) = (   0.0555556   0.0555556   0.1111111), wk =   0.0027435
        k(  104) = (   0.0555556   0.0555556   0.1666667), wk =   0.0027435
        k(  105) = (   0.0555556   0.0555556   0.2222222), wk =   0.0027435
        k(  106) = (   0.0555556   0.0555556   0.2777778), wk =   0.0027435
        k(  107) = (   0.0555556   0.0555556   0.3333333), wk =   0.0027435
        k(  108) = (   0.0555556   0.0555556   0.3888889), wk =   0.0027435
        k(  109) = (   0.0555556   0.0555556   0.4444444), wk =   0.0027435
        k(  110) = (   0.0555556   0.0555556  -0.5000000), wk =   0.0013717
        k(  111) = (   0.0555556   0.1111111   0.0000000), wk =   0.0027435
        k(  112) = (   0.0555556   0.1111111   0.0555556), wk =   0.0054870
        k(  113) = (   0.0555556   0.1111111   0.1111111), wk =   0.0054870
        k(  114) = (   0.0555556   0.1111111   0.1666667), wk =   0.0054870
        k(  115) = (   0.0555556   0.1111111   0.2222222), wk =   0.0054870
        k(  116) = (   0.0555556   0.1111111   0.2777778), wk =   0.0054870
        k(  117) = (   0.0555556   0.1111111   0.3333333), wk =   0.0054870
        k(  118) = (   0.0555556   0.1111111   0.3888889), wk =   0.0054870
        k(  119) = (   0.0555556   0.1111111   0.4444444), wk =   0.0054870
        k(  120) = (   0.0555556   0.1111111  -0.5000000), wk =   0.0027435
        k(  121) = (   0.0555556   0.1666667   0.0000000), wk =   0.0027435
        k(  122) = (   0.0555556   0.1666667   0.0555556), wk =   0.0054870
        k(  123) = (   0.0555556   0.1666667   0.1111111), wk =   0.0054870
        k(  124) = (   0.0555556   0.1666667   0.1666667), wk =   0.0054870
        k(  125) = (   0.0555556   0.1666667   0.2222222), wk =   0.0054870
        k(  126) = (   0.0555556   0.1666667   0.2777778), wk =   0.0054870
        k(  127) = (   0.0555556   0.1666667   0.3333333), wk =   0.0054870
        k(  128) = (   0.0555556   0.1666667   0.3888889), wk =   0.0054870
        k(  129) = (   0.0555556   0.1666667   0.4444444), wk =   0.0054870
        k(  130) = (   0.0555556   0.1666667  -0.5000000), wk =   0.0027435
        k(  131) = (   0.0555556   0.2222222   0.0000000), wk =   0.0027435
        k(  132) = (   0.0555556   0.2222222   0.0555556), wk =   0.0054870
        k(  133) = (   0.0555556   0.2222222   0.1111111), wk =   0.0054870
        k(  134) = (   0.0555556   0.2222222   0.1666667), wk =   0.0054870
        k(  135) = (   0.0555556   0.2222222   0.2222222), wk =   0.0054870
        k(  136) = (   0.0555556   0.2222222   0.2777778), wk =   0.0054870
        k(  137) = (   0.0555556   0.2222222   0.3333333), wk =   0.0054870
        k(  138) = (   0.0555556   0.2222222   0.3888889), wk =   0.0054870
        k(  139) = (   0.0555556   0.2222222   0.4444444), wk =   0.0054870
        k(  140) = (   0.0555556   0.2222222  -0.5000000), wk =   0.0027435
        k(  141) = (   0.0555556   0.2777778   0.0000000), wk =   0.0027435
        k(  142) = (   0.0555556   0.2777778   0.0555556), wk =   0.0054870
        k(  143) = (   0.0555556   0.2777778   0.1111111), wk =   0.0054870
        k(  144) = (   0.0555556   0.2777778   0.1666667), wk =   0.0054870
        k(  145) = (   0.0555556   0.2777778   0.2222222), wk =   0.0054870
        k(  146) = (   0.0555556   0.2777778   0.2777778), wk =   0.0054870
        k(  147) = (   0.0555556   0.2777778   0.3333333), wk =   0.0054870
        k(  148) = (   0.0555556   0.2777778   0.3888889), wk =   0.0054870
        k(  149) = (   0.0555556   0.2777778   0.4444444), wk =   0.0054870
        k(  150) = (   0.0555556   0.2777778  -0.5000000), wk =   0.0027435
        k(  151) = (   0.0555556   0.3333333   0.0000000), wk =   0.0027435
        k(  152) = (   0.0555556   0.3333333   0.0555556), wk =   0.0054870
        k(  153) = (   0.0555556   0.3333333   0.1111111), wk =   0.0054870
        k(  154) = (   0.0555556   0.3333333   0.1666667), wk =   0.0054870
        k(  155) = (   0.0555556   0.3333333   0.2222222), wk =   0.0054870
        k(  156) = (   0.0555556   0.3333333   0.2777778), wk =   0.0054870
        k(  157) = (   0.0555556   0.3333333   0.3333333), wk =   0.0054870
        k(  158) = (   0.0555556   0.3333333   0.3888889), wk =   0.0054870
        k(  159) = (   0.0555556   0.3333333   0.4444444), wk =   0.0054870
        k(  160) = (   0.0555556   0.3333333  -0.5000000), wk =   0.0027435
        k(  161) = (   0.0555556   0.3888889   0.0000000), wk =   0.0027435
        k(  162) = (   0.0555556   0.3888889   0.0555556), wk =   0.0054870
        k(  163) = (   0.0555556   0.3888889   0.1111111), wk =   0.0054870
        k(  164) = (   0.0555556   0.3888889   0.1666667), wk =   0.0054870
        k(  165) = (   0.0555556   0.3888889   0.2222222), wk =   0.0054870
        k(  166) = (   0.0555556   0.3888889   0.2777778), wk =   0.0054870
        k(  167) = (   0.0555556   0.3888889   0.3333333), wk =   0.0054870
        k(  168) = (   0.0555556   0.3888889   0.3888889), wk =   0.0054870
        k(  169) = (   0.0555556   0.3888889   0.4444444), wk =   0.0054870
        k(  170) = (   0.0555556   0.3888889  -0.5000000), wk =   0.0027435
        k(  171) = (   0.0555556   0.4444444   0.0000000), wk =   0.0027435
        k(  172) = (   0.0555556   0.4444444   0.0555556), wk =   0.0054870
        k(  173) = (   0.0555556   0.4444444   0.1111111), wk =   0.0054870
        k(  174) = (   0.0555556   0.4444444   0.1666667), wk =   0.0054870
        k(  175) = (   0.0555556   0.4444444   0.2222222), wk =   0.0054870
        k(  176) = (   0.0555556   0.4444444   0.2777778), wk =   0.0054870
        k(  177) = (   0.0555556   0.4444444   0.3333333), wk =   0.0054870
        k(  178) = (   0.0555556   0.4444444   0.3888889), wk =   0.0054870
        k(  179) = (   0.0555556   0.4444444   0.4444444), wk =   0.0054870
        k(  180) = (   0.0555556   0.4444444  -0.5000000), wk =   0.0027435
        k(  181) = (   0.0555556  -0.5000000   0.0000000), wk =   0.0013717
        k(  182) = (   0.0555556  -0.5000000   0.0555556), wk =   0.0027435
        k(  183) = (   0.0555556  -0.5000000   0.1111111), wk =   0.0027435
        k(  184) = (   0.0555556  -0.5000000   0.1666667), wk =   0.0027435
        k(  185) = (   0.0555556  -0.5000000   0.2222222), wk =   0.0027435
        k(  186) = (   0.0555556  -0.5000000   0.2777778), wk =   0.0027435
        k(  187) = (   0.0555556  -0.5000000   0.3333333), wk =   0.0027435
        k(  188) = (   0.0555556  -0.5000000   0.3888889), wk =   0.0027435
        k(  189) = (   0.0555556  -0.5000000   0.4444444), wk =   0.0027435
        k(  190) = (   0.0555556  -0.5000000  -0.5000000), wk =   0.0013717
        k(  191) = (   0.1111111   0.1111111   0.0000000), wk =   0.0013717
        k(  192) = (   0.1111111   0.1111111   0.0555556), wk =   0.0027435
        k(  193) = (   0.1111111   0.1111111   0.1111111), wk =   0.0027435
        k(  194) = (   0.1111111   0.1111111   0.1666667), wk =   0.0027435
        k(  195) = (   0.1111111   0.1111111   0.2222222), wk =   0.0027435
        k(  196) = (   0.1111111   0.1111111   0.2777778), wk =   0.0027435
        k(  197) = (   0.1111111   0.1111111   0.3333333), wk =   0.0027435
        k(  198) = (   0.1111111   0.1111111   0.3888889), wk =   0.0027435
        k(  199) = (   0.1111111   0.1111111   0.4444444), wk =   0.0027435
        k(  200) = (   0.1111111   0.1111111  -0.5000000), wk =   0.0013717
        k(  201) = (   0.1111111   0.1666667   0.0000000), wk =   0.0027435
        k(  202) = (   0.1111111   0.1666667   0.0555556), wk =   0.0054870
        k(  203) = (   0.1111111   0.1666667   0.1111111), wk =   0.0054870
        k(  204) = (   0.1111111   0.1666667   0.1666667), wk =   0.0054870
        k(  205) = (   0.1111111   0.1666667   0.2222222), wk =   0.0054870
        k(  206) = (   0.1111111   0.1666667   0.2777778), wk =   0.0054870
        k(  207) = (   0.1111111   0.1666667   0.3333333), wk =   0.0054870
        k(  208) = (   0.1111111   0.1666667   0.3888889), wk =   0.0054870
        k(  209) = (   0.1111111   0.1666667   0.4444444), wk =   0.0054870
        k(  210) = (   0.1111111   0.1666667  -0.5000000), wk =   0.0027435
        k(  211) = (   0.1111111   0.2222222   0.0000000), wk =   0.0027435
        k(  212) = (   0.1111111   0.2222222   0.0555556), wk =   0.0054870
        k(  213) = (   0.1111111   0.2222222   0.1111111), wk =   0.0054870
        k(  214) = (   0.1111111   0.2222222   0.1666667), wk =   0.0054870
        k(  215) = (   0.1111111   0.2222222   0.2222222), wk =   0.0054870
        k(  216) = (   0.1111111   0.2222222   0.2777778), wk =   0.0054870
        k(  217) = (   0.1111111   0.2222222   0.3333333), wk =   0.0054870
        k(  218) = (   0.1111111   0.2222222   0.3888889), wk =   0.0054870
        k(  219) = (   0.1111111   0.2222222   0.4444444), wk =   0.0054870
        k(  220) = (   0.1111111   0.2222222  -0.5000000), wk =   0.0027435
        k(  221) = (   0.1111111   0.2777778   0.0000000), wk =   0.0027435
        k(  222) = (   0.1111111   0.2777778   0.0555556), wk =   0.0054870
        k(  223) = (   0.1111111   0.2777778   0.1111111), wk =   0.0054870
        k(  224) = (   0.1111111   0.2777778   0.1666667), wk =   0.0054870
        k(  225) = (   0.1111111   0.2777778   0.2222222), wk =   0.0054870
        k(  226) = (   0.1111111   0.2777778   0.2777778), wk =   0.0054870
        k(  227) = (   0.1111111   0.2777778   0.3333333), wk =   0.0054870
        k(  228) = (   0.1111111   0.2777778   0.3888889), wk =   0.0054870
        k(  229) = (   0.1111111   0.2777778   0.4444444), wk =   0.0054870
        k(  230) = (   0.1111111   0.2777778  -0.5000000), wk =   0.0027435
        k(  231) = (   0.1111111   0.3333333   0.0000000), wk =   0.0027435
        k(  232) = (   0.1111111   0.3333333   0.0555556), wk =   0.0054870
        k(  233) = (   0.1111111   0.3333333   0.1111111), wk =   0.0054870
        k(  234) = (   0.1111111   0.3333333   0.1666667), wk =   0.0054870
        k(  235) = (   0.1111111   0.3333333   0.2222222), wk =   0.0054870
        k(  236) = (   0.1111111   0.3333333   0.2777778), wk =   0.0054870
        k(  237) = (   0.1111111   0.3333333   0.3333333), wk =   0.0054870
        k(  238) = (   0.1111111   0.3333333   0.3888889), wk =   0.0054870
        k(  239) = (   0.1111111   0.3333333   0.4444444), wk =   0.0054870
        k(  240) = (   0.1111111   0.3333333  -0.5000000), wk =   0.0027435
        k(  241) = (   0.1111111   0.3888889   0.0000000), wk =   0.0027435
        k(  242) = (   0.1111111   0.3888889   0.0555556), wk =   0.0054870
        k(  243) = (   0.1111111   0.3888889   0.1111111), wk =   0.0054870
        k(  244) = (   0.1111111   0.3888889   0.1666667), wk =   0.0054870
        k(  245) = (   0.1111111   0.3888889   0.2222222), wk =   0.0054870
        k(  246) = (   0.1111111   0.3888889   0.2777778), wk =   0.0054870
        k(  247) = (   0.1111111   0.3888889   0.3333333), wk =   0.0054870
        k(  248) = (   0.1111111   0.3888889   0.3888889), wk =   0.0054870
        k(  249) = (   0.1111111   0.3888889   0.4444444), wk =   0.0054870
        k(  250) = (   0.1111111   0.3888889  -0.5000000), wk =   0.0027435
        k(  251) = (   0.1111111   0.4444444   0.0000000), wk =   0.0027435
        k(  252) = (   0.1111111   0.4444444   0.0555556), wk =   0.0054870
        k(  253) = (   0.1111111   0.4444444   0.1111111), wk =   0.0054870
        k(  254) = (   0.1111111   0.4444444   0.1666667), wk =   0.0054870
        k(  255) = (   0.1111111   0.4444444   0.2222222), wk =   0.0054870
        k(  256) = (   0.1111111   0.4444444   0.2777778), wk =   0.0054870
        k(  257) = (   0.1111111   0.4444444   0.3333333), wk =   0.0054870
        k(  258) = (   0.1111111   0.4444444   0.3888889), wk =   0.0054870
        k(  259) = (   0.1111111   0.4444444   0.4444444), wk =   0.0054870
        k(  260) = (   0.1111111   0.4444444  -0.5000000), wk =   0.0027435
        k(  261) = (   0.1111111  -0.5000000   0.0000000), wk =   0.0013717
        k(  262) = (   0.1111111  -0.5000000   0.0555556), wk =   0.0027435
        k(  263) = (   0.1111111  -0.5000000   0.1111111), wk =   0.0027435
        k(  264) = (   0.1111111  -0.5000000   0.1666667), wk =   0.0027435
        k(  265) = (   0.1111111  -0.5000000   0.2222222), wk =   0.0027435
        k(  266) = (   0.1111111  -0.5000000   0.2777778), wk =   0.0027435
        k(  267) = (   0.1111111  -0.5000000   0.3333333), wk =   0.0027435
        k(  268) = (   0.1111111  -0.5000000   0.3888889), wk =   0.0027435
        k(  269) = (   0.1111111  -0.5000000   0.4444444), wk =   0.0027435
        k(  270) = (   0.1111111  -0.5000000  -0.5000000), wk =   0.0013717
        k(  271) = (   0.1666667   0.1666667   0.0000000), wk =   0.0013717
        k(  272) = (   0.1666667   0.1666667   0.0555556), wk =   0.0027435
        k(  273) = (   0.1666667   0.1666667   0.1111111), wk =   0.0027435
        k(  274) = (   0.1666667   0.1666667   0.1666667), wk =   0.0027435
        k(  275) = (   0.1666667   0.1666667   0.2222222), wk =   0.0027435
        k(  276) = (   0.1666667   0.1666667   0.2777778), wk =   0.0027435
        k(  277) = (   0.1666667   0.1666667   0.3333333), wk =   0.0027435
        k(  278) = (   0.1666667   0.1666667   0.3888889), wk =   0.0027435
        k(  279) = (   0.1666667   0.1666667   0.4444444), wk =   0.0027435
        k(  280) = (   0.1666667   0.1666667  -0.5000000), wk =   0.0013717
        k(  281) = (   0.1666667   0.2222222   0.0000000), wk =   0.0027435
        k(  282) = (   0.1666667   0.2222222   0.0555556), wk =   0.0054870
        k(  283) = (   0.1666667   0.2222222   0.1111111), wk =   0.0054870
        k(  284) = (   0.1666667   0.2222222   0.1666667), wk =   0.0054870
        k(  285) = (   0.1666667   0.2222222   0.2222222), wk =   0.0054870
        k(  286) = (   0.1666667   0.2222222   0.2777778), wk =   0.0054870
        k(  287) = (   0.1666667   0.2222222   0.3333333), wk =   0.0054870
        k(  288) = (   0.1666667   0.2222222   0.3888889), wk =   0.0054870
        k(  289) = (   0.1666667   0.2222222   0.4444444), wk =   0.0054870
        k(  290) = (   0.1666667   0.2222222  -0.5000000), wk =   0.0027435
        k(  291) = (   0.1666667   0.2777778   0.0000000), wk =   0.0027435
        k(  292) = (   0.1666667   0.2777778   0.0555556), wk =   0.0054870
        k(  293) = (   0.1666667   0.2777778   0.1111111), wk =   0.0054870
        k(  294) = (   0.1666667   0.2777778   0.1666667), wk =   0.0054870
        k(  295) = (   0.1666667   0.2777778   0.2222222), wk =   0.0054870
        k(  296) = (   0.1666667   0.2777778   0.2777778), wk =   0.0054870
        k(  297) = (   0.1666667   0.2777778   0.3333333), wk =   0.0054870
        k(  298) = (   0.1666667   0.2777778   0.3888889), wk =   0.0054870
        k(  299) = (   0.1666667   0.2777778   0.4444444), wk =   0.0054870
        k(  300) = (   0.1666667   0.2777778  -0.5000000), wk =   0.0027435
        k(  301) = (   0.1666667   0.3333333   0.0000000), wk =   0.0027435
        k(  302) = (   0.1666667   0.3333333   0.0555556), wk =   0.0054870
        k(  303) = (   0.1666667   0.3333333   0.1111111), wk =   0.0054870
        k(  304) = (   0.1666667   0.3333333   0.1666667), wk =   0.0054870
        k(  305) = (   0.1666667   0.3333333   0.2222222), wk =   0.0054870
        k(  306) = (   0.1666667   0.3333333   0.2777778), wk =   0.0054870
        k(  307) = (   0.1666667   0.3333333   0.3333333), wk =   0.0054870
        k(  308) = (   0.1666667   0.3333333   0.3888889), wk =   0.0054870
        k(  309) = (   0.1666667   0.3333333   0.4444444), wk =   0.0054870
        k(  310) = (   0.1666667   0.3333333  -0.5000000), wk =   0.0027435
        k(  311) = (   0.1666667   0.3888889   0.0000000), wk =   0.0027435
        k(  312) = (   0.1666667   0.3888889   0.0555556), wk =   0.0054870
        k(  313) = (   0.1666667   0.3888889   0.1111111), wk =   0.0054870
        k(  314) = (   0.1666667   0.3888889   0.1666667), wk =   0.0054870
        k(  315) = (   0.1666667   0.3888889   0.2222222), wk =   0.0054870
        k(  316) = (   0.1666667   0.3888889   0.2777778), wk =   0.0054870
        k(  317) = (   0.1666667   0.3888889   0.3333333), wk =   0.0054870
        k(  318) = (   0.1666667   0.3888889   0.3888889), wk =   0.0054870
        k(  319) = (   0.1666667   0.3888889   0.4444444), wk =   0.0054870
        k(  320) = (   0.1666667   0.3888889  -0.5000000), wk =   0.0027435
        k(  321) = (   0.1666667   0.4444444   0.0000000), wk =   0.0027435
        k(  322) = (   0.1666667   0.4444444   0.0555556), wk =   0.0054870
        k(  323) = (   0.1666667   0.4444444   0.1111111), wk =   0.0054870
        k(  324) = (   0.1666667   0.4444444   0.1666667), wk =   0.0054870
        k(  325) = (   0.1666667   0.4444444   0.2222222), wk =   0.0054870
        k(  326) = (   0.1666667   0.4444444   0.2777778), wk =   0.0054870
        k(  327) = (   0.1666667   0.4444444   0.3333333), wk =   0.0054870
        k(  328) = (   0.1666667   0.4444444   0.3888889), wk =   0.0054870
        k(  329) = (   0.1666667   0.4444444   0.4444444), wk =   0.0054870
        k(  330) = (   0.1666667   0.4444444  -0.5000000), wk =   0.0027435
        k(  331) = (   0.1666667  -0.5000000   0.0000000), wk =   0.0013717
        k(  332) = (   0.1666667  -0.5000000   0.0555556), wk =   0.0027435
        k(  333) = (   0.1666667  -0.5000000   0.1111111), wk =   0.0027435
        k(  334) = (   0.1666667  -0.5000000   0.1666667), wk =   0.0027435
        k(  335) = (   0.1666667  -0.5000000   0.2222222), wk =   0.0027435
        k(  336) = (   0.1666667  -0.5000000   0.2777778), wk =   0.0027435
        k(  337) = (   0.1666667  -0.5000000   0.3333333), wk =   0.0027435
        k(  338) = (   0.1666667  -0.5000000   0.3888889), wk =   0.0027435
        k(  339) = (   0.1666667  -0.5000000   0.4444444), wk =   0.0027435
        k(  340) = (   0.1666667  -0.5000000  -0.5000000), wk =   0.0013717
        k(  341) = (   0.2222222   0.2222222   0.0000000), wk =   0.0013717
        k(  342) = (   0.2222222   0.2222222   0.0555556), wk =   0.0027435
        k(  343) = (   0.2222222   0.2222222   0.1111111), wk =   0.0027435
        k(  344) = (   0.2222222   0.2222222   0.1666667), wk =   0.0027435
        k(  345) = (   0.2222222   0.2222222   0.2222222), wk =   0.0027435
        k(  346) = (   0.2222222   0.2222222   0.2777778), wk =   0.0027435
        k(  347) = (   0.2222222   0.2222222   0.3333333), wk =   0.0027435
        k(  348) = (   0.2222222   0.2222222   0.3888889), wk =   0.0027435
        k(  349) = (   0.2222222   0.2222222   0.4444444), wk =   0.0027435
        k(  350) = (   0.2222222   0.2222222  -0.5000000), wk =   0.0013717
        k(  351) = (   0.2222222   0.2777778   0.0000000), wk =   0.0027435
        k(  352) = (   0.2222222   0.2777778   0.0555556), wk =   0.0054870
        k(  353) = (   0.2222222   0.2777778   0.1111111), wk =   0.0054870
        k(  354) = (   0.2222222   0.2777778   0.1666667), wk =   0.0054870
        k(  355) = (   0.2222222   0.2777778   0.2222222), wk =   0.0054870
        k(  356) = (   0.2222222   0.2777778   0.2777778), wk =   0.0054870
        k(  357) = (   0.2222222   0.2777778   0.3333333), wk =   0.0054870
        k(  358) = (   0.2222222   0.2777778   0.3888889), wk =   0.0054870
[...]
    11.6257  11.6257

     occupation numbers 
     1.0000   1.0000   1.0000   1.0000   1.0832   0.0000   0.0000   0.0000
     0.0000   0.0000

          k = 0.3889 0.3889 0.0573 (   912 PWs)   bands (ev):

    -0.3971   1.5717   1.5717   3.5125   7.6289   9.4910   9.4910  10.2688
    11.3450  12.1012

     occupation numbers 
     1.0000   1.0000   1.0000   1.0000   1.0000   0.0000   0.0000   0.0000
     0.0000   0.0000

          k = 0.3889 0.3889 0.1146 (   909 PWs)   bands (ev):

    -0.3091   1.6584   1.6584   3.5969   6.8401   8.7140   8.7140  10.5777
    11.2061  13.0118

     occupation numbers 
     1.0000   1.0000   1.0000   1.0000   1.0000   0.0000   0.0000   0.0000
     0.0000   0.0000

          k = 0.3889 0.3889 0.1720 (   916 PWs)   bands (ev):

    -0.1626   1.8028   1.8028   3.7364   6.0200   7.9022   7.9022   9.7751
    12.2739  14.0335

     occupation numbers 
     1.0000   1.0000   1.0000   1.0000   1.0000   1.0071   1.0071   0.0000
     0.0000   0.0000

          k = 0.3889 0.3889 0.2293 (   912 PWs)   bands (ev):

     0.0422   2.0047   2.0047   3.9262   5.2326   7.1155   7.1155   8.9968
    13.4110  15.0187

     occupation numbers 
     1.0000   1.0000   1.0000   1.0000   1.0000   1.0000   1.0000   0.0000
     0.0000   0.0000

          k = 0.3889 0.3889 0.2866 (   912 PWs)   bands (ev):

     0.3052   2.2635   2.2635   4.1143   4.5458   6.3704   6.3704   8.2591
    14.5980  15.5040

     occupation numbers 
     1.0000   1.0000   1.0000   1.0000   1.0000   1.0000   1.0000   0.3931
     0.0000   0.0000

          k = 0.3889 0.3889 0.3439 (   919 PWs)   bands (ev):

     0.6258   2.5785   2.5785   3.7051   4.5612   5.6739   5.6739   7.5685
    15.8165  15.8175

     occupation numbers 
     1.0000   1.0000   1.0000   1.0000   1.0000   1.0000   1.0000   1.0000
     0.0000   0.0000

          k = 0.3889 0.3889 0.4013 (   924 PWs)   bands (ev):

     1.0038   2.9480   2.9480   3.0704   4.9099   5.0305   5.0305   6.9284
    16.1537  16.1537

     occupation numbers 
     1.0000   1.0000   1.0000   1.0000   1.0000   1.0000   1.0000   1.0000
     0.0000   0.0000

          k = 0.3889 0.3889 0.4586 (   921 PWs)   bands (ev):

     1.4385   2.4740   3.3647   3.3647   4.4490   4.4490   5.3293   6.3408
    16.5213  16.5213

     occupation numbers 
     1.0000   1.0000   1.0000   1.0000   1.0000   1.0000   1.0000   1.0000
     0.0000   0.0000

          k = 0.3889 0.3889-0.5159 (   920 PWs)   bands (ev):

     1.9290   1.9290   3.7063   3.7063   4.0524   4.0524   5.8072   5.8072
    17.1035  17.1039

     occupation numbers 
     1.0000   1.0000   1.0000   1.0000   1.0000   1.0000   1.0000   1.0000
     0.0000   0.0000

          k = 0.3889 0.4444 0.0000 (   915 PWs)   bands (ev):

    -0.0137   0.9716   1.9499   2.9215   8.4546   9.3811  10.1723  10.3065
    11.0982  11.2305

     occupation numbers 
     1.0000   1.0000   1.0000   1.0000   0.0050   0.0000   0.0000   0.0000
     0.0000   0.0000

          k = 0.3889 0.4444 0.0573 (   915 PWs)   bands (ev):

     0.0155   1.0006   1.9787   2.9500   8.0178   8.9493   9.8787  10.6582
    10.8061  11.5772

     occupation numbers 
     1.0000   1.0000   1.0000   1.0000   1.0632   0.0000   0.0000   0.0000
     0.0000   0.0000

          k = 0.3889 0.4444 0.1146 (   911 PWs)   bands (ev):

     0.1032   1.0878   2.0652   3.0354   7.2315   8.1692   9.1043  10.0366
    11.5912  12.4980

     occupation numbers 
     1.0000   1.0000   1.0000   1.0000   1.0000   0.8651   0.0000   0.0000
     0.0000   0.0000

          k = 0.3889 0.4444 0.1720 (   914 PWs)   bands (ev):

     0.2493   1.2328   2.2090   3.1773   6.4120   7.3545   8.2944   9.2315
    12.6543  13.5429

     occupation numbers 
     1.0000   1.0000   1.0000   1.0000   1.0000   1.0000   0.2366   0.0000
     0.0000   0.0000

          k = 0.3889 0.4444 0.2293 (   915 PWs)   bands (ev):

     0.4536   1.4356   2.4100   3.3743   5.6202   6.5652   7.5093   8.4507
    13.7852  14.6395

     occupation numbers 
     1.0000   1.0000   1.0000   1.0000   1.0000   1.0000   1.0000   0.0057
     0.0000   0.0000

          k = 0.3889 0.4444 0.2866 (   911 PWs)   bands (ev):

     0.7158   1.6958   2.6673   3.6214   4.8773   5.8182   6.7655   7.7107
    14.9629  15.6678

     occupation numbers 
     1.0000   1.0000   1.0000   1.0000   1.0000   1.0000   1.0000   1.0000
     0.0000   0.0000

          k = 0.3889 0.4444 0.3439 (   915 PWs)   bands (ev):

     1.0355   2.0130   2.9796   3.8557   4.2520   5.1212   6.0696   7.0180
    16.1454  16.1683

     occupation numbers 
     1.0000   1.0000   1.0000   1.0000   1.0000   1.0000   1.0000   1.0000
     0.0000   0.0000

          k = 0.3889 0.4444 0.4013 (   918 PWs)   bands (ev):

     1.4123   2.3861   3.3403   3.4569   4.3676   4.4834   5.4255   6.3760
    16.4967  17.1387

     occupation numbers 
     1.0000   1.0000   1.0000   1.0000   1.0000   1.0000   1.0000   1.0000
     0.0000   0.0000

          k = 0.3889 0.4444 0.4586 (   924 PWs)   bands (ev):

     1.8454   2.8132   2.8745   3.6528   4.0029   4.7760   4.8364   5.7870
    16.8759  17.5461

     occupation numbers 
     1.0000   1.0000   1.0000   1.0000   1.0000   1.0000   1.0000   1.0000
     0.0000   0.0000

          k = 0.3889 0.4444-0.5159 (   928 PWs)   bands (ev):

     2.3337   2.3337   3.2862   3.2862   4.3114   4.3114   5.2527   5.2527
    17.2816  17.2818

     occupation numbers 
     1.0000   1.0000   1.0000   1.0000   1.0000   1.0000   1.0000   1.0000
     0.0000   0.0000

          k = 0.3889-0.5000 0.0000 (   912 PWs)   bands (ev):

     0.4524   0.4525   2.4097   2.4098   8.8922   8.8922  10.6126  10.6126
    10.7430  10.7430

     occupation numbers 
     1.0000   1.0000   1.0000   1.0000   0.0000   0.0000   0.0000   0.0000
     0.0000   0.0000

          k = 0.3889-0.5000 0.0573 (   912 PWs)   bands (ev):

     0.4816   0.4817   2.4384   2.4385   8.4580   8.4581  10.3172  10.3172
    11.0950  11.0951

     occupation numbers 
     1.0000   1.0000   1.0000   1.0000   0.0045   0.0045   0.0000   0.0000
     0.0000   0.0000

          k = 0.3889-0.5000 0.1146 (   912 PWs)   bands (ev):

     0.5691   0.5691   2.5244   2.5245   7.6748   7.6748   9.5453   9.5453
    12.0226  12.0227

     occupation numbers 
     1.0000   1.0000   1.0000   1.0000   1.0000   1.0000   0.0000   0.0000
     0.0000   0.0000

          k = 0.3889-0.5000 0.1720 (   918 PWs)   bands (ev):

     0.7147   0.7147   2.6675   2.6676   6.8573   6.8573   8.7377   8.7377
    13.0787  13.0788

     occupation numbers 
     1.0000   1.0000   1.0000   1.0000   1.0000   1.0000   0.0000   0.0000
     0.0000   0.0000

          k = 0.3889-0.5000 0.2293 (   914 PWs)   bands (ev):

     0.9183   0.9183   2.8671   2.8671   6.0661   6.0661   7.9546   7.9546
    14.1988  14.1989

     occupation numbers 
     1.0000   1.0000   1.0000   1.0000   1.0000   1.0000   1.0238   1.0238
     0.0000   0.0000

          k = 0.3889-0.5000 0.2866 (   910 PWs)   bands (ev):

     1.1796   1.1796   3.1218   3.1218   5.3186   5.3186   7.2125   7.2125
    15.3536  15.3537

     occupation numbers 
     1.0000   1.0000   1.0000   1.0000   1.0000   1.0000   1.0000   1.0000
     0.0000   0.0000

          k = 0.3889-0.5000 0.3439 (   916 PWs)   bands (ev):

     1.4982   1.4982   3.4259   3.4259   4.6265   4.6266   6.5180   6.5181
    16.4001  16.4004

     occupation numbers 
     1.0000   1.0000   1.0000   1.0000   1.0000   1.0000   1.0000   1.0000
     0.0000   0.0000

          k = 0.3889-0.5000 0.4013 (   922 PWs)   bands (ev):

     1.8734   1.8735   3.7022   3.7023   4.0699   4.0701   5.8746   5.8746
    16.8480  16.8480

     occupation numbers 
     1.0000   1.0000   1.0000   1.0000   1.0000   1.0000   1.0000   1.0000
     0.0000   0.0000

          k = 0.3889-0.5000 0.4586 (   918 PWs)   bands (ev):

     2.3043   2.3044   3.3170   3.3171   4.2842   4.2842   5.2848   5.2848
    17.2354  17.2354

     occupation numbers 
     1.0000   1.0000   1.0000   1.0000   1.0000   1.0000   1.0000   1.0000
     0.0000   0.0000

          k = 0.3889-0.5000-0.5159 (   924 PWs)   bands (ev):

     2.7886   2.7886   2.7887   2.7888   4.7513   4.7514   4.7515   4.7515
    17.6514  17.6516

     occupation numbers 
     1.0000   1.0000   1.0000   1.0000   1.0000   1.0000   1.0000   1.0000
     0.0000   0.0000

          k = 0.4444 0.4444 0.0000 (   918 PWs)   bands (ev):

     0.3978   1.3804   1.3804   2.3562   8.8407   9.7667   9.7667  10.5651
    10.6915  11.4912

     occupation numbers 
     1.0000   1.0000   1.0000   1.0000   0.0000   0.0000   0.0000   0.0000
     0.0000   0.0000

          k = 0.4444 0.4444 0.0573 (   916 PWs)   bands (ev):

     0.4270   1.4094   1.4094   2.3849   8.4066   9.3374   9.3375  10.2662
    11.0479  11.9678

     occupation numbers 
     1.0000   1.0000   1.0000   1.0000   0.0209   0.0000   0.0000   0.0000
     0.0000   0.0000

          k = 0.4444 0.4444 0.1146 (   912 PWs)   bands (ev):

     0.5145   1.4962   1.4962   2.4709   7.6230   8.5601   8.5601   9.4944
    11.9771  12.8864

     occupation numbers 
     1.0000   1.0000   1.0000   1.0000   1.0000   0.0001   0.0001   0.0000
     0.0000   0.0000

          k = 0.4444 0.4444 0.1720 (   913 PWs)   bands (ev):

     0.6602   1.6408   1.6408   2.6141   6.8052   7.7474   7.7474   8.6866
    13.0364  13.9316

     occupation numbers 
     1.0000   1.0000   1.0000   1.0000   1.0000   1.0000   1.0000   0.0000
     0.0000   0.0000

          k = 0.4444 0.4444 0.2293 (   913 PWs)   bands (ev):

     0.8638   1.8429   1.8429   2.8138   6.0136   6.9596   6.9596   7.9032
    14.1631  15.0370

     occupation numbers 
     1.0000   1.0000   1.0000   1.0000   1.0000   1.0000   1.0000   1.0073
     0.0000   0.0000

          k = 0.4444 0.4444 0.2866 (   914 PWs)   bands (ev):

     1.1252   2.1021   2.1021   3.0686   5.2657   6.2135   6.2135   7.1608
    15.3361  16.1705

     occupation numbers 
     1.0000   1.0000   1.0000   1.0000   1.0000   1.0000   1.0000   1.0000
     0.0000   0.0000

          k = 0.4444 0.4444 0.3439 (   915 PWs)   bands (ev):

     1.4439   2.4176   2.4176   3.3730   4.5732   5.5160   5.5160   6.4660
    16.5397  17.2268

     occupation numbers 
     1.0000   1.0000   1.0000   1.0000   1.0000   1.0000   1.0000   1.0000
     0.0000   0.0000

          k = 0.4444 0.4444 0.4013 (   915 PWs)   bands (ev):

     1.8194   2.7876   2.7876   3.6499   4.0160   4.8717   4.8718   5.8223
    17.6739  17.6747

     occupation numbers 
     1.0000   1.0000   1.0000   1.0000   1.0000   1.0000   1.0000   1.0000
     0.0000   0.0000

          k = 0.4444 0.4444 0.4586 (   921 PWs)   bands (ev):

     2.2505   3.2052   3.2052   3.2638   4.2310   4.2891   4.2891   5.2322
    18.0401  18.0402

     occupation numbers 
     1.0000   1.0000   1.0000   1.0000   1.0000   1.0000   1.0000   1.0000
     0.0000   0.0000

          k = 0.4444 0.4444-0.5159 (   928 PWs)   bands (ev):

     2.7350   2.7350   3.5491   3.5491   3.8901   3.8901   4.6986   4.6986
    18.4900  18.4902

     occupation numbers 
     1.0000   1.0000   1.0000   1.0000   1.0000   1.0000   1.0000   1.0000
     0.0000   0.0000

          k = 0.4444-0.5000 0.0000 (   910 PWs)   bands (ev):

     0.8627   0.8628   1.8421   1.8422   9.2781   9.2781  10.2036  10.2036
    11.0054  11.0054

     occupation numbers 
     1.0000   1.0000   1.0000   1.0000   0.0000   0.0000   0.0000   0.0000
     0.0000   0.0000

          k = 0.4444-0.5000 0.0573 (   914 PWs)   bands (ev):

     0.8918   0.8919   1.8710   1.8710   8.8466   8.8466   9.7765   9.7765
    11.4850  11.4850

     occupation numbers 
     1.0000   1.0000   1.0000   1.0000   0.0000   0.0000   0.0000   0.0000
     0.0000   0.0000

          k = 0.4444-0.5000 0.1146 (   918 PWs)   bands (ev):

     0.9790   0.9790   1.9575   1.9575   8.0661   8.0661   9.0020   9.0020
    12.4094  12.4094

     occupation numbers 
     1.0000   1.0000   1.0000   1.0000   1.0833   1.0833   0.0000   0.0000
     0.0000   0.0000

          k = 0.4444-0.5000 0.1720 (   912 PWs)   bands (ev):

     1.1242   1.1242   2.1015   2.1015   7.2506   7.2506   8.1916   8.1916
    13.4629  13.4629

     occupation numbers 
     1.0000   1.0000   1.0000   1.0000   1.0000   1.0000   0.7563   0.7563
     0.0000   0.0000

          k = 0.4444-0.5000 0.2293 (   910 PWs)   bands (ev):

     1.3272   1.3272   2.3026   2.3027   6.4606   6.4606   7.4059   7.4059
    14.5817  14.5817

     occupation numbers 
     1.0000   1.0000   1.0000   1.0000   1.0000   1.0000   1.0000   1.0000
     0.0000   0.0000

          k = 0.4444-0.5000 0.2866 (   916 PWs)   bands (ev):

     1.5876   1.5876   2.5603   2.5603   5.7129   5.7129   6.6614   6.6614
    15.7419  15.7419

     occupation numbers 
     1.0000   1.0000   1.0000   1.0000   1.0000   1.0000   1.0000   1.0000
     0.0000   0.0000

          k = 0.4444-0.5000 0.3439 (   920 PWs)   bands (ev):

     1.9050   1.9050   2.8728   2.8728   5.0152   5.0152   5.9649   5.9650
    16.9206  16.9208

     occupation numbers 
     1.0000   1.0000   1.0000   1.0000   1.0000   1.0000   1.0000   1.0000
     0.0000   0.0000

          k = 0.4444-0.5000 0.4013 (   918 PWs)   bands (ev):

     2.2784   2.2785   3.2341   3.2341   4.3766   4.3766   5.3202   5.3202
    17.9127  17.9128

     occupation numbers 
     1.0000   1.0000   1.0000   1.0000   1.0000   1.0000   1.0000   1.0000
     0.0000   0.0000

          k = 0.4444-0.5000 0.4586 (   922 PWs)   bands (ev):

     2.7060   2.7060   3.5479   3.5481   3.8946   3.8947   4.7306   4.7306
    18.3095  18.3095

     occupation numbers 
     1.0000   1.0000   1.0000   1.0000   1.0000   1.0000   1.0000   1.0000
     0.0000   0.0000

          k = 0.4444-0.5000-0.5159 (   924 PWs)   bands (ev):

     3.1796   3.1797   3.1798   3.1798   4.2047   4.2048   4.2049   4.2049
    18.7137  18.7139

     occupation numbers 
     1.0000   1.0000   1.0000   1.0000   1.0000   1.0000   1.0000   1.0000
     0.0000   0.0000

          k =-0.5000-0.5000 0.0000 (   928 PWs)   bands (ev):

     1.3262   1.3262   1.3262   1.3262   9.7152   9.7152   9.7153   9.7153
    11.4449  11.4449

     occupation numbers 
     1.0000   1.0000   1.0000   1.0000   0.0000   0.0000   0.0000   0.0000
     0.0000   0.0000

          k =-0.5000-0.5000 0.0573 (   912 PWs)   bands (ev):

     1.3552   1.3552   1.3552   1.3552   9.2862   9.2862   9.2862   9.2862
    11.9217  11.9217

     occupation numbers 
     1.0000   1.0000   1.0000   1.0000   0.0000   0.0000   0.0000   0.0000
     0.0000   0.0000

          k =-0.5000-0.5000 0.1146 (   920 PWs)   bands (ev):

     1.4420   1.4421   1.4421   1.4421   8.5087   8.5087   8.5087   8.5087
    12.8417  12.8417

     occupation numbers 
     1.0000   1.0000   1.0000   1.0000   0.0007   0.0007   0.0007   0.0007
     0.0000   0.0000

          k =-0.5000-0.5000 0.1720 (   900 PWs)   bands (ev):

     1.5867   1.5867   1.5867   1.5868   7.6956   7.6956   7.6956   7.6956
    13.8901  13.8901

     occupation numbers 
     1.0000   1.0000   1.0000   1.0000   1.0000   1.0000   1.0000   1.0000
     0.0000   0.0000

          k =-0.5000-0.5000 0.2293 (   912 PWs)   bands (ev):

     1.7889   1.7889   1.7889   1.7890   6.9075   6.9075   6.9075   6.9075
    15.0023  15.0023

     occupation numbers 
     1.0000   1.0000   1.0000   1.0000   1.0000   1.0000   1.0000   1.0000
     0.0000   0.0000

          k =-0.5000-0.5000 0.2866 (   912 PWs)   bands (ev):

     2.0482   2.0482   2.0482   2.0482   6.1611   6.1611   6.1611   6.1611
    16.1533  16.1533

     occupation numbers 
     1.0000   1.0000   1.0000   1.0000   1.0000   1.0000   1.0000   1.0000
     0.0000   0.0000

          k =-0.5000-0.5000 0.3439 (   928 PWs)   bands (ev):

     2.3638   2.3638   2.3638   2.3639   5.4633   5.4633   5.4633   5.4633
    17.3197  17.3198

     occupation numbers 
     1.0000   1.0000   1.0000   1.0000   1.0000   1.0000   1.0000   1.0000
     0.0000   0.0000

          k =-0.5000-0.5000 0.4013 (   920 PWs)   bands (ev):

     2.7340   2.7341   2.7341   2.7341   4.8187   4.8187   4.8187   4.8187
    18.4599  18.4602

     occupation numbers 
     1.0000   1.0000   1.0000   1.0000   1.0000   1.0000   1.0000   1.0000
     0.0000   0.0000

          k =-0.5000-0.5000 0.4586 (   932 PWs)   bands (ev):

     3.1519   3.1520   3.1520   3.1521   4.2357   4.2357   4.2357   4.2357
    19.0791  19.0791

     occupation numbers 
     1.0000   1.0000   1.0000   1.0000   1.0000   1.0000   1.0000   1.0000
     0.0000   0.0000

          k =-0.5000-0.5000-0.5159 (   928 PWs)   bands (ev):

     3.4965   3.4967   3.4967   3.4969   3.8358   3.8359   3.8359   3.8361
    19.5064  19.5066

     occupation numbers 
     1.0000   1.0000   1.0000   1.0000   1.0000   1.0000   1.0000   1.0000
     0.0000   0.0000

     the Fermi energy is     8.2576 ev

!    total energy              =     -26.82892068 Ry
     Harris-Foulkes estimate   =     -26.82892070 Ry
     estimated scf accuracy    <       0.00000003 Ry

     The total energy is the sum of the following terms:

     one-electron contribution =      12.23518935 Ry
     hartree contribution      =       0.03430098 Ry
     xc contribution           =     -17.24635688 Ry
     ewald contribution        =     -21.85202587 Ry
     smearing contrib. (-TS)   =      -0.00002826 Ry

     convergence has been achieved in   5 iterations
 
     init_run     :    122.57s CPU      5.36s WALL (       1 calls)
     electrons    :   1418.92s CPU     60.39s WALL (       1 calls)

     Called by init_run:
     wfcinit      :    122.35s CPU      5.21s WALL (       1 calls)
     wfcinit:atom :      2.63s CPU      0.11s WALL (     550 calls)
     wfcinit:wfcr :    108.92s CPU      4.64s WALL (     550 calls)
     potinit      :      0.04s CPU      0.01s WALL (       1 calls)

     Called by electrons:
     c_bands      :   1218.75s CPU     51.87s WALL (       6 calls)
     sum_band     :    198.12s CPU      8.43s WALL (       6 calls)
     v_of_rho     :      0.66s CPU      0.03s WALL (       6 calls)
     v_h          :      0.03s CPU      0.00s WALL (       6 calls)
     v_xc         :      0.62s CPU      0.03s WALL (       6 calls)
     newd         :      0.63s CPU      0.04s WALL (       6 calls)
     mix_rho      :      0.15s CPU      0.01s WALL (       6 calls)

     Called by c_bands:
     init_us_2    :     45.30s CPU      1.93s WALL (    7150 calls)
     cegterg      :   1101.78s CPU     46.85s WALL (    3300 calls)

     Called by sum_band:
     sum_band:bec :      1.11s CPU      0.05s WALL (    3300 calls)
     addusdens    :      0.77s CPU      0.04s WALL (       6 calls)

     Called by *egterg:
     h_psi        :   1052.86s CPU     44.79s WALL (   11554 calls)
     s_psi        :      8.59s CPU      0.36s WALL (   11554 calls)
     g_psi        :      5.05s CPU      0.22s WALL (    7704 calls)
     cdiaghg      :     54.79s CPU      2.38s WALL (   10454 calls)
     cegterg:over :     14.19s CPU      0.61s WALL (    7704 calls)
     cegterg:upda :     15.25s CPU      0.67s WALL (    7704 calls)
     cegterg:last :      5.80s CPU      0.26s WALL (    3304 calls)

     Called by h_psi:
     h_psi:pot    :   1042.76s CPU     44.33s WALL (   11554 calls)
     h_psi:calbec :     35.19s CPU      1.49s WALL (   11554 calls)
     vloc_psi     :    984.01s CPU     41.86s WALL (   11554 calls)
     add_vuspsi   :     14.43s CPU      0.63s WALL (   11554 calls)

     General routines
     calbec       :     37.11s CPU      1.65s WALL (   14854 calls)
     fft          :      0.27s CPU      0.02s WALL (      80 calls)
     fftw         :    931.33s CPU     39.71s WALL (  216470 calls)
 
     Parallel routines
 
     PWSCF        : 25m41.71s CPU     1m 5.82s WALL

 
   This run was terminated on:  17: 4:13  24Jan2019            

=------------------------------------------------------------------------------=
   JOB DONE.
=------------------------------------------------------------------------------=
