
     Program PWSCF v.6.2 (svn rev. 14038) starts on 24Jan2019 at 17: 3: 0 

     This program is part of the open-source Quantum ESPRESSO suite
     for quantum simulation of materials; please cite
         "P. Giannozzi et al., J. Phys.:Condens. Matter 21 395502 (2009);
         "P. Giannozzi et al., J. Phys.:Condens. Matter 29 465901 (2017);
          URL http://www.quantum-espresso.org", 
     in publications or presentations arising from this work. More details at
     http://www.quantum-espresso.org/quote

     Parallel version (MPI), running on     1 processors

     MPI processes distributed on     1 nodes
     Reading input from ./AlfccSEPNEG0DOT1541543256912908.in
Warning: card &IONS ignored
Warning: card / ignored
Warning: card &CELL ignored
Warning: card / ignored

     Current dimensions of program PWSCF are:
     Max number of different atomic species (ntypx) = 10
     Max number of k-points (npk) =  40000
     Max angular momentum in pseudopotentials (lmaxx) =  3
     Message from routine iosys:
     minimal I/O required, wf_collect reset to FALSE

     Subspace diagonalization in iterative solution of the eigenvalue problem:
     a serial algorithm will be used

     Found symmetry operation: I + ( -0.5000 -0.5000  0.0000)
     This is a supercell, fractional translations are disabled
 
     G-vector sticks info
     --------------------
     sticks:   dense  smooth     PW     G-vecs:    dense   smooth      PW
     Sum         465     465    145                 6325     6325    1203
 


     bravais-lattice index     =            0
     lattice parameter (alat)  =       7.6325  a.u.
     unit-cell volume          =     376.0856 (a.u.)^3
     number of atoms/cell      =            4
     number of atomic types    =            1
     number of electrons       =        12.00
     number of Kohn-Sham states=           10
     kinetic-energy cutoff     =      25.0000  Ry
     charge density cutoff     =     100.0000  Ry
     convergence threshold     =      1.0E-07
     mixing beta               =       0.7000
     number of iterations used =            8  plain     mixing
     Exchange-correlation      = SLA  PW   PBE  PBE ( 1  4  3  4 0 0)

     celldm(1)=   7.632472  celldm(2)=   0.000000  celldm(3)=   0.000000
     celldm(4)=   0.000000  celldm(5)=   0.000000  celldm(6)=   0.000000

     crystal axes: (cart. coord. in units of alat)
               a(1) = (   1.000000   0.000000   0.000000 )  
               a(2) = (   0.000000   1.000000   0.000000 )  
               a(3) = (   0.000000   0.000000   0.845846 )  

     reciprocal axes: (cart. coord. in units 2 pi/alat)
               b(1) = (  1.000000  0.000000  0.000000 )  
               b(2) = (  0.000000  1.000000  0.000000 )  
               b(3) = (  0.000000  0.000000  1.182249 )  


     PseudoPot. # 1 for Al read from file:
     ./al_pbe_v1.uspp.F.UPF
     MD5 check sum: 0a6289f5291fc8f409219462bc851e1f
     Pseudo is Ultrasoft + core correction, Zval =  3.0
     Generated by new atomic code, or converted to UPF format
     Using radial grid of  893 points,  3 beta functions with: 
                l(1) =   0
                l(2) =   1
                l(3) =   2
     Q(r) pseudized with  8 coefficients,  rinner =    0.900   0.900   0.900
                                                       0.900   0.900

     atomic species   valence    mass     pseudopotential
        Al             3.00    26.98150     Al( 1.00)

     16 Sym. Ops., with inversion, found


                                    s                        frac. trans.

      isym =  1     identity                                     

 cryst.   s( 1) = (     1          0          0      )
                  (     0          1          0      )
                  (     0          0          1      )

 cart.    s( 1) = (  1.0000000  0.0000000  0.0000000 )
                  (  0.0000000  1.0000000  0.0000000 )
                  (  0.0000000  0.0000000  1.0000000 )


      isym =  2     180 deg rotation - cart. axis [0,0,1]        

 cryst.   s( 2) = (    -1          0          0      )
                  (     0         -1          0      )
                  (     0          0          1      )

 cart.    s( 2) = ( -1.0000000  0.0000000  0.0000000 )
                  (  0.0000000 -1.0000000  0.0000000 )
                  (  0.0000000  0.0000000  1.0000000 )


      isym =  3     180 deg rotation - cart. axis [0,1,0]        

 cryst.   s( 3) = (    -1          0          0      )
                  (     0          1          0      )
                  (     0          0         -1      )

 cart.    s( 3) = ( -1.0000000  0.0000000  0.0000000 )
                  (  0.0000000  1.0000000  0.0000000 )
                  (  0.0000000  0.0000000 -1.0000000 )


      isym =  4     180 deg rotation - cart. axis [1,0,0]        

 cryst.   s( 4) = (     1          0          0      )
                  (     0         -1          0      )
                  (     0          0         -1      )

 cart.    s( 4) = (  1.0000000  0.0000000  0.0000000 )
                  (  0.0000000 -1.0000000  0.0000000 )
                  (  0.0000000  0.0000000 -1.0000000 )


      isym =  5     180 deg rotation - cart. axis [1,1,0]        

 cryst.   s( 5) = (     0          1          0      )
                  (     1          0          0      )
                  (     0          0         -1      )

 cart.    s( 5) = (  0.0000000  1.0000000  0.0000000 )
                  (  1.0000000  0.0000000  0.0000000 )
                  (  0.0000000  0.0000000 -1.0000000 )


      isym =  6     180 deg rotation - cart. axis [1,-1,0]       

 cryst.   s( 6) = (     0         -1          0      )
                  (    -1          0          0      )
                  (     0          0         -1      )

 cart.    s( 6) = (  0.0000000 -1.0000000  0.0000000 )
                  ( -1.0000000  0.0000000  0.0000000 )
                  (  0.0000000  0.0000000 -1.0000000 )


      isym =  7      90 deg rotation - cart. axis [0,0,-1]       

 cryst.   s( 7) = (     0         -1          0      )
                  (     1          0          0      )
                  (     0          0          1      )

 cart.    s( 7) = (  0.0000000  1.0000000  0.0000000 )
                  ( -1.0000000  0.0000000  0.0000000 )
                  (  0.0000000  0.0000000  1.0000000 )


      isym =  8      90 deg rotation - cart. axis [0,0,1]        

 cryst.   s( 8) = (     0          1          0      )
                  (    -1          0          0      )
                  (     0          0          1      )

 cart.    s( 8) = (  0.0000000 -1.0000000  0.0000000 )
                  (  1.0000000  0.0000000  0.0000000 )
                  (  0.0000000  0.0000000  1.0000000 )


      isym =  9     inversion                                    

 cryst.   s( 9) = (    -1          0          0      )
                  (     0         -1          0      )
                  (     0          0         -1      )

 cart.    s( 9) = ( -1.0000000  0.0000000  0.0000000 )
                  (  0.0000000 -1.0000000  0.0000000 )
                  (  0.0000000  0.0000000 -1.0000000 )


      isym = 10     inv. 180 deg rotation - cart. axis [0,0,1]   

 cryst.   s(10) = (     1          0          0      )
                  (     0          1          0      )
                  (     0          0         -1      )

 cart.    s(10) = (  1.0000000  0.0000000  0.0000000 )
                  (  0.0000000  1.0000000  0.0000000 )
                  (  0.0000000  0.0000000 -1.0000000 )


      isym = 11     inv. 180 deg rotation - cart. axis [0,1,0]   

 cryst.   s(11) = (     1          0          0      )
                  (     0         -1          0      )
                  (     0          0          1      )

 cart.    s(11) = (  1.0000000  0.0000000  0.0000000 )
                  (  0.0000000 -1.0000000  0.0000000 )
                  (  0.0000000  0.0000000  1.0000000 )


      isym = 12     inv. 180 deg rotation - cart. axis [1,0,0]   

 cryst.   s(12) = (    -1          0          0      )
                  (     0          1          0      )
                  (     0          0          1      )

 cart.    s(12) = ( -1.0000000  0.0000000  0.0000000 )
                  (  0.0000000  1.0000000  0.0000000 )
                  (  0.0000000  0.0000000  1.0000000 )


      isym = 13     inv. 180 deg rotation - cart. axis [1,1,0]   

 cryst.   s(13) = (     0         -1          0      )
                  (    -1          0          0      )
                  (     0          0          1      )

 cart.    s(13) = (  0.0000000 -1.0000000  0.0000000 )
                  ( -1.0000000  0.0000000  0.0000000 )
                  (  0.0000000  0.0000000  1.0000000 )


      isym = 14     inv. 180 deg rotation - cart. axis [1,-1,0]  

 cryst.   s(14) = (     0          1          0      )
                  (     1          0          0      )
                  (     0          0          1      )

 cart.    s(14) = (  0.0000000  1.0000000  0.0000000 )
                  (  1.0000000  0.0000000  0.0000000 )
                  (  0.0000000  0.0000000  1.0000000 )


      isym = 15     inv.  90 deg rotation - cart. axis [0,0,-1]  

 cryst.   s(15) = (     0          1          0      )
                  (    -1          0          0      )
                  (     0          0         -1      )

 cart.    s(15) = (  0.0000000 -1.0000000  0.0000000 )
                  (  1.0000000  0.0000000  0.0000000 )
                  (  0.0000000  0.0000000 -1.0000000 )


      isym = 16     inv.  90 deg rotation - cart. axis [0,0,1]   

 cryst.   s(16) = (     0         -1          0      )
                  (     1          0          0      )
                  (     0          0         -1      )

 cart.    s(16) = (  0.0000000  1.0000000  0.0000000 )
                  ( -1.0000000  0.0000000  0.0000000 )
                  (  0.0000000  0.0000000 -1.0000000 )


   Cartesian axes

     site n.     atom                  positions (alat units)
         1           Al  tau(   1) = (   0.0000000   0.0000000   0.0000000  )
         2           Al  tau(   2) = (   0.5000000   0.5000000   0.0000000  )
         3           Al  tau(   3) = (   0.5000000   0.0000000   0.4229228  )
         4           Al  tau(   4) = (   0.0000000   0.5000000   0.4229228  )

   Crystallographic axes

     site n.     atom                  positions (cryst. coord.)
         1           Al  tau(   1) = (  0.0000000  0.0000000  0.0000000  )
         2           Al  tau(   2) = (  0.5000000  0.5000000  0.0000000  )
         3           Al  tau(   3) = (  0.5000000  0.0000000  0.5000000  )
         4           Al  tau(   4) = (  0.0000000  0.5000000  0.5000000  )

     number of k points=   605  Marzari-Vanderbilt smearing, width (Ry)=  0.0100
                       cart. coord. in units 2pi/alat
        k(    1) = (   0.0000000   0.0000000   0.0000000), wk =   0.0002939
        k(    2) = (   0.0000000   0.0000000   0.0562976), wk =   0.0005879
        k(    3) = (   0.0000000   0.0000000   0.1125951), wk =   0.0005879
        k(    4) = (   0.0000000   0.0000000   0.1688927), wk =   0.0005879
        k(    5) = (   0.0000000   0.0000000   0.2251903), wk =   0.0005879
        k(    6) = (   0.0000000   0.0000000   0.2814878), wk =   0.0005879
        k(    7) = (   0.0000000   0.0000000   0.3377854), wk =   0.0005879
        k(    8) = (   0.0000000   0.0000000   0.3940830), wk =   0.0005879
        k(    9) = (   0.0000000   0.0000000   0.4503805), wk =   0.0005879
        k(   10) = (   0.0000000   0.0000000   0.5066781), wk =   0.0005879
        k(   11) = (   0.0000000   0.0000000   0.5629757), wk =   0.0005879
        k(   12) = (   0.0000000   0.0555556   0.0000000), wk =   0.0011758
        k(   13) = (   0.0000000   0.0555556   0.0562976), wk =   0.0023516
        k(   14) = (   0.0000000   0.0555556   0.1125951), wk =   0.0023516
        k(   15) = (   0.0000000   0.0555556   0.1688927), wk =   0.0023516
        k(   16) = (   0.0000000   0.0555556   0.2251903), wk =   0.0023516
        k(   17) = (   0.0000000   0.0555556   0.2814878), wk =   0.0023516
        k(   18) = (   0.0000000   0.0555556   0.3377854), wk =   0.0023516
        k(   19) = (   0.0000000   0.0555556   0.3940830), wk =   0.0023516
        k(   20) = (   0.0000000   0.0555556   0.4503805), wk =   0.0023516
        k(   21) = (   0.0000000   0.0555556   0.5066781), wk =   0.0023516
        k(   22) = (   0.0000000   0.0555556   0.5629757), wk =   0.0023516
        k(   23) = (   0.0000000   0.1111111   0.0000000), wk =   0.0011758
        k(   24) = (   0.0000000   0.1111111   0.0562976), wk =   0.0023516
        k(   25) = (   0.0000000   0.1111111   0.1125951), wk =   0.0023516
        k(   26) = (   0.0000000   0.1111111   0.1688927), wk =   0.0023516
        k(   27) = (   0.0000000   0.1111111   0.2251903), wk =   0.0023516
        k(   28) = (   0.0000000   0.1111111   0.2814878), wk =   0.0023516
        k(   29) = (   0.0000000   0.1111111   0.3377854), wk =   0.0023516
        k(   30) = (   0.0000000   0.1111111   0.3940830), wk =   0.0023516
        k(   31) = (   0.0000000   0.1111111   0.4503805), wk =   0.0023516
        k(   32) = (   0.0000000   0.1111111   0.5066781), wk =   0.0023516
        k(   33) = (   0.0000000   0.1111111   0.5629757), wk =   0.0023516
        k(   34) = (   0.0000000   0.1666667   0.0000000), wk =   0.0011758
        k(   35) = (   0.0000000   0.1666667   0.0562976), wk =   0.0023516
        k(   36) = (   0.0000000   0.1666667   0.1125951), wk =   0.0023516
        k(   37) = (   0.0000000   0.1666667   0.1688927), wk =   0.0023516
        k(   38) = (   0.0000000   0.1666667   0.2251903), wk =   0.0023516
        k(   39) = (   0.0000000   0.1666667   0.2814878), wk =   0.0023516
        k(   40) = (   0.0000000   0.1666667   0.3377854), wk =   0.0023516
        k(   41) = (   0.0000000   0.1666667   0.3940830), wk =   0.0023516
        k(   42) = (   0.0000000   0.1666667   0.4503805), wk =   0.0023516
        k(   43) = (   0.0000000   0.1666667   0.5066781), wk =   0.0023516
        k(   44) = (   0.0000000   0.1666667   0.5629757), wk =   0.0023516
        k(   45) = (   0.0000000   0.2222222   0.0000000), wk =   0.0011758
        k(   46) = (   0.0000000   0.2222222   0.0562976), wk =   0.0023516
        k(   47) = (   0.0000000   0.2222222   0.1125951), wk =   0.0023516
        k(   48) = (   0.0000000   0.2222222   0.1688927), wk =   0.0023516
        k(   49) = (   0.0000000   0.2222222   0.2251903), wk =   0.0023516
        k(   50) = (   0.0000000   0.2222222   0.2814878), wk =   0.0023516
        k(   51) = (   0.0000000   0.2222222   0.3377854), wk =   0.0023516
        k(   52) = (   0.0000000   0.2222222   0.3940830), wk =   0.0023516
        k(   53) = (   0.0000000   0.2222222   0.4503805), wk =   0.0023516
        k(   54) = (   0.0000000   0.2222222   0.5066781), wk =   0.0023516
        k(   55) = (   0.0000000   0.2222222   0.5629757), wk =   0.0023516
        k(   56) = (   0.0000000   0.2777778   0.0000000), wk =   0.0011758
        k(   57) = (   0.0000000   0.2777778   0.0562976), wk =   0.0023516
        k(   58) = (   0.0000000   0.2777778   0.1125951), wk =   0.0023516
        k(   59) = (   0.0000000   0.2777778   0.1688927), wk =   0.0023516
        k(   60) = (   0.0000000   0.2777778   0.2251903), wk =   0.0023516
        k(   61) = (   0.0000000   0.2777778   0.2814878), wk =   0.0023516
        k(   62) = (   0.0000000   0.2777778   0.3377854), wk =   0.0023516
        k(   63) = (   0.0000000   0.2777778   0.3940830), wk =   0.0023516
        k(   64) = (   0.0000000   0.2777778   0.4503805), wk =   0.0023516
        k(   65) = (   0.0000000   0.2777778   0.5066781), wk =   0.0023516
        k(   66) = (   0.0000000   0.2777778   0.5629757), wk =   0.0023516
        k(   67) = (   0.0000000   0.3333333   0.0000000), wk =   0.0011758
        k(   68) = (   0.0000000   0.3333333   0.0562976), wk =   0.0023516
        k(   69) = (   0.0000000   0.3333333   0.1125951), wk =   0.0023516
        k(   70) = (   0.0000000   0.3333333   0.1688927), wk =   0.0023516
        k(   71) = (   0.0000000   0.3333333   0.2251903), wk =   0.0023516
        k(   72) = (   0.0000000   0.3333333   0.2814878), wk =   0.0023516
        k(   73) = (   0.0000000   0.3333333   0.3377854), wk =   0.0023516
        k(   74) = (   0.0000000   0.3333333   0.3940830), wk =   0.0023516
        k(   75) = (   0.0000000   0.3333333   0.4503805), wk =   0.0023516
        k(   76) = (   0.0000000   0.3333333   0.5066781), wk =   0.0023516
        k(   77) = (   0.0000000   0.3333333   0.5629757), wk =   0.0023516
        k(   78) = (   0.0000000   0.3888889   0.0000000), wk =   0.0011758
        k(   79) = (   0.0000000   0.3888889   0.0562976), wk =   0.0023516
        k(   80) = (   0.0000000   0.3888889   0.1125951), wk =   0.0023516
        k(   81) = (   0.0000000   0.3888889   0.1688927), wk =   0.0023516
        k(   82) = (   0.0000000   0.3888889   0.2251903), wk =   0.0023516
        k(   83) = (   0.0000000   0.3888889   0.2814878), wk =   0.0023516
        k(   84) = (   0.0000000   0.3888889   0.3377854), wk =   0.0023516
        k(   85) = (   0.0000000   0.3888889   0.3940830), wk =   0.0023516
        k(   86) = (   0.0000000   0.3888889   0.4503805), wk =   0.0023516
        k(   87) = (   0.0000000   0.3888889   0.5066781), wk =   0.0023516
        k(   88) = (   0.0000000   0.3888889   0.5629757), wk =   0.0023516
        k(   89) = (   0.0000000   0.4444444   0.0000000), wk =   0.0011758
        k(   90) = (   0.0000000   0.4444444   0.0562976), wk =   0.0023516
        k(   91) = (   0.0000000   0.4444444   0.1125951), wk =   0.0023516
        k(   92) = (   0.0000000   0.4444444   0.1688927), wk =   0.0023516
        k(   93) = (   0.0000000   0.4444444   0.2251903), wk =   0.0023516
        k(   94) = (   0.0000000   0.4444444   0.2814878), wk =   0.0023516
        k(   95) = (   0.0000000   0.4444444   0.3377854), wk =   0.0023516
        k(   96) = (   0.0000000   0.4444444   0.3940830), wk =   0.0023516
        k(   97) = (   0.0000000   0.4444444   0.4503805), wk =   0.0023516
        k(   98) = (   0.0000000   0.4444444   0.5066781), wk =   0.0023516
        k(   99) = (   0.0000000   0.4444444   0.5629757), wk =   0.0023516
        k(  100) = (   0.0000000  -0.5000000   0.0000000), wk =   0.0005879
        k(  101) = (   0.0000000  -0.5000000   0.0562976), wk =   0.0011758
        k(  102) = (   0.0000000  -0.5000000   0.1125951), wk =   0.0011758
        k(  103) = (   0.0000000  -0.5000000   0.1688927), wk =   0.0011758
        k(  104) = (   0.0000000  -0.5000000   0.2251903), wk =   0.0011758
        k(  105) = (   0.0000000  -0.5000000   0.2814878), wk =   0.0011758
        k(  106) = (   0.0000000  -0.5000000   0.3377854), wk =   0.0011758
        k(  107) = (   0.0000000  -0.5000000   0.3940830), wk =   0.0011758
        k(  108) = (   0.0000000  -0.5000000   0.4503805), wk =   0.0011758
        k(  109) = (   0.0000000  -0.5000000   0.5066781), wk =   0.0011758
        k(  110) = (   0.0000000  -0.5000000   0.5629757), wk =   0.0011758
        k(  111) = (   0.0555556   0.0555556   0.0000000), wk =   0.0011758
        k(  112) = (   0.0555556   0.0555556   0.0562976), wk =   0.0023516
        k(  113) = (   0.0555556   0.0555556   0.1125951), wk =   0.0023516
        k(  114) = (   0.0555556   0.0555556   0.1688927), wk =   0.0023516
        k(  115) = (   0.0555556   0.0555556   0.2251903), wk =   0.0023516
        k(  116) = (   0.0555556   0.0555556   0.2814878), wk =   0.0023516
        k(  117) = (   0.0555556   0.0555556   0.3377854), wk =   0.0023516
        k(  118) = (   0.0555556   0.0555556   0.3940830), wk =   0.0023516
        k(  119) = (   0.0555556   0.0555556   0.4503805), wk =   0.0023516
        k(  120) = (   0.0555556   0.0555556   0.5066781), wk =   0.0023516
        k(  121) = (   0.0555556   0.0555556   0.5629757), wk =   0.0023516
        k(  122) = (   0.0555556   0.1111111   0.0000000), wk =   0.0023516
        k(  123) = (   0.0555556   0.1111111   0.0562976), wk =   0.0047031
        k(  124) = (   0.0555556   0.1111111   0.1125951), wk =   0.0047031
        k(  125) = (   0.0555556   0.1111111   0.1688927), wk =   0.0047031
        k(  126) = (   0.0555556   0.1111111   0.2251903), wk =   0.0047031
        k(  127) = (   0.0555556   0.1111111   0.2814878), wk =   0.0047031
        k(  128) = (   0.0555556   0.1111111   0.3377854), wk =   0.0047031
        k(  129) = (   0.0555556   0.1111111   0.3940830), wk =   0.0047031
        k(  130) = (   0.0555556   0.1111111   0.4503805), wk =   0.0047031
        k(  131) = (   0.0555556   0.1111111   0.5066781), wk =   0.0047031
        k(  132) = (   0.0555556   0.1111111   0.5629757), wk =   0.0047031
        k(  133) = (   0.0555556   0.1666667   0.0000000), wk =   0.0023516
        k(  134) = (   0.0555556   0.1666667   0.0562976), wk =   0.0047031
        k(  135) = (   0.0555556   0.1666667   0.1125951), wk =   0.0047031
        k(  136) = (   0.0555556   0.1666667   0.1688927), wk =   0.0047031
        k(  137) = (   0.0555556   0.1666667   0.2251903), wk =   0.0047031
        k(  138) = (   0.0555556   0.1666667   0.2814878), wk =   0.0047031
        k(  139) = (   0.0555556   0.1666667   0.3377854), wk =   0.0047031
        k(  140) = (   0.0555556   0.1666667   0.3940830), wk =   0.0047031
        k(  141) = (   0.0555556   0.1666667   0.4503805), wk =   0.0047031
        k(  142) = (   0.0555556   0.1666667   0.5066781), wk =   0.0047031
        k(  143) = (   0.0555556   0.1666667   0.5629757), wk =   0.0047031
        k(  144) = (   0.0555556   0.2222222   0.0000000), wk =   0.0023516
        k(  145) = (   0.0555556   0.2222222   0.0562976), wk =   0.0047031
        k(  146) = (   0.0555556   0.2222222   0.1125951), wk =   0.0047031
        k(  147) = (   0.0555556   0.2222222   0.1688927), wk =   0.0047031
        k(  148) = (   0.0555556   0.2222222   0.2251903), wk =   0.0047031
        k(  149) = (   0.0555556   0.2222222   0.2814878), wk =   0.0047031
        k(  150) = (   0.0555556   0.2222222   0.3377854), wk =   0.0047031
        k(  151) = (   0.0555556   0.2222222   0.3940830), wk =   0.0047031
        k(  152) = (   0.0555556   0.2222222   0.4503805), wk =   0.0047031
        k(  153) = (   0.0555556   0.2222222   0.5066781), wk =   0.0047031
        k(  154) = (   0.0555556   0.2222222   0.5629757), wk =   0.0047031
        k(  155) = (   0.0555556   0.2777778   0.0000000), wk =   0.0023516
        k(  156) = (   0.0555556   0.2777778   0.0562976), wk =   0.0047031
        k(  157) = (   0.0555556   0.2777778   0.1125951), wk =   0.0047031
        k(  158) = (   0.0555556   0.2777778   0.1688927), wk =   0.0047031
        k(  159) = (   0.0555556   0.2777778   0.2251903), wk =   0.0047031
        k(  160) = (   0.0555556   0.2777778   0.2814878), wk =   0.0047031
        k(  161) = (   0.0555556   0.2777778   0.3377854), wk =   0.0047031
        k(  162) = (   0.0555556   0.2777778   0.3940830), wk =   0.0047031
        k(  163) = (   0.0555556   0.2777778   0.4503805), wk =   0.0047031
        k(  164) = (   0.0555556   0.2777778   0.5066781), wk =   0.0047031
        k(  165) = (   0.0555556   0.2777778   0.5629757), wk =   0.0047031
        k(  166) = (   0.0555556   0.3333333   0.0000000), wk =   0.0023516
        k(  167) = (   0.0555556   0.3333333   0.0562976), wk =   0.0047031
        k(  168) = (   0.0555556   0.3333333   0.1125951), wk =   0.0047031
        k(  169) = (   0.0555556   0.3333333   0.1688927), wk =   0.0047031
        k(  170) = (   0.0555556   0.3333333   0.2251903), wk =   0.0047031
        k(  171) = (   0.0555556   0.3333333   0.2814878), wk =   0.0047031
        k(  172) = (   0.0555556   0.3333333   0.3377854), wk =   0.0047031
        k(  173) = (   0.0555556   0.3333333   0.3940830), wk =   0.0047031
        k(  174) = (   0.0555556   0.3333333   0.4503805), wk =   0.0047031
        k(  175) = (   0.0555556   0.3333333   0.5066781), wk =   0.0047031
        k(  176) = (   0.0555556   0.3333333   0.5629757), wk =   0.0047031
        k(  177) = (   0.0555556   0.3888889   0.0000000), wk =   0.0023516
        k(  178) = (   0.0555556   0.3888889   0.0562976), wk =   0.0047031
        k(  179) = (   0.0555556   0.3888889   0.1125951), wk =   0.0047031
        k(  180) = (   0.0555556   0.3888889   0.1688927), wk =   0.0047031
        k(  181) = (   0.0555556   0.3888889   0.2251903), wk =   0.0047031
        k(  182) = (   0.0555556   0.3888889   0.2814878), wk =   0.0047031
        k(  183) = (   0.0555556   0.3888889   0.3377854), wk =   0.0047031
        k(  184) = (   0.0555556   0.3888889   0.3940830), wk =   0.0047031
        k(  185) = (   0.0555556   0.3888889   0.4503805), wk =   0.0047031
        k(  186) = (   0.0555556   0.3888889   0.5066781), wk =   0.0047031
        k(  187) = (   0.0555556   0.3888889   0.5629757), wk =   0.0047031
        k(  188) = (   0.0555556   0.4444444   0.0000000), wk =   0.0023516
        k(  189) = (   0.0555556   0.4444444   0.0562976), wk =   0.0047031
        k(  190) = (   0.0555556   0.4444444   0.1125951), wk =   0.0047031
        k(  191) = (   0.0555556   0.4444444   0.1688927), wk =   0.0047031
        k(  192) = (   0.0555556   0.4444444   0.2251903), wk =   0.0047031
        k(  193) = (   0.0555556   0.4444444   0.2814878), wk =   0.0047031
        k(  194) = (   0.0555556   0.4444444   0.3377854), wk =   0.0047031
        k(  195) = (   0.0555556   0.4444444   0.3940830), wk =   0.0047031
        k(  196) = (   0.0555556   0.4444444   0.4503805), wk =   0.0047031
        k(  197) = (   0.0555556   0.4444444   0.5066781), wk =   0.0047031
        k(  198) = (   0.0555556   0.4444444   0.5629757), wk =   0.0047031
        k(  199) = (   0.0555556  -0.5000000   0.0000000), wk =   0.0011758
        k(  200) = (   0.0555556  -0.5000000   0.0562976), wk =   0.0023516
        k(  201) = (   0.0555556  -0.5000000   0.1125951), wk =   0.0023516
        k(  202) = (   0.0555556  -0.5000000   0.1688927), wk =   0.0023516
        k(  203) = (   0.0555556  -0.5000000   0.2251903), wk =   0.0023516
        k(  204) = (   0.0555556  -0.5000000   0.2814878), wk =   0.0023516
        k(  205) = (   0.0555556  -0.5000000   0.3377854), wk =   0.0023516
        k(  206) = (   0.0555556  -0.5000000   0.3940830), wk =   0.0023516
        k(  207) = (   0.0555556  -0.5000000   0.4503805), wk =   0.0023516
        k(  208) = (   0.0555556  -0.5000000   0.5066781), wk =   0.0023516
        k(  209) = (   0.0555556  -0.5000000   0.5629757), wk =   0.0023516
        k(  210) = (   0.1111111   0.1111111   0.0000000), wk =   0.0011758
        k(  211) = (   0.1111111   0.1111111   0.0562976), wk =   0.0023516
        k(  212) = (   0.1111111   0.1111111   0.1125951), wk =   0.0023516
        k(  213) = (   0.1111111   0.1111111   0.1688927), wk =   0.0023516
        k(  214) = (   0.1111111   0.1111111   0.2251903), wk =   0.0023516
        k(  215) = (   0.1111111   0.1111111   0.2814878), wk =   0.0023516
        k(  216) = (   0.1111111   0.1111111   0.3377854), wk =   0.0023516
        k(  217) = (   0.1111111   0.1111111   0.3940830), wk =   0.0023516
        k(  218) = (   0.1111111   0.1111111   0.4503805), wk =   0.0023516
        k(  219) = (   0.1111111   0.1111111   0.5066781), wk =   0.0023516
        k(  220) = (   0.1111111   0.1111111   0.5629757), wk =   0.0023516
        k(  221) = (   0.1111111   0.1666667   0.0000000), wk =   0.0023516
        k(  222) = (   0.1111111   0.1666667   0.0562976), wk =   0.0047031
        k(  223) = (   0.1111111   0.1666667   0.1125951), wk =   0.0047031
        k(  224) = (   0.1111111   0.1666667   0.1688927), wk =   0.0047031
        k(  225) = (   0.1111111   0.1666667   0.2251903), wk =   0.0047031
        k(  226) = (   0.1111111   0.1666667   0.2814878), wk =   0.0047031
        k(  227) = (   0.1111111   0.1666667   0.3377854), wk =   0.0047031
        k(  228) = (   0.1111111   0.1666667   0.3940830), wk =   0.0047031
        k(  229) = (   0.1111111   0.1666667   0.4503805), wk =   0.0047031
        k(  230) = (   0.1111111   0.1666667   0.5066781), wk =   0.0047031
        k(  231) = (   0.1111111   0.1666667   0.5629757), wk =   0.0047031
        k(  232) = (   0.1111111   0.2222222   0.0000000), wk =   0.0023516
        k(  233) = (   0.1111111   0.2222222   0.0562976), wk =   0.0047031
        k(  234) = (   0.1111111   0.2222222   0.1125951), wk =   0.0047031
        k(  235) = (   0.1111111   0.2222222   0.1688927), wk =   0.0047031
        k(  236) = (   0.1111111   0.2222222   0.2251903), wk =   0.0047031
        k(  237) = (   0.1111111   0.2222222   0.2814878), wk =   0.0047031
        k(  238) = (   0.1111111   0.2222222   0.3377854), wk =   0.0047031
        k(  239) = (   0.1111111   0.2222222   0.3940830), wk =   0.0047031
        k(  240) = (   0.1111111   0.2222222   0.4503805), wk =   0.0047031
        k(  241) = (   0.1111111   0.2222222   0.5066781), wk =   0.0047031
        k(  242) = (   0.1111111   0.2222222   0.5629757), wk =   0.0047031
        k(  243) = (   0.1111111   0.2777778   0.0000000), wk =   0.0023516
        k(  244) = (   0.1111111   0.2777778   0.0562976), wk =   0.0047031
        k(  245) = (   0.1111111   0.2777778   0.1125951), wk =   0.0047031
        k(  246) = (   0.1111111   0.2777778   0.1688927), wk =   0.0047031
        k(  247) = (   0.1111111   0.2777778   0.2251903), wk =   0.0047031
        k(  248) = (   0.1111111   0.2777778   0.2814878), wk =   0.0047031
        k(  249) = (   0.1111111   0.2777778   0.3377854), wk =   0.0047031
        k(  250) = (   0.1111111   0.2777778   0.3940830), wk =   0.0047031
        k(  251) = (   0.1111111   0.2777778   0.4503805), wk =   0.0047031
        k(  252) = (   0.1111111   0.2777778   0.5066781), wk =   0.0047031
        k(  253) = (   0.1111111   0.2777778   0.5629757), wk =   0.0047031
        k(  254) = (   0.1111111   0.3333333   0.0000000), wk =   0.0023516
        k(  255) = (   0.1111111   0.3333333   0.0562976), wk =   0.0047031
        k(  256) = (   0.1111111   0.3333333   0.1125951), wk =   0.0047031
        k(  257) = (   0.1111111   0.3333333   0.1688927), wk =   0.0047031
        k(  258) = (   0.1111111   0.3333333   0.2251903), wk =   0.0047031
        k(  259) = (   0.1111111   0.3333333   0.2814878), wk =   0.0047031
        k(  260) = (   0.1111111   0.3333333   0.3377854), wk =   0.0047031
        k(  261) = (   0.1111111   0.3333333   0.3940830), wk =   0.0047031
        k(  262) = (   0.1111111   0.3333333   0.4503805), wk =   0.0047031
        k(  263) = (   0.1111111   0.3333333   0.5066781), wk =   0.0047031
        k(  264) = (   0.1111111   0.3333333   0.5629757), wk =   0.0047031
        k(  265) = (   0.1111111   0.3888889   0.0000000), wk =   0.0023516
        k(  266) = (   0.1111111   0.3888889   0.0562976), wk =   0.0047031
        k(  267) = (   0.1111111   0.3888889   0.1125951), wk =   0.0047031
        k(  268) = (   0.1111111   0.3888889   0.1688927), wk =   0.0047031
        k(  269) = (   0.1111111   0.3888889   0.2251903), wk =   0.0047031
        k(  270) = (   0.1111111   0.3888889   0.2814878), wk =   0.0047031
        k(  271) = (   0.1111111   0.3888889   0.3377854), wk =   0.0047031
        k(  272) = (   0.1111111   0.3888889   0.3940830), wk =   0.0047031
        k(  273) = (   0.1111111   0.3888889   0.4503805), wk =   0.0047031
        k(  274) = (   0.1111111   0.3888889   0.5066781), wk =   0.0047031
        k(  275) = (   0.1111111   0.3888889   0.5629757), wk =   0.0047031
        k(  276) = (   0.1111111   0.4444444   0.0000000), wk =   0.0023516
        k(  277) = (   0.1111111   0.4444444   0.0562976), wk =   0.0047031
        k(  278) = (   0.1111111   0.4444444   0.1125951), wk =   0.0047031
        k(  279) = (   0.1111111   0.4444444   0.1688927), wk =   0.0047031
        k(  280) = (   0.1111111   0.4444444   0.2251903), wk =   0.0047031
        k(  281) = (   0.1111111   0.4444444   0.2814878), wk =   0.0047031
        k(  282) = (   0.1111111   0.4444444   0.3377854), wk =   0.0047031
        k(  283) = (   0.1111111   0.4444444   0.3940830), wk =   0.0047031
        k(  284) = (   0.1111111   0.4444444   0.4503805), wk =   0.0047031
        k(  285) = (   0.1111111   0.4444444   0.5066781), wk =   0.0047031
        k(  286) = (   0.1111111   0.4444444   0.5629757), wk =   0.0047031
        k(  287) = (   0.1111111  -0.5000000   0.0000000), wk =   0.0011758
        k(  288) = (   0.1111111  -0.5000000   0.0562976), wk =   0.0023516
        k(  289) = (   0.1111111  -0.5000000   0.1125951), wk =   0.0023516
        k(  290) = (   0.1111111  -0.5000000   0.1688927), wk =   0.0023516
        k(  291) = (   0.1111111  -0.5000000   0.2251903), wk =   0.0023516
        k(  292) = (   0.1111111  -0.5000000   0.2814878), wk =   0.0023516
        k(  293) = (   0.1111111  -0.5000000   0.3377854), wk =   0.0023516
        k(  294) = (   0.1111111  -0.5000000   0.3940830), wk =   0.0023516
        k(  295) = (   0.1111111  -0.5000000   0.4503805), wk =   0.0023516
        k(  296) = (   0.1111111  -0.5000000   0.5066781), wk =   0.0023516
        k(  297) = (   0.1111111  -0.5000000   0.5629757), wk =   0.0023516
        k(  298) = (   0.1666667   0.1666667   0.0000000), wk =   0.0011758
        k(  299) = (   0.1666667   0.1666667   0.0562976), wk =   0.0023516
        k(  300) = (   0.1666667   0.1666667   0.1125951), wk =   0.0023516
        k(  301) = (   0.1666667   0.1666667   0.1688927), wk =   0.0023516
        k(  302) = (   0.1666667   0.1666667   0.2251903), wk =   0.0023516
        k(  303) = (   0.1666667   0.1666667   0.2814878), wk =   0.0023516
        k(  304) = (   0.1666667   0.1666667   0.3377854), wk =   0.0023516
        k(  305) = (   0.1666667   0.1666667   0.3940830), wk =   0.0023516
        k(  306) = (   0.1666667   0.1666667   0.4503805), wk =   0.0023516
        k(  307) = (   0.1666667   0.1666667   0.5066781), wk =   0.0023516
        k(  308) = (   0.1666667   0.1666667   0.5629757), wk =   0.0023516
        k(  309) = (   0.1666667   0.2222222   0.0000000), wk =   0.0023516
        k(  310) = (   0.1666667   0.2222222   0.0562976), wk =   0.0047031
        k(  311) = (   0.1666667   0.2222222   0.1125951), wk =   0.0047031
        k(  312) = (   0.1666667   0.2222222   0.1688927), wk =   0.0047031
        k(  313) = (   0.1666667   0.2222222   0.2251903), wk =   0.0047031
        k(  314) = (   0.1666667   0.2222222   0.2814878), wk =   0.0047031
        k(  315) = (   0.1666667   0.2222222   0.3377854), wk =   0.0047031
        k(  316) = (   0.1666667   0.2222222   0.3940830), wk =   0.0047031
        k(  317) = (   0.1666667   0.2222222   0.4503805), wk =   0.0047031
        k(  318) = (   0.1666667   0.2222222   0.5066781), wk =   0.0047031
        k(  319) = (   0.1666667   0.2222222   0.5629757), wk =   0.0047031
        k(  320) = (   0.1666667   0.2777778   0.0000000), wk =   0.0023516
        k(  321) = (   0.1666667   0.2777778   0.0562976), wk =   0.0047031
        k(  322) = (   0.1666667   0.2777778   0.1125951), wk =   0.0047031
        k(  323) = (   0.1666667   0.2777778   0.1688927), wk =   0.0047031
        k(  324) = (   0.1666667   0.2777778   0.2251903), wk =   0.0047031
        k(  325) = (   0.1666667   0.2777778   0.2814878), wk =   0.0047031
        k(  326) = (   0.1666667   0.2777778   0.3377854), wk =   0.0047031
        k(  327) = (   0.1666667   0.2777778   0.3940830), wk =   0.0047031
        k(  328) = (   0.1666667   0.2777778   0.4503805), wk =   0.0047031
        k(  329) = (   0.1666667   0.2777778   0.5066781), wk =   0.0047031
        k(  330) = (   0.1666667   0.2777778   0.5629757), wk =   0.0047031
        k(  331) = (   0.1666667   0.3333333   0.0000000), wk =   0.0023516
        k(  332) = (   0.1666667   0.3333333   0.0562976), wk =   0.0047031
        k(  333) = (   0.1666667   0.3333333   0.1125951), wk =   0.0047031
        k(  334) = (   0.1666667   0.3333333   0.1688927), wk =   0.0047031
        k(  335) = (   0.1666667   0.3333333   0.2251903), wk =   0.0047031
        k(  336) = (   0.1666667   0.3333333   0.2814878), wk =   0.0047031
        k(  337) = (   0.1666667   0.3333333   0.3377854), wk =   0.0047031
        k(  338) = (   0.1666667   0.3333333   0.3940830), wk =   0.0047031
        k(  339) = (   0.1666667   0.3333333   0.4503805), wk =   0.0047031
        k(  340) = (   0.1666667   0.3333333   0.5066781), wk =   0.0047031
        k(  341) = (   0.1666667   0.3333333   0.5629757), wk =   0.0047031
        k(  342) = (   0.1666667   0.3888889   0.0000000), wk =   0.0023516
        k(  343) = (   0.1666667   0.3888889   0.0562976), wk =   0.0047031
        k(  344) = (   0.1666667   0.3888889   0.1125951), wk =   0.0047031
        k(  345) = (   0.1666667   0.3888889   0.1688927), wk =   0.0047031
        k(  346) = (   0.1666667   0.3888889   0.2251903), wk =   0.0047031
        k(  347) = (   0.1666667   0.3888889   0.2814878), wk =   0.0047031
        k(  348) = (   0.1666667   0.3888889   0.3377854), wk =   0.0047031
        k(  349) = (   0.1666667   0.3888889   0.3940830), wk =   0.0047031
        k(  350) = (   0.1666667   0.3888889   0.4503805), wk =   0.0047031
        k(  351) = (   0.1666667   0.3888889   0.5066781), wk =   0.0047031
        k(  352) = (   0.1666667   0.3888889   0.5629757), wk =   0.0047031
        k(  353) = (   0.1666667   0.4444444   0.0000000), wk =   0.0023516
        k(  354) = (   0.1666667   0.4444444   0.0562976), wk =   0.0047031
        k(  355) = (   0.1666667   0.4444444   0.1125951), wk =   0.0047031
        k(  356) = (   0.1666667   0.4444444   0.1688927), wk =   0.0047031
        k(  357) = (   0.1666667   0.4444444   0.2251903), wk =   0.0047031
        k(  358) = (   0.1666667   0.4444444   0.2814878), wk =   0.0047031
        k(  359) = (   0.1666667   0.4444444   0.3377854), wk =   0.0047031
        k(  360) = (   0.1666667   0.4444444   0.3940830), wk =   0.0047031
        k(  361) = (   0.1666667   0.4444444   0.4503805), wk =   0.0047031
        k(  362) = (   0.1666667   0.4444444   0.5066781), wk =   0.0047031
        k(  363) = (   0.1666667   0.4444444   0.5629757), wk =   0.0047031
        k(  364) = (   0.1666667  -0.5000000   0.0000000), wk =   0.0011758
        k(  365) = (   0.1666667  -0.5000000   0.0562976), wk =   0.0023516
        k(  366) = (   0.1666667  -0.5000000   0.1125951), wk =   0.0023516
        k(  367) = (   0.1666667  -0.5000000   0.1688927), wk =   0.0023516
        k(  368) = (   0.1666667  -0.5000000   0.2251903), wk =   0.0023516
        k(  369) = (   0.1666667  -0.5000000   0.2814878), wk =   0.0023516
        k(  370) = (   0.1666667  -0.5000000   0.3377854), wk =   0.0023516
        k(  371) = (   0.1666667  -0.5000000   0.3940830), wk =   0.0023516
        k(  372) = (   0.1666667  -0.5000000   0.4503805), wk =   0.0023516
        k(  373) = (   0.1666667  -0.5000000   0.5066781), wk =   0.0023516
        k(  374) = (   0.1666667  -0.5000000   0.5629757), wk =   0.0023516
        k(  375) = (   0.2222222   0.2222222   0.0000000), wk =   0.0011758
        k(  376) = (   0.2222222   0.2222222   0.0562976), wk =   0.0023516
        k(  377) = (   0.2222222   0.2222222   0.1125951), wk =   0.0023516
        k(  378) = (   0.2222222   0.2222222   0.1688927), wk =   0.0023516
        k(  379) = (   0.2222222   0.2222222   0.2251903), wk =   0.0023516
        k(  380) = (   0.2222222   0.2222222   0.2814878), wk =   0.0023516
        k(  381) = (   0.2222222   0.2222222   0.3377854), wk =   0.0023516
        k(  382) = (   0.2222222   0.2222222   0.3940830), wk =   0.0023516
        k(  383) = (   0.2222222   0.2222222   0.4503805), wk =   0.0023516
        k(  384) = (   0.2222222   0.2222222   0.5066781), wk =   0.0023516
        k(  385) = (   0.2222222   0.2222222   0.5629757), wk =   0.0023516
        k(  386) = (   0.2222222   0.2777778   0.0000000), wk =   0.0023516
        k(  387) = (   0.2222222   0.2777778   0.0562976), wk =   0.0047031
        k(  388) = (   0.2222222   0.2777778   0.1125951), wk =   0.0047031
        k(  389) = (   0.2222222   0.2777778   0.1688927), wk =   0.0047031
        k(  390) = (   0.2222222   0.2777778   0.2251903), wk =   0.0047031
        k(  391) = (   0.2222222   0.2777778   0.2814878), wk =   0.0047031
        k(  392) = (   0.2222222   0.2777778   0.3377854), wk =   0.0047031
        k(  393) = (   0.2222222   0.2777778   0.3940830), wk =   0.0047031
        k(  394) = (   0.2222222   0.2777778   0.4503805), wk =   0.0047031
        k(  395) = (   0.2222222   0.2777778   0.5066781), wk =   0.0047031
        k(  396) = (   0.2222222   0.2777778   0.5629757), wk =   0.0047031
        k(  397) = (   0.2222222   0.3333333   0.0000000), wk =   0.0023516
        k(  398) = (   0.2222222   0.3333333   0.0562976), wk =   0.0047031
        k(  399) = (   0.2222222   0.3333333   0.1125951), wk =   0.0047031
        k(  400) = (   0.2222222   0.3333333   0.1688927), wk =   0.0047031
        k(  401) = (   0.2222222   0.3333333   0.2251903), wk =   0.0047031
        k(  402) = (   0.2222222   0.3333333   0.2814878), wk =   0.0047031
        k(  403) = (   0.2222222   0.3333333   0.3377854), wk =   0.0047031
        k(  404) = (   0.2222222   0.3333333   0.3940830), wk =   0.0047031
        k(  405) = (   0.2222222   0.3333333   0.4503805), wk =   0.0047031
        k(  406) = (   0.2222222   0.3333333   0.5066781), wk =   0.0047031
        k(  407) = (   0.2222222   0.3333333   0.5629757), wk =   0.0047031
        k(  408) = (   0.2222222   0.3888889   0.0000000), wk =   0.0023516
        k(  409) = (   0.2222222   0.3888889   0.0562976), wk =   0.0047031
        k(  410) = (   0.2222222   0.3888889   0.1125951), wk =   0.0047031
        k(  411) = (   0.2222222   0.3888889   0.1688927), wk =   0.0047031
        k(  412) = (   0.2222222   0.3888889   0.2251903), wk =   0.0047031
        k(  413) = (   0.2222222   0.3888889   0.2814878), wk =   0.0047031
        k(  414) = (   0.2222222   0.3888889   0.3377854), wk =   0.0047031
        k(  415) = (   0.2222222   0.3888889   0.3940830), wk =   0.0047031
        k(  416) = (   0.2222222   0.3888889   0.4503805), wk =   0.0047031
        k(  417) = (   0.2222222   0.3888889   0.5066781), wk =   0.0047031
        k(  418) = (   0.2222222   0.3888889   0.5629757), wk =   0.0047031
        k(  419) = (   0.2222222   0.4444444   0.0000000), wk =   0.0023516
        k(  420) = (   0.2222222   0.4444444   0.0562976), wk =   0.0047031
        k(  421) = (   0.2222222   0.4444444   0.1125951), wk =   0.0047031
        k(  422) = (   0.2222222   0.4444444   0.1688927), wk =   0.0047031
        k(  423) = (   0.2222222   0.4444444   0.2251903), wk =   0.0047031
        k(  424) = (   0.2222222   0.4444444   0.2814878), wk =   0.0047031
        k(  425) = (   0.2222222   0.4444444   0.3377854), wk =   0.0047031
        k(  426) = (   0.2222222   0.4444444   0.3940830), wk =   0.0047031
        k(  427) = (   0.2222222   0.4444444   0.4503805), wk =   0.0047031
        k(  428) = (   0.2222222   0.4444444   0.5066781), wk =   0.0047031
        k(  429) = (   0.2222222   0.4444444   0.5629757), wk =   0.0047031
        k(  430) = (   0.2222222  -0.5000000   0.0000000), wk =   0.0011758
        k(  431) = (   0.2222222  -0.5000000   0.0562976), wk =   0.0023516
        k(  432) = (   0.2222222  -0.5000000   0.1125951), wk =   0.0023516
        k(  433) = (   0.2222222  -0.5000000   0.1688927), wk =   0.0023516
        k(  434) = (   0.2222222  -0.5000000   0.2251903), wk =   0.0023516
        k(  435) = (   0.2222222  -0.5000000   0.2814878), wk =   0.0023516
        k(  436) = (   0.2222222  -0.5000000   0.3377854), wk =   0.0023516
        k(  437) = (   0.2222222  -0.5000000   0.3940830), wk =   0.0023516
        k(  438) = (   0.2222222  -0.5000000   0.4503805), wk =   0.0023516
        k(  439) = (   0.2222222  -0.5000000   0.5066781), wk =   0.0023516
        k(  440) = (   0.2222222  -0.5000000   0.5629757), wk =   0.0023516
        k(  441) = (   0.2777778   0.2777778   0.0000000), wk =   0.0011758
        k(  442) = (   0.2777778   0.2777778   0.0562976), wk =   0.0023516
        k(  443) = (   0.2777778   0.2777778   0.1125951), wk =   0.0023516
        k(  444) = (   0.2777778   0.2777778   0.1688927), wk =   0.0023516
        k(  445) = (   0.2777778   0.2777778   0.2251903), wk =   0.0023516
        k(  446) = (   0.2777778   0.2777778   0.2814878), wk =   0.0023516
        k(  447) = (   0.2777778   0.2777778   0.3377854), wk =   0.0023516
        k(  448) = (   0.2777778   0.2777778   0.3940830), wk =   0.0023516
        k(  449) = (   0.2777778   0.2777778   0.4503805), wk =   0.0023516
        k(  450) = (   0.2777778   0.2777778   0.5066781), wk =   0.0023516
        k(  451) = (   0.2777778   0.2777778   0.5629757), wk =   0.0023516
        k(  452) = (   0.2777778   0.3333333   0.0000000), wk =   0.0023516
        k(  453) = (   0.2777778   0.3333333   0.0562976), wk =   0.0047031
        k(  454) = (   0.2777778   0.3333333   0.1125951), wk =   0.0047031
        k(  455) = (   0.2777778   0.3333333   0.1688927), wk =   0.0047031
        k(  456) = (   0.2777778   0.3333333   0.2251903), wk =   0.0047031
        k(  457) = (   0.2777778   0.3333333   0.2814878), wk =   0.0047031
        k(  458) = (   0.2777778   0.3333333   0.3377854), wk =   0.0047031
        k(  459) = (   0.2777778   0.3333333   0.3940830), wk =   0.0047031
        k(  460) = (   0.2777778   0.3333333   0.4503805), wk =   0.0047031
        k(  461) = (   0.2777778   0.3333333   0.5066781), wk =   0.0047031
        k(  462) = (   0.2777778   0.3333333   0.5629757), wk =   0.0047031
        k(  463) = (   0.2777778   0.3888889   0.0000000), wk =   0.0023516
        k(  464) = (   0.2777778   0.3888889   0.0562976), wk =   0.0047031
        k(  465) = (   0.2777778   0.3888889   0.1125951), wk =   0.0047031
        k(  466) = (   0.2777778   0.3888889   0.1688927), wk =   0.0047031
        k(  467) = (   0.2777778   0.3888889   0.2251903), wk =   0.0047031
        k(  468) = (   0.2777778   0.3888889   0.2814878), wk =   0.0047031
        k(  469) = (   0.2777778   0.3888889   0.3377854), wk =   0.0047031
        k(  470) = (   0.2777778   0.3888889   0.3940830), wk =   0.0047031
        k(  471) = (   0.2777778   0.3888889   0.4503805), wk =   0.0047031
        k(  472) = (   0.2777778   0.3888889   0.5066781), wk =   0.0047031
        k(  473) = (   0.2777778   0.3888889   0.5629757), wk =   0.0047031
        k(  474) = (   0.2777778   0.4444444   0.0000000), wk =   0.0023516
        k(  475) = (   0.2777778   0.4444444   0.0562976), wk =   0.0047031
        k(  476) = (   0.2777778   0.4444444   0.1125951), wk =   0.0047031
        k(  477) = (   0.2777778   0.4444444   0.1688927), wk =   0.0047031
        k(  478) = (   0.2777778   0.4444444   0.2251903), wk =   0.0047031
        k(  479) = (   0.2777778   0.4444444   0.2814878), wk =   0.0047031
        k(  480) = (   0.2777778   0.4444444   0.3377854), wk =   0.0047031
        k(  481) = (   0.2777778   0.4444444   0.3940830), wk =   0.0047031
        k(  482) = (   0.2777778   0.4444444   0.4503805), wk =   0.0047031
        k(  483) = (   0.2777778   0.4444444   0.5066781), wk =   0.0047031
        k(  484) = (   0.2777778   0.4444444   0.5629757), wk =   0.0047031
        k(  485) = (   0.2777778  -0.5000000   0.0000000), wk =   0.0011758
        k(  486) = (   0.2777778  -0.5000000   0.0562976), wk =   0.0023516
        k(  487) = (   0.2777778  -0.5000000   0.1125951), wk =   0.0023516
        k(  488) = (   0.2777778  -0.5000000   0.1688927), wk =   0.0023516
        k(  489) = (   0.2777778  -0.5000000   0.2251903), wk =   0.0023516
        k(  490) = (   0.2777778  -0.5000000   0.2814878), wk =   0.0023516
        k(  491) = (   0.2777778  -0.5000000   0.3377854), wk =   0.0023516
        k(  492) = (   0.2777778  -0.5000000   0.3940830), wk =   0.0023516
        k(  493) = (   0.2777778  -0.5000000   0.4503805), wk =   0.0023516
        k(  494) = (   0.2777778  -0.5000000   0.5066781), wk =   0.0023516
        k(  495) = (   0.2777778  -0.5000000   0.5629757), wk =   0.0023516
        k(  496) = (   0.3333333   0.3333333   0.0000000), wk =   0.0011758
        k(  497) = (   0.3333333   0.3333333   0.0562976), wk =   0.0023516
        k(  498) = (   0.3333333   0.3333333   0.1125951), wk =   0.0023516
        k(  499) = (   0.3333333   0.3333333   0.1688927), wk =   0.0023516
        k(  500) = (   0.3333333   0.3333333   0.2251903), wk =   0.0023516
        k(  501) = (   0.3333333   0.3333333   0.2814878), wk =   0.0023516
        k(  502) = (   0.3333333   0.3333333   0.3377854), wk =   0.0023516
        k(  503) = (   0.3333333   0.3333333   0.3940830), wk =   0.0023516
        k(  504) = (   0.3333333   0.3333333   0.4503805), wk =   0.0023516
        k(  505) = (   0.3333333   0.3333333   0.5066781), wk =   0.0023516
        k(  506) = (   0.3333333   0.3333333   0.5629757), wk =   0.0023516
        k(  507) = (   0.3333333   0.3888889   0.0000000), wk =   0.0023516
        k(  508) = (   0.3333333   0.3888889   0.0562976), wk =   0.0047031
        k(  509) = (   0.3333333   0.3888889   0.1125951), wk =   0.0047031
        k(  510) = (   0.3333333   0.3888889   0.1688927), wk =   0.0047031
        k(  511) = (   0.3333333   0.3888889   0.2251903), wk =   0.0047031
        k(  512) = (   0.3333333   0.3888889   0.2814878), wk =   0.0047031
        k(  513) = (   0.3333333   0.3888889   0.3377854), wk =   0.0047031
        k(  514) = (   0.3333333   0.3888889   0.3940830), wk =   0.0047031
        k(  515) = (   0.3333333   0.3888889   0.4503805), wk =   0.0047031
        k(  516) = (   0.3333333   0.3888889   0.5066781), wk =   0.0047031
        k(  517) = (   0.3333333   0.3888889   0.5629757), wk =   0.0047031
        k(  518) = (   0.3333333   0.4444444   0.0000000), wk =   0.0023516
        k(  519) = (   0.3333333   0.4444444   0.0562976), wk =   0.0047031
        k(  520) = (   0.3333333   0.4444444   0.1125951), wk =   0.0047031
        k(  521) = (   0.3333333   0.4444444   0.1688927), wk =   0.0047031
        k(  522) = (   0.3333333   0.4444444   0.2251903), wk =   0.0047031
        k(  523) = (   0.3333333   0.4444444   0.2814878), wk =   0.0047031
        k(  524) = (   0.3333333   0.4444444   0.3377854), wk =   0.0047031
        k(  525) = (   0.3333333   0.4444444   0.3940830), wk =   0.0047031
        k(  526) = (   0.3333333   0.4444444   0.4503805), wk =   0.0047031
        k(  527) = (   0.3333333   0.4444444   0.5066781), wk =   0.0047031
        k(  528) = (   0.3333333   0.4444444   0.5629757), wk =   0.0047031
        k(  529) = (   0.3333333  -0.5000000   0.0000000), wk =   0.0011758
        k(  530) = (   0.3333333  -0.5000000   0.0562976), wk =   0.0023516
        k(  531) = (   0.3333333  -0.5000000   0.1125951), wk =   0.0023516
        k(  532) = (   0.3333333  -0.5000000   0.1688927), wk =   0.0023516
        k(  533) = (   0.3333333  -0.5000000   0.2251903), wk =   0.0023516
        k(  534) = (   0.3333333  -0.5000000   0.2814878), wk =   0.0023516
        k(  535) = (   0.3333333  -0.5000000   0.3377854), wk =   0.0023516
        k(  536) = (   0.3333333  -0.5000000   0.3940830), wk =   0.0023516
        k(  537) = (   0.3333333  -0.5000000   0.4503805), wk =   0.0023516
        k(  538) = (   0.3333333  -0.5000000   0.5066781), wk =   0.0023516
        k(  539) = (   0.3333333  -0.5000000   0.5629757), wk =   0.0023516
        k(  540) = (   0.3888889   0.3888889   0.0000000), wk =   0.0011758
        k(  541) = (   0.3888889   0.3888889   0.0562976), wk =   0.0023516
        k(  542) = (   0.3888889   0.3888889   0.1125951), wk =   0.0023516
        k(  543) = (   0.3888889   0.3888889   0.1688927), wk =   0.0023516
        k(  544) = (   0.3888889   0.3888889   0.2251903), wk =   0.0023516
        k(  545) = (   0.3888889   0.3888889   0.2814878), wk =   0.0023516
        k(  546) = (   0.3888889   0.3888889   0.3377854), wk =   0.0023516
        k(  547) = (   0.3888889   0.3888889   0.3940830), wk =   0.0023516
        k(  548) = (   0.3888889   0.3888889   0.4503805), wk =   0.0023516
        k(  549) = (   0.3888889   0.3888889   0.5066781), wk =   0.0023516
        k(  550) = (   0.3888889   0.3888889   0.5629757), wk =   0.0023516
        k(  551) = (   0.3888889   0.4444444   0.0000000), wk =   0.0023516
        k(  552) = (   0.3888889   0.4444444   0.0562976), wk =   0.0047031
        k(  553) = (   0.3888889   0.4444444   0.1125951), wk =   0.0047031
        k(  554) = (   0.3888889   0.4444444   0.1688927), wk =   0.0047031
        k(  555) = (   0.3888889   0.4444444   0.2251903), wk =   0.0047031
        k(  556) = (   0.3888889   0.4444444   0.2814878), wk =   0.0047031
        k(  557) = (   0.3888889   0.4444444   0.3377854), wk =   0.0047031
        k(  558) = (   0.3888889   0.4444444   0.3940830), wk =   0.0047031
        k(  559) = (   0.3888889   0.4444444   0.4503805), wk =   0.0047031
        k(  560) = (   0.3888889   0.4444444   0.5066781), wk =   0.0047031
        k(  561) = (   0.3888889   0.4444444   0.5629757), wk =   0.0047031
        k(  562) = (   0.3888889  -0.5000000   0.0000000), wk =   0.0011758
        k(  563) = (   0.3888889  -0.5000000   0.0562976), wk =   0.0023516
        k(  564) = (   0.3888889  -0.5000000   0.1125951), wk =   0.0023516
        k(  565) = (   0.3888889  -0.5000000   0.1688927), wk =   0.0023516
        k(  566) = (   0.3888889  -0.5000000   0.2251903), wk =   0.0023516
        k(  567) = (   0.3888889  -0.5000000   0.2814878), wk =   0.0023516
        k(  568) = (   0.3888889  -0.5000000   0.3377854), wk =   0.0023516
        k(  569) = (   0.3888889  -0.5000000   0.3940830), wk =   0.0023516
        k(  570) = (   0.3888889  -0.5000000   0.4503805), wk =   0.0023516
        k(  571) = (   0.3888889  -0.5000000   0.5066781), wk =   0.0023516
        k(  572) = (   0.3888889  -0.5000000   0.5629757), wk =   0.0023516
        k(  573) = (   0.4444444   0.4444444   0.0000000), wk =   0.0011758
        k(  574) = (   0.4444444   0.4444444   0.0562976), wk =   0.0023516
        k(  575) = (   0.4444444   0.4444444   0.1125951), wk =   0.0023516
        k(  576) = (   0.4444444   0.4444444   0.1688927), wk =   0.0023516
        k(  577) = (   0.4444444   0.4444444   0.2251903), wk =   0.0023516
        k(  578) = (   0.4444444   0.4444444   0.2814878), wk =   0.0023516
        k(  579) = (   0.4444444   0.4444444   0.3377854), wk =   0.0023516
        k(  580) = (   0.4444444   0.4444444   0.3940830), wk =   0.0023516
        k(  581) = (   0.4444444   0.4444444   0.4503805), wk =   0.0023516
        k(  582) = (   0.4444444   0.4444444   0.5066781), wk =   0.0023516
        k(  583) = (   0.4444444   0.4444444   0.5629757), wk =   0.0023516
        k(  584) = (   0.4444444  -0.5000000   0.0000000), wk =   0.0011758
        k(  585) = (   0.4444444  -0.5000000   0.0562976), wk =   0.0023516
        k(  586) = (   0.4444444  -0.5000000   0.1125951), wk =   0.0023516
        k(  587) = (   0.4444444  -0.5000000   0.1688927), wk =   0.0023516
        k(  588) = (   0.4444444  -0.5000000   0.2251903), wk =   0.0023516
        k(  589) = (   0.4444444  -0.5000000   0.2814878), wk =   0.0023516
        k(  590) = (   0.4444444  -0.5000000   0.3377854), wk =   0.0023516
        k(  591) = (   0.4444444  -0.5000000   0.3940830), wk =   0.0023516
        k(  592) = (   0.4444444  -0.5000000   0.4503805), wk =   0.0023516
        k(  593) = (   0.4444444  -0.5000000   0.5066781), wk =   0.0023516
        k(  594) = (   0.4444444  -0.5000000   0.5629757), wk =   0.0023516
        k(  595) = (  -0.5000000  -0.5000000   0.0000000), wk =   0.0002939
        k(  596) = (  -0.5000000  -0.5000000   0.0562976), wk =   0.0005879
        k(  597) = (  -0.5000000  -0.5000000   0.1125951), wk =   0.0005879
        k(  598) = (  -0.5000000  -0.5000000   0.1688927), wk =   0.0005879
        k(  599) = (  -0.5000000  -0.5000000   0.2251903), wk =   0.0005879
        k(  600) = (  -0.5000000  -0.5000000   0.2814878), wk =   0.0005879
        k(  601) = (  -0.5000000  -0.5000000   0.3377854), wk =   0.0005879
        k(  602) = (  -0.5000000  -0.5000000   0.3940830), wk =   0.0005879
        k(  603) = (  -0.5000000  -0.5000000   0.4503805), wk =   0.0005879
        k(  604) = (  -0.5000000  -0.5000000   0.5066781), wk =   0.0005879
        k(  605) = (  -0.5000000  -0.5000000   0.5629757), wk =   0.0005879

                       cryst. coord.
        k(    1) = (   0.0000000   0.0000000   0.0000000), wk =   0.0002939
        k(    2) = (   0.0000000   0.0000000   0.0476190), wk =   0.0005879
        k(    3) = (   0.0000000   0.0000000   0.0952381), wk =   0.0005879
        k(    4) = (   0.0000000   0.0000000   0.1428571), wk =   0.0005879
        k(    5) = (   0.0000000   0.0000000   0.1904762), wk =   0.0005879
        k(    6) = (   0.0000000   0.0000000   0.2380952), wk =   0.0005879
        k(    7) = (   0.0000000   0.0000000   0.2857143), wk =   0.0005879
        k(    8) = (   0.0000000   0.0000000   0.3333333), wk =   0.0005879
        k(    9) = (   0.0000000   0.0000000   0.3809524), wk =   0.0005879
        k(   10) = (   0.0000000   0.0000000   0.4285714), wk =   0.0005879
        k(   11) = (   0.0000000   0.0000000   0.4761905), wk =   0.0005879
        k(   12) = (   0.0000000   0.0555556   0.0000000), wk =   0.0011758
        k(   13) = (   0.0000000   0.0555556   0.0476190), wk =   0.0023516
        k(   14) = (   0.0000000   0.0555556   0.0952381), wk =   0.0023516
        k(   15) = (   0.0000000   0.0555556   0.1428571), wk =   0.0023516
        k(   16) = (   0.0000000   0.0555556   0.1904762), wk =   0.0023516
        k(   17) = (   0.0000000   0.0555556   0.2380952), wk =   0.0023516
        k(   18) = (   0.0000000   0.0555556   0.2857143), wk =   0.0023516
        k(   19) = (   0.0000000   0.0555556   0.3333333), wk =   0.0023516
        k(   20) = (   0.0000000   0.0555556   0.3809524), wk =   0.0023516
        k(   21) = (   0.0000000   0.0555556   0.4285714), wk =   0.0023516
        k(   22) = (   0.0000000   0.0555556   0.4761905), wk =   0.0023516
        k(   23) = (   0.0000000   0.1111111   0.0000000), wk =   0.0011758
        k(   24) = (   0.0000000   0.1111111   0.0476190), wk =   0.0023516
        k(   25) = (   0.0000000   0.1111111   0.0952381), wk =   0.0023516
        k(   26) = (   0.0000000   0.1111111   0.1428571), wk =   0.0023516
        k(   27) = (   0.0000000   0.1111111   0.1904762), wk =   0.0023516
        k(   28) = (   0.0000000   0.1111111   0.2380952), wk =   0.0023516
        k(   29) = (   0.0000000   0.1111111   0.2857143), wk =   0.0023516
        k(   30) = (   0.0000000   0.1111111   0.3333333), wk =   0.0023516
        k(   31) = (   0.0000000   0.1111111   0.3809524), wk =   0.0023516
        k(   32) = (   0.0000000   0.1111111   0.4285714), wk =   0.0023516
        k(   33) = (   0.0000000   0.1111111   0.4761905), wk =   0.0023516
        k(   34) = (   0.0000000   0.1666667   0.0000000), wk =   0.0011758
        k(   35) = (   0.0000000   0.1666667   0.0476190), wk =   0.0023516
        k(   36) = (   0.0000000   0.1666667   0.0952381), wk =   0.0023516
        k(   37) = (   0.0000000   0.1666667   0.1428571), wk =   0.0023516
        k(   38) = (   0.0000000   0.1666667   0.1904762), wk =   0.0023516
        k(   39) = (   0.0000000   0.1666667   0.2380952), wk =   0.0023516
        k(   40) = (   0.0000000   0.1666667   0.2857143), wk =   0.0023516
        k(   41) = (   0.0000000   0.1666667   0.3333333), wk =   0.0023516
        k(   42) = (   0.0000000   0.1666667   0.3809524), wk =   0.0023516
        k(   43) = (   0.0000000   0.1666667   0.4285714), wk =   0.0023516
        k(   44) = (   0.0000000   0.1666667   0.4761905), wk =   0.0023516
        k(   45) = (   0.0000000   0.2222222   0.0000000), wk =   0.0011758
        k(   46) = (   0.0000000   0.2222222   0.0476190), wk =   0.0023516
        k(   47) = (   0.0000000   0.2222222   0.0952381), wk =   0.0023516
        k(   48) = (   0.0000000   0.2222222   0.1428571), wk =   0.0023516
        k(   49) = (   0.0000000   0.2222222   0.1904762), wk =   0.0023516
        k(   50) = (   0.0000000   0.2222222   0.2380952), wk =   0.0023516
        k(   51) = (   0.0000000   0.2222222   0.2857143), wk =   0.0023516
        k(   52) = (   0.0000000   0.2222222   0.3333333), wk =   0.0023516
        k(   53) = (   0.0000000   0.2222222   0.3809524), wk =   0.0023516
        k(   54) = (   0.0000000   0.2222222   0.4285714), wk =   0.0023516
        k(   55) = (   0.0000000   0.2222222   0.4761905), wk =   0.0023516
        k(   56) = (   0.0000000   0.2777778   0.0000000), wk =   0.0011758
        k(   57) = (   0.0000000   0.2777778   0.0476190), wk =   0.0023516
        k(   58) = (   0.0000000   0.2777778   0.0952381), wk =   0.0023516
        k(   59) = (   0.0000000   0.2777778   0.1428571), wk =   0.0023516
        k(   60) = (   0.0000000   0.2777778   0.1904762), wk =   0.0023516
        k(   61) = (   0.0000000   0.2777778   0.2380952), wk =   0.0023516
        k(   62) = (   0.0000000   0.2777778   0.2857143), wk =   0.0023516
        k(   63) = (   0.0000000   0.2777778   0.3333333), wk =   0.0023516
        k(   64) = (   0.0000000   0.2777778   0.3809524), wk =   0.0023516
        k(   65) = (   0.0000000   0.2777778   0.4285714), wk =   0.0023516
        k(   66) = (   0.0000000   0.2777778   0.4761905), wk =   0.0023516
        k(   67) = (   0.0000000   0.3333333   0.0000000), wk =   0.0011758
        k(   68) = (   0.0000000   0.3333333   0.0476190), wk =   0.0023516
        k(   69) = (   0.0000000   0.3333333   0.0952381), wk =   0.0023516
        k(   70) = (   0.0000000   0.3333333   0.1428571), wk =   0.0023516
        k(   71) = (   0.0000000   0.3333333   0.1904762), wk =   0.0023516
        k(   72) = (   0.0000000   0.3333333   0.2380952), wk =   0.0023516
        k(   73) = (   0.0000000   0.3333333   0.2857143), wk =   0.0023516
        k(   74) = (   0.0000000   0.3333333   0.3333333), wk =   0.0023516
        k(   75) = (   0.0000000   0.3333333   0.3809524), wk =   0.0023516
        k(   76) = (   0.0000000   0.3333333   0.4285714), wk =   0.0023516
        k(   77) = (   0.0000000   0.3333333   0.4761905), wk =   0.0023516
        k(   78) = (   0.0000000   0.3888889   0.0000000), wk =   0.0011758
        k(   79) = (   0.0000000   0.3888889   0.0476190), wk =   0.0023516
        k(   80) = (   0.0000000   0.3888889   0.0952381), wk =   0.0023516
        k(   81) = (   0.0000000   0.3888889   0.1428571), wk =   0.0023516
        k(   82) = (   0.0000000   0.3888889   0.1904762), wk =   0.0023516
        k(   83) = (   0.0000000   0.3888889   0.2380952), wk =   0.0023516
        k(   84) = (   0.0000000   0.3888889   0.2857143), wk =   0.0023516
        k(   85) = (   0.0000000   0.3888889   0.3333333), wk =   0.0023516
        k(   86) = (   0.0000000   0.3888889   0.3809524), wk =   0.0023516
        k(   87) = (   0.0000000   0.3888889   0.4285714), wk =   0.0023516
        k(   88) = (   0.0000000   0.3888889   0.4761905), wk =   0.0023516
        k(   89) = (   0.0000000   0.4444444   0.0000000), wk =   0.0011758
        k(   90) = (   0.0000000   0.4444444   0.0476190), wk =   0.0023516
        k(   91) = (   0.0000000   0.4444444   0.0952381), wk =   0.0023516
        k(   92) = (   0.0000000   0.4444444   0.1428571), wk =   0.0023516
        k(   93) = (   0.0000000   0.4444444   0.1904762), wk =   0.0023516
        k(   94) = (   0.0000000   0.4444444   0.2380952), wk =   0.0023516
        k(   95) = (   0.0000000   0.4444444   0.2857143), wk =   0.0023516
        k(   96) = (   0.0000000   0.4444444   0.3333333), wk =   0.0023516
        k(   97) = (   0.0000000   0.4444444   0.3809524), wk =   0.0023516
        k(   98) = (   0.0000000   0.4444444   0.4285714), wk =   0.0023516
        k(   99) = (   0.0000000   0.4444444   0.4761905), wk =   0.0023516
        k(  100) = (   0.0000000  -0.5000000   0.0000000), wk =   0.0005879
        k(  101) = (   0.0000000  -0.5000000   0.0476190), wk =   0.0011758
        k(  102) = (   0.0000000  -0.5000000   0.0952381), wk =   0.0011758
        k(  103) = (   0.0000000  -0.5000000   0.1428571), wk =   0.0011758
        k(  104) = (   0.0000000  -0.5000000   0.1904762), wk =   0.0011758
        k(  105) = (   0.0000000  -0.5000000   0.2380952), wk =   0.0011758
        k(  106) = (   0.0000000  -0.5000000   0.2857143), wk =   0.0011758
        k(  107) = (   0.0000000  -0.5000000   0.3333333), wk =   0.0011758
        k(  108) = (   0.0000000  -0.5000000   0.3809524), wk =   0.0011758
        k(  109) = (   0.0000000  -0.5000000   0.4285714), wk =   0.0011758
        k(  110) = (   0.0000000  -0.5000000   0.4761905), wk =   0.0011758
        k(  111) = (   0.0555556   0.0555556   0.0000000), wk =   0.0011758
        k(  112) = (   0.0555556   0.0555556   0.0476190), wk =   0.0023516
        k(  113) = (   0.0555556   0.0555556   0.0952381), wk =   0.0023516
        k(  114) = (   0.0555556   0.0555556   0.1428571), wk =   0.0023516
        k(  115) = (   0.0555556   0.0555556   0.1904762), wk =   0.0023516
        k(  116) = (   0.0555556   0.0555556   0.2380952), wk =   0.0023516
        k(  117) = (   0.0555556   0.0555556   0.2857143), wk =   0.0023516
        k(  118) = (   0.0555556   0.0555556   0.3333333), wk =   0.0023516
        k(  119) = (   0.0555556   0.0555556   0.3809524), wk =   0.0023516
        k(  120) = (   0.0555556   0.0555556   0.4285714), wk =   0.0023516
        k(  121) = (   0.0555556   0.0555556   0.4761905), wk =   0.0023516
        k(  122) = (   0.0555556   0.1111111   0.0000000), wk =   0.0023516
        k(  123) = (   0.0555556   0.1111111   0.0476190), wk =   0.0047031
        k(  124) = (   0.0555556   0.1111111   0.0952381), wk =   0.0047031
        k(  125) = (   0.0555556   0.1111111   0.1428571), wk =   0.0047031
        k(  126) = (   0.0555556   0.1111111   0.1904762), wk =   0.0047031
        k(  127) = (   0.0555556   0.1111111   0.2380952), wk =   0.0047031
        k(  128) = (   0.0555556   0.1111111   0.2857143), wk =   0.0047031
        k(  129) = (   0.0555556   0.1111111   0.3333333), wk =   0.0047031
        k(  130) = (   0.0555556   0.1111111   0.3809524), wk =   0.0047031
        k(  131) = (   0.0555556   0.1111111   0.4285714), wk =   0.0047031
        k(  132) = (   0.0555556   0.1111111   0.4761905), wk =   0.0047031
        k(  133) = (   0.0555556   0.1666667   0.0000000), wk =   0.0023516
        k(  134) = (   0.0555556   0.1666667   0.0476190), wk =   0.0047031
        k(  135) = (   0.0555556   0.1666667   0.0952381), wk =   0.0047031
        k(  136) = (   0.0555556   0.1666667   0.1428571), wk =   0.0047031
        k(  137) = (   0.0555556   0.1666667   0.1904762), wk =   0.0047031
        k(  138) = (   0.0555556   0.1666667   0.2380952), wk =   0.0047031
        k(  139) = (   0.0555556   0.1666667   0.2857143), wk =   0.0047031
        k(  140) = (   0.0555556   0.1666667   0.3333333), wk =   0.0047031
        k(  141) = (   0.0555556   0.1666667   0.3809524), wk =   0.0047031
        k(  142) = (   0.0555556   0.1666667   0.4285714), wk =   0.0047031
        k(  143) = (   0.0555556   0.1666667   0.4761905), wk =   0.0047031
        k(  144) = (   0.0555556   0.2222222   0.0000000), wk =   0.0023516
        k(  145) = (   0.0555556   0.2222222   0.0476190), wk =   0.0047031
        k(  146) = (   0.0555556   0.2222222   0.0952381), wk =   0.0047031
        k(  147) = (   0.0555556   0.2222222   0.1428571), wk =   0.0047031
        k(  148) = (   0.0555556   0.2222222   0.1904762), wk =   0.0047031
        k(  149) = (   0.0555556   0.2222222   0.2380952), wk =   0.0047031
        k(  150) = (   0.0555556   0.2222222   0.2857143), wk =   0.0047031
        k(  151) = (   0.0555556   0.2222222   0.3333333), wk =   0.0047031
        k(  152) = (   0.0555556   0.2222222   0.3809524), wk =   0.0047031
        k(  153) = (   0.0555556   0.2222222   0.4285714), wk =   0.0047031
        k(  154) = (   0.0555556   0.2222222   0.4761905), wk =   0.0047031
        k(  155) = (   0.0555556   0.2777778   0.0000000), wk =   0.0023516
        k(  156) = (   0.0555556   0.2777778   0.0476190), wk =   0.0047031
        k(  157) = (   0.0555556   0.2777778   0.0952381), wk =   0.0047031
        k(  158) = (   0.0555556   0.2777778   0.1428571), wk =   0.0047031
        k(  159) = (   0.0555556   0.2777778   0.1904762), wk =   0.0047031
        k(  160) = (   0.0555556   0.2777778   0.2380952), wk =   0.0047031
        k(  161) = (   0.0555556   0.2777778   0.2857143), wk =   0.0047031
        k(  162) = (   0.0555556   0.2777778   0.3333333), wk =   0.0047031
        k(  163) = (   0.0555556   0.2777778   0.3809524), wk =   0.0047031
        k(  164) = (   0.0555556   0.2777778   0.4285714), wk =   0.0047031
        k(  165) = (   0.0555556   0.2777778   0.4761905), wk =   0.0047031
        k(  166) = (   0.0555556   0.3333333   0.0000000), wk =   0.0023516
        k(  167) = (   0.0555556   0.3333333   0.0476190), wk =   0.0047031
        k(  168) = (   0.0555556   0.3333333   0.0952381), wk =   0.0047031
        k(  169) = (   0.0555556   0.3333333   0.1428571), wk =   0.0047031
        k(  170) = (   0.0555556   0.3333333   0.1904762), wk =   0.0047031
        k(  171) = (   0.0555556   0.3333333   0.2380952), wk =   0.0047031
        k(  172) = (   0.0555556   0.3333333   0.2857143), wk =   0.0047031
        k(  173) = (   0.0555556   0.3333333   0.3333333), wk =   0.0047031
        k(  174) = (   0.0555556   0.3333333   0.3809524), wk =   0.0047031
        k(  175) = (   0.0555556   0.3333333   0.4285714), wk =   0.0047031
        k(  176) = (   0.0555556   0.3333333   0.4761905), wk =   0.0047031
        k(  177) = (   0.0555556   0.3888889   0.0000000), wk =   0.0023516
        k(  178) = (   0.0555556   0.3888889   0.0476190), wk =   0.0047031
        k(  179) = (   0.0555556   0.3888889   0.0952381), wk =   0.0047031
        k(  180) = (   0.0555556   0.3888889   0.1428571), wk =   0.0047031
        k(  181) = (   0.0555556   0.3888889   0.1904762), wk =   0.0047031
        k(  182) = (   0.0555556   0.3888889   0.2380952), wk =   0.0047031
        k(  183) = (   0.0555556   0.3888889   0.2857143), wk =   0.0047031
        k(  184) = (   0.0555556   0.3888889   0.3333333), wk =   0.0047031
        k(  185) = (   0.0555556   0.3888889   0.3809524), wk =   0.0047031
        k(  186) = (   0.0555556   0.3888889   0.4285714), wk =   0.0047031
        k(  187) = (   0.0555556   0.3888889   0.4761905), wk =   0.0047031
        k(  188) = (   0.0555556   0.4444444   0.0000000), wk =   0.0023516
        k(  189) = (   0.0555556   0.4444444   0.0476190), wk =   0.0047031
        k(  190) = (   0.0555556   0.4444444   0.0952381), wk =   0.0047031
        k(  191) = (   0.0555556   0.4444444   0.1428571), wk =   0.0047031
        k(  192) = (   0.0555556   0.4444444   0.1904762), wk =   0.0047031
        k(  193) = (   0.0555556   0.4444444   0.2380952), wk =   0.0047031
        k(  194) = (   0.0555556   0.4444444   0.2857143), wk =   0.0047031
        k(  195) = (   0.0555556   0.4444444   0.3333333), wk =   0.0047031
        k(  196) = (   0.0555556   0.4444444   0.3809524), wk =   0.0047031
        k(  197) = (   0.0555556   0.4444444   0.4285714), wk =   0.0047031
        k(  198) = (   0.0555556   0.4444444   0.4761905), wk =   0.0047031
        k(  199) = (   0.0555556  -0.5000000   0.0000000), wk =   0.0011758
        k(  200) = (   0.0555556  -0.5000000   0.0476190), wk =   0.0023516
        k(  201) = (   0.0555556  -0.5000000   0.0952381), wk =   0.0023516
        k(  202) = (   0.0555556  -0.5000000   0.1428571), wk =   0.0023516
        k(  203) = (   0.0555556  -0.5000000   0.1904762), wk =   0.0023516
        k(  204) = (   0.0555556  -0.5000000   0.2380952), wk =   0.0023516
        k(  205) = (   0.0555556  -0.5000000   0.2857143), wk =   0.0023516
        k(  206) = (   0.0555556  -0.5000000   0.3333333), wk =   0.0023516
        k(  207) = (   0.0555556  -0.5000000   0.3809524), wk =   0.0023516
        k(  208) = (   0.0555556  -0.5000000   0.4285714), wk =   0.0023516
        k(  209) = (   0.0555556  -0.5000000   0.4761905), wk =   0.0023516
        k(  210) = (   0.1111111   0.1111111   0.0000000), wk =   0.0011758
        k(  211) = (   0.1111111   0.1111111   0.0476190), wk =   0.0023516
        k(  212) = (   0.1111111   0.1111111   0.0952381), wk =   0.0023516
        k(  213) = (   0.1111111   0.1111111   0.1428571), wk =   0.0023516
        k(  214) = (   0.1111111   0.1111111   0.1904762), wk =   0.0023516
        k(  215) = (   0.1111111   0.1111111   0.2380952), wk =   0.0023516
        k(  216) = (   0.1111111   0.1111111   0.2857143), wk =   0.0023516
        k(  217) = (   0.1111111   0.1111111   0.3333333), wk =   0.0023516
        k(  218) = (   0.1111111   0.1111111   0.3809524), wk =   0.0023516
        k(  219) = (   0.1111111   0.1111111   0.4285714), wk =   0.0023516
        k(  220) = (   0.1111111   0.1111111   0.4761905), wk =   0.0023516
        k(  221) = (   0.1111111   0.1666667   0.0000000), wk =   0.0023516
        k(  222) = (   0.1111111   0.1666667   0.0476190), wk =   0.0047031
        k(  223) = (   0.1111111   0.1666667   0.0952381), wk =   0.0047031
        k(  224) = (   0.1111111   0.1666667   0.1428571), wk =   0.0047031
        k(  225) = (   0.1111111   0.1666667   0.1904762), wk =   0.0047031
        k(  226) = (   0.1111111   0.1666667   0.2380952), wk =   0.0047031
        k(  227) = (   0.1111111   0.1666667   0.2857143), wk =   0.0047031
        k(  228) = (   0.1111111   0.1666667   0.3333333), wk =   0.0047031
        k(  229) = (   0.1111111   0.1666667   0.3809524), wk =   0.0047031
        k(  230) = (   0.1111111   0.1666667   0.4285714), wk =   0.0047031
        k(  231) = (   0.1111111   0.1666667   0.4761905), wk =   0.0047031
        k(  232) = (   0.1111111   0.2222222   0.0000000), wk =   0.0023516
        k(  233) = (   0.1111111   0.2222222   0.0476190), wk =   0.0047031
        k(  234) = (   0.1111111   0.2222222   0.0952381), wk =   0.0047031
        k(  235) = (   0.1111111   0.2222222   0.1428571), wk =   0.0047031
        k(  236) = (   0.1111111   0.2222222   0.1904762), wk =   0.0047031
        k(  237) = (   0.1111111   0.2222222   0.2380952), wk =   0.0047031
        k(  238) = (   0.1111111   0.2222222   0.2857143), wk =   0.0047031
        k(  239) = (   0.1111111   0.2222222   0.3333333), wk =   0.0047031
        k(  240) = (   0.1111111   0.2222222   0.3809524), wk =   0.0047031
        k(  241) = (   0.1111111   0.2222222   0.4285714), wk =   0.0047031
        k(  242) = (   0.1111111   0.2222222   0.4761905), wk =   0.0047031
        k(  243) = (   0.1111111   0.2777778   0.0000000), wk =   0.0023516
        k(  244) = (   0.1111111   0.2777778   0.0476190), wk =   0.0047031
        k(  245) = (   0.1111111   0.2777778   0.0952381), wk =   0.0047031
        k(  246) = (   0.1111111   0.2777778   0.1428571), wk =   0.0047031
        k(  247) = (   0.1111111   0.2777778   0.1904762), wk =   0.0047031
        k(  248) = (   0.1111111   0.2777778   0.2380952), wk =   0.0047031
        k(  249) = (   0.1111111   0.2777778   0.2857143), wk =   0.0047031
        k(  250) = (   0.1111111   0.2777778   0.3333333), wk =   0.0047031
        k(  251) = (   0.1111111   0.2777778   0.3809524), wk =   0.0047031
        k(  252) = (   0.1111111   0.2777778   0.4285714), wk =   0.0047031
        k(  253) = (   0.1111111   0.2777778   0.4761905), wk =   0.0047031
        k(  254) = (   0.1111111   0.3333333   0.0000000), wk =   0.0023516
        k(  255) = (   0.1111111   0.3333333   0.0476190), wk =   0.0047031
        k(  256) = (   0.1111111   0.3333333   0.0952381), wk =   0.0047031
        k(  257) = (   0.1111111   0.3333333   0.1428571), wk =   0.0047031
        k(  258) = (   0.1111111   0.3333333   0.1904762), wk =   0.0047031
        k(  259) = (   0.1111111   0.3333333   0.2380952), wk =   0.0047031
        k(  260) = (   0.1111111   0.3333333   0.2857143), wk =   0.0047031
        k(  261) = (   0.1111111   0.3333333   0.3333333), wk =   0.0047031
        k(  262) = (   0.1111111   0.3333333   0.3809524), wk =   0.0047031
        k(  263) = (   0.1111111   0.3333333   0.4285714), wk =   0.0047031
        k(  264) = (   0.1111111   0.3333333   0.4761905), wk =   0.0047031
        k(  265) = (   0.1111111   0.3888889   0.0000000), wk =   0.0023516
        k(  266) = (   0.1111111   0.3888889   0.0476190), wk =   0.0047031
        k(  267) = (   0.1111111   0.3888889   0.0952381), wk =   0.0047031
        k(  268) = (   0.1111111   0.3888889   0.1428571), wk =   0.0047031
        k(  269) = (   0.1111111   0.3888889   0.1904762), wk =   0.0047031
        k(  270) = (   0.1111111   0.3888889   0.2380952), wk =   0.0047031
        k(  271) = (   0.1111111   0.3888889   0.2857143), wk =   0.0047031
        k(  272) = (   0.1111111   0.3888889   0.3333333), wk =   0.0047031
        k(  273) = (   0.1111111   0.3888889   0.3809524), wk =   0.0047031
        k(  274) = (   0.1111111   0.3888889   0.4285714), wk =   0.0047031
        k(  275) = (   0.1111111   0.3888889   0.4761905), wk =   0.0047031
        k(  276) = (   0.1111111   0.4444444   0.0000000), wk =   0.0023516
        k(  277) = (   0.1111111   0.4444444   0.0476190), wk =   0.0047031
        k(  278) = (   0.1111111   0.4444444   0.0952381), wk =   0.0047031
        k(  279) = (   0.1111111   0.4444444   0.1428571), wk =   0.0047031
        k(  280) = (   0.1111111   0.4444444   0.1904762), wk =   0.0047031
        k(  281) = (   0.1111111   0.4444444   0.2380952), wk =   0.0047031
        k(  282) = (   0.1111111   0.4444444   0.2857143), wk =   0.0047031
        k(  283) = (   0.1111111   0.4444444   0.3333333), wk =   0.0047031
        k(  284) = (   0.1111111   0.4444444   0.3809524), wk =   0.0047031
        k(  285) = (   0.1111111   0.4444444   0.4285714), wk =   0.0047031
        k(  286) = (   0.1111111   0.4444444   0.4761905), wk =   0.0047031
        k(  287) = (   0.1111111  -0.5000000   0.0000000), wk =   0.0011758
        k(  288) = (   0.1111111  -0.5000000   0.0476190), wk =   0.0023516
        k(  289) = (   0.1111111  -0.5000000   0.0952381), wk =   0.0023516
        k(  290) = (   0.1111111  -0.5000000   0.1428571), wk =   0.0023516
        k(  291) = (   0.1111111  -0.5000000   0.1904762), wk =   0.0023516
        k(  292) = (   0.1111111  -0.5000000   0.2380952), wk =   0.0023516
        k(  293) = (   0.1111111  -0.5000000   0.2857143), wk =   0.0023516
        k(  294) = (   0.1111111  -0.5000000   0.3333333), wk =   0.0023516
        k(  295) = (   0.1111111  -0.5000000   0.3809524), wk =   0.0023516
        k(  296) = (   0.1111111  -0.5000000   0.4285714), wk =   0.0023516
        k(  297) = (   0.1111111  -0.5000000   0.4761905), wk =   0.0023516
        k(  298) = (   0.1666667   0.1666667   0.0000000), wk =   0.0011758
        k(  299) = (   0.1666667   0.1666667   0.0476190), wk =   0.0023516
        k(  300) = (   0.1666667   0.1666667   0.0952381), wk =   0.0023516
        k(  301) = (   0.1666667   0.1666667   0.1428571), wk =   0.0023516
        k(  302) = (   0.1666667   0.1666667   0.1904762), wk =   0.0023516
        k(  303) = (   0.1666667   0.1666667   0.2380952), wk =   0.0023516
[...]
    16.2504  16.2505

     occupation numbers 
     1.0000   1.0000   1.0000   1.0000   1.0000   1.0000   1.0000   0.0000
     0.0000   0.0000

          k = 0.3889 0.3889 0.3941 (   796 PWs)   bands (ev):

     1.4532   3.3828   3.3829   5.0328   5.8383   7.4591   7.4591   9.3221
    16.5732  16.5732

     occupation numbers 
     1.0000   1.0000   1.0000   1.0000   1.0000   1.0000   1.0000   1.0006
     0.0000   0.0000

          k = 0.3889 0.3889 0.4504 (   796 PWs)   bands (ev):

     1.8698   3.7830   3.7830   4.6536   5.8935   6.7496   6.7496   8.6088
    16.9303  16.9304

     occupation numbers 
     1.0000   1.0000   1.0000   1.0000   1.0000   1.0000   1.0000   1.0000
     0.0000   0.0000

          k = 0.3889 0.3889 0.5067 (   802 PWs)   bands (ev):

     2.3394   4.0387   4.2192   4.2192   6.1064   6.1064   6.2873   7.9453
    17.3036  17.3036

     occupation numbers 
     1.0000   1.0000   1.0000   1.0000   1.0000   1.0000   1.0000   1.0000
     0.0000   0.0000

          k = 0.3889 0.3889 0.5630 (   802 PWs)   bands (ev):

     2.8604   3.4296   4.6279   4.6280   5.5940   5.5940   6.7787   7.3341
    17.6155  17.6155

     occupation numbers 
     1.0000   1.0000   1.0000   1.0000   1.0000   1.0000   1.0000   1.0000
     0.0000   0.0000

          k = 0.3889 0.4444 0.0000 (   799 PWs)   bands (ev):

     0.4915   1.4728   2.4461   3.4116  11.4507  12.3440  13.2368  13.6963
    14.1287  14.4241

     occupation numbers 
     1.0000   1.0000   1.0000   1.0000   0.0000   0.0000   0.0000   0.0000
     0.0000   0.0000

          k = 0.3889 0.4444 0.0563 (   801 PWs)   bands (ev):

     0.5196   1.5006   2.4736   3.4388  11.0309  11.9289  12.8311  13.7362
    14.1504  14.8023

     occupation numbers 
     1.0000   1.0000   1.0000   1.0000   0.0000   0.0000   0.0000   0.0000
     0.0000   0.0000

          k = 0.3889 0.4444 0.1126 (   804 PWs)   bands (ev):

     0.6038   1.5841   2.5562   3.5201  10.2086  11.1157  12.0279  12.9442
    15.0664  15.3934

     occupation numbers 
     1.0000   1.0000   1.0000   1.0000   0.0000   0.0000   0.0000   0.0000
     0.0000   0.0000

          k = 0.3889 0.4444 0.1689 (   797 PWs)   bands (ev):

     0.7440   1.7230   2.6936   3.6551   9.3130  10.2278  11.1467  12.0687
    15.7658  16.0406

     occupation numbers 
     1.0000   1.0000   1.0000   1.0000   1.0004   0.0000   0.0000   0.0000
     0.0000   0.0000

          k = 0.3889 0.4444 0.2252 (   799 PWs)   bands (ev):

     0.9401   1.9172   2.8854   3.8429   8.4257   9.3454  10.2690  11.1950
    16.0288  16.6151

     occupation numbers 
     1.0000   1.0000   1.0000   1.0000   1.0000   1.0013   0.0000   0.0000
     0.0000   0.0000

          k = 0.3889 0.4444 0.2815 (   795 PWs)   bands (ev):

     1.1916   2.1662   3.1308   4.0811   7.5727   8.4934   9.4202  10.3493
    16.2901  16.9039

     occupation numbers 
     1.0000   1.0000   1.0000   1.0000   1.0000   1.0000   1.0114   0.0000
     0.0000   0.0000

          k = 0.3889 0.4444 0.3378 (   796 PWs)   bands (ev):

     1.4981   2.4693   3.4283   4.3636   6.7696   7.6829   8.6109   9.5425
    16.5811  17.1912

     occupation numbers 
     1.0000   1.0000   1.0000   1.0000   1.0000   1.0000   1.0000   1.0780
     0.0000   0.0000

          k = 0.3889 0.4444 0.3941 (   798 PWs)   bands (ev):

     1.8591   2.8255   3.7750   4.6652   6.0461   6.9218   7.8471   8.7800
    16.9101  17.5150

     occupation numbers 
     1.0000   1.0000   1.0000   1.0000   1.0000   1.0000   1.0000   1.0000
     0.0000   0.0000

          k = 0.3889 0.4444 0.4504 (   801 PWs)   bands (ev):

     2.2736   3.2328   4.1613   4.8050   5.5857   6.2222   7.1333   8.0654
    17.2786  17.8814

     occupation numbers 
     1.0000   1.0000   1.0000   1.0000   1.0000   1.0000   1.0000   1.0000
     0.0000   0.0000

          k = 0.3889 0.4444 0.5067 (   804 PWs)   bands (ev):

     2.7402   3.6867   4.3910   4.5416   5.6311   5.7818   6.4756   7.4015
    17.6812  18.2921

     occupation numbers 
     1.0000   1.0000   1.0000   1.0000   1.0000   1.0000   1.0000   1.0000
     0.0000   0.0000

          k = 0.3889 0.4444 0.5630 (   807 PWs)   bands (ev):

     3.2562   3.8149   4.1723   4.5996   5.4658   5.8896   6.2436   6.7919
    18.0976  18.4339

     occupation numbers 
     1.0000   1.0000   1.0000   1.0000   1.0000   1.0000   1.0000   1.0000
     0.0000   0.0000

          k = 0.3889-0.5000 0.0000 (   796 PWs)   bands (ev):

     0.9559   0.9559   2.9031   2.9032  11.8726  11.8726  13.6581  13.6582
    14.0804  14.0806

     occupation numbers 
     1.0000   1.0000   1.0000   1.0000   0.0000   0.0000   0.0000   0.0000
     0.0000   0.0000

          k = 0.3889-0.5000 0.0563 (   800 PWs)   bands (ev):

     0.9838   0.9839   2.9305   2.9306  11.4559  11.4559  13.2599  13.2599
    14.5139  14.5141

     occupation numbers 
     1.0000   1.0000   1.0000   1.0000   0.0000   0.0000   0.0000   0.0000
     0.0000   0.0000

          k = 0.3889-0.5000 0.1126 (   800 PWs)   bands (ev):

     1.0677   1.0678   3.0126   3.0126  10.6381  10.6381  12.4624  12.4625
    15.3354  15.3355

     occupation numbers 
     1.0000   1.0000   1.0000   1.0000   0.0000   0.0000   0.0000   0.0000
     0.0000   0.0000

          k = 0.3889-0.5000 0.1689 (   794 PWs)   bands (ev):

     1.2074   1.2075   3.1490   3.1490   9.7458   9.7458  11.5837  11.5837
    15.9939  15.9941

     occupation numbers 
     1.0000   1.0000   1.0000   1.0000   0.4571   0.4571   0.0000   0.0000
     0.0000   0.0000

          k = 0.3889-0.5000 0.2252 (   794 PWs)   bands (ev):

     1.4026   1.4026   3.3391   3.3392   8.8602   8.8602  10.7076  10.7076
    16.3431  16.3432

     occupation numbers 
     1.0000   1.0000   1.0000   1.0000   1.0000   1.0000   0.0000   0.0000
     0.0000   0.0000

          k = 0.3889-0.5000 0.2815 (   796 PWs)   bands (ev):

     1.6530   1.6530   3.5818   3.5819   8.0065   8.0065   9.8600   9.8600
    16.6213  16.6213

     occupation numbers 
     1.0000   1.0000   1.0000   1.0000   1.0000   1.0000   0.0657   0.0657
     0.0000   0.0000

          k = 0.3889-0.5000 0.3378 (   792 PWs)   bands (ev):

     1.9580   1.9581   3.8744   3.8744   7.1970   7.1970   9.0515   9.0515
    16.9160  16.9160

     occupation numbers 
     1.0000   1.0000   1.0000   1.0000   1.0000   1.0000   1.0000   1.0000
     0.0000   0.0000

          k = 0.3889-0.5000 0.3941 (   796 PWs)   bands (ev):

     2.3169   2.3170   4.2092   4.2093   6.4439   6.4439   8.2879   8.2879
    17.2468  17.2468

     occupation numbers 
     1.0000   1.0000   1.0000   1.0000   1.0000   1.0000   1.0000   1.0000
     0.0000   0.0000

          k = 0.3889-0.5000 0.4504 (   802 PWs)   bands (ev):

     2.7285   2.7286   4.5530   4.5531   5.7830   5.7830   7.5729   7.5729
    17.6182  17.6182

     occupation numbers 
     1.0000   1.0000   1.0000   1.0000   1.0000   1.0000   1.0000   1.0000
     0.0000   0.0000

          k = 0.3889-0.5000 0.5067 (   804 PWs)   bands (ev):

     3.1905   3.1906   4.6600   4.6602   5.4616   5.4616   6.9104   6.9104
    18.0300  18.0301

     occupation numbers 
     1.0000   1.0000   1.0000   1.0000   1.0000   1.0000   1.0000   1.0000
     0.0000   0.0000

          k = 0.3889-0.5000 0.5630 (   812 PWs)   bands (ev):

     3.6974   3.6974   4.2299   4.2300   5.7809   5.7809   6.3065   6.3065
    18.4766  18.4767

     occupation numbers 
     1.0000   1.0000   1.0000   1.0000   1.0000   1.0000   1.0000   1.0000
     0.0000   0.0000

          k = 0.4444 0.4444 0.0000 (   792 PWs)   bands (ev):

     0.9015   1.8796   1.8796   2.8499  11.8231  12.7162  12.7163  13.6087
    14.1142  14.9795

     occupation numbers 
     1.0000   1.0000   1.0000   1.0000   0.0000   0.0000   0.0000   0.0000
     0.0000   0.0000

          k = 0.4444 0.4444 0.0563 (   796 PWs)   bands (ev):

     0.9295   1.9073   1.9073   2.8773  11.4083  12.3089  12.3089  13.2124
    14.5675  15.4043

     occupation numbers 
     1.0000   1.0000   1.0000   1.0000   0.0000   0.0000   0.0000   0.0000
     0.0000   0.0000

          k = 0.4444 0.4444 0.1126 (   802 PWs)   bands (ev):

     1.0134   1.9904   1.9904   2.9594  10.5906  11.5011  11.5011  12.4155
    15.4986  16.2162

     occupation numbers 
     1.0000   1.0000   1.0000   1.0000   0.0000   0.0000   0.0000   0.0000
     0.0000   0.0000

          k = 0.4444 0.4444 0.1689 (   797 PWs)   bands (ev):

     1.1531   2.1288   2.1288   3.0959   9.6974  10.6152  10.6152  11.5360
    16.5719  16.8547

     occupation numbers 
     1.0000   1.0000   1.0000   1.0000   0.7216   0.0000   0.0000   0.0000
     0.0000   0.0000

          k = 0.4444 0.4444 0.2252 (   794 PWs)   bands (ev):

     1.3484   2.3220   2.3220   3.2861   8.8107   9.7336   9.7336  10.6591
    17.1843  17.3934

     occupation numbers 
     1.0000   1.0000   1.0000   1.0000   1.0000   0.5228   0.5228   0.0000
     0.0000   0.0000

          k = 0.4444 0.4444 0.2815 (   790 PWs)   bands (ev):

     1.5989   2.5696   2.5696   3.5290   7.9562   8.8818   8.8818   9.8107
    17.4530  17.6086

     occupation numbers 
     1.0000   1.0000   1.0000   1.0000   1.0000   1.0000   1.0000   0.1773
     0.0000   0.0000

          k = 0.4444 0.4444 0.3378 (   790 PWs)   bands (ev):

     1.9041   2.8706   2.8706   3.8217   7.1459   8.0705   8.0705   9.0016
    17.7406  17.8713

     occupation numbers 
     1.0000   1.0000   1.0000   1.0000   1.0000   1.0000   1.0000   1.0000
     0.0000   0.0000

          k = 0.4444 0.4444 0.3941 (   800 PWs)   bands (ev):

     2.2632   3.2234   3.2234   4.1568   6.3921   7.3061   7.3061   8.2375
    18.0626  18.1816

     occupation numbers 
     1.0000   1.0000   1.0000   1.0000   1.0000   1.0000   1.0000   1.0000
     0.0000   0.0000

          k = 0.4444 0.4444 0.4504 (   804 PWs)   bands (ev):

     2.6750   3.6243   3.6243   4.5009   5.7306   6.5950   6.5950   7.5220
    18.4195  18.5378

     occupation numbers 
     1.0000   1.0000   1.0000   1.0000   1.0000   1.0000   1.0000   1.0000
     0.0000   0.0000

          k = 0.4444 0.4444 0.5067 (   810 PWs)   bands (ev):

     3.1372   4.0615   4.0615   4.6081   5.4089   5.9503   5.9503   6.8590
    18.7982  18.7984

     occupation numbers 
     1.0000   1.0000   1.0000   1.0000   1.0000   1.0000   1.0000   1.0000
     0.0000   0.0000

          k = 0.4444 0.4444 0.5630 (   810 PWs)   bands (ev):

     3.6444   4.1774   4.4716   4.4717   5.4362   5.4362   5.7287   6.2547
    19.1300  19.1301

     occupation numbers 
     1.0000   1.0000   1.0000   1.0000   1.0000   1.0000   1.0000   1.0000
     0.0000   0.0000

          k = 0.4444-0.5000 0.0000 (   794 PWs)   bands (ev):

     1.3644   1.3645   2.3389   2.3389  12.2449  12.2449  13.1378  13.1379
    14.5454  14.5456

     occupation numbers 
     1.0000   1.0000   1.0000   1.0000   0.0000   0.0000   0.0000   0.0000
     0.0000   0.0000

          k = 0.4444-0.5000 0.0563 (   796 PWs)   bands (ev):

     1.3923   1.3923   2.3665   2.3665  11.8344  11.8344  12.7366  12.7366
    14.9906  14.9907

     occupation numbers 
     1.0000   1.0000   1.0000   1.0000   0.0000   0.0000   0.0000   0.0000
     0.0000   0.0000

          k = 0.4444-0.5000 0.1126 (   800 PWs)   bands (ev):

     1.4758   1.4759   2.4491   2.4492  11.0217  11.0217  11.9343  11.9343
    15.8976  15.8977

     occupation numbers 
     1.0000   1.0000   1.0000   1.0000   0.0000   0.0000   0.0000   0.0000
     0.0000   0.0000

          k = 0.4444-0.5000 0.1689 (   798 PWs)   bands (ev):

     1.6149   1.6150   2.5867   2.5867  10.1317  10.1317  11.0513  11.0513
    16.8626  16.8627

     occupation numbers 
     1.0000   1.0000   1.0000   1.0000   0.0000   0.0000   0.0000   0.0000
     0.0000   0.0000

          k = 0.4444-0.5000 0.2252 (   790 PWs)   bands (ev):

     1.8093   1.8093   2.7786   2.7787   9.2471   9.2471  10.1717  10.1717
    17.3992  17.3993

     occupation numbers 
     1.0000   1.0000   1.0000   1.0000   1.0000   1.0000   0.0000   0.0000
     0.0000   0.0000

          k = 0.4444-0.5000 0.2815 (   790 PWs)   bands (ev):

     2.0585   2.0586   3.0243   3.0244   8.3933   8.3933   9.3212   9.3212
    17.6748  17.6749

     occupation numbers 
     1.0000   1.0000   1.0000   1.0000   1.0000   1.0000   1.0006   1.0006
     0.0000   0.0000

          k = 0.4444-0.5000 0.3378 (   788 PWs)   bands (ev):

     2.3619   2.3620   3.3222   3.3223   7.5813   7.5813   8.5106   8.5106
    17.9567  17.9568

     occupation numbers 
     1.0000   1.0000   1.0000   1.0000   1.0000   1.0000   1.0000   1.0000
     0.0000   0.0000

          k = 0.4444-0.5000 0.3941 (   800 PWs)   bands (ev):

     2.7185   2.7186   3.6692   3.6693   6.8190   6.8190   7.7455   7.7456
    18.2755  18.2757

     occupation numbers 
     1.0000   1.0000   1.0000   1.0000   1.0000   1.0000   1.0000   1.0000
     0.0000   0.0000

          k = 0.4444-0.5000 0.4504 (   810 PWs)   bands (ev):

     3.1262   3.1263   4.0561   4.0562   6.1182   6.1182   7.0307   7.0308
    18.6353  18.6354

     occupation numbers 
     1.0000   1.0000   1.0000   1.0000   1.0000   1.0000   1.0000   1.0000
     0.0000   0.0000

          k = 0.4444-0.5000 0.5067 (   812 PWs)   bands (ev):

     3.5807   3.5808   4.4373   4.4374   5.5259   5.5259   6.3721   6.3721
    19.0331  19.0332

     occupation numbers 
     1.0000   1.0000   1.0000   1.0000   1.0000   1.0000   1.0000   1.0000
     0.0000   0.0000

          k = 0.4444-0.5000 0.5630 (   810 PWs)   bands (ev):

     4.0671   4.0671   4.4954   4.4956   5.3603   5.3603   5.7852   5.7852
    19.4539  19.4540

     occupation numbers 
     1.0000   1.0000   1.0000   1.0000   1.0000   1.0000   1.0000   1.0000
     0.0000   0.0000

          k =-0.5000-0.5000 0.0000 (   800 PWs)   bands (ev):

     1.8256   1.8257   1.8257   1.8257  12.6666  12.6667  12.6667  12.6667
    15.0118  15.0119

     occupation numbers 
     1.0000   1.0000   1.0000   1.0000   0.0000   0.0000   0.0000   0.0000
     0.0000   0.0000

          k =-0.5000-0.5000 0.0563 (   804 PWs)   bands (ev):

     1.8533   1.8534   1.8534   1.8535  12.2612  12.2613  12.2613  12.2613
    15.4559  15.4559

     occupation numbers 
     1.0000   1.0000   1.0000   1.0000   0.0000   0.0000   0.0000   0.0000
     0.0000   0.0000

          k =-0.5000-0.5000 0.1126 (   804 PWs)   bands (ev):

     1.9365   1.9366   1.9366   1.9366  11.4538  11.4538  11.4538  11.4538
    16.3771  16.3771

     occupation numbers 
     1.0000   1.0000   1.0000   1.0000   0.0000   0.0000   0.0000   0.0000
     0.0000   0.0000

          k =-0.5000-0.5000 0.1689 (   792 PWs)   bands (ev):

     2.0749   2.0750   2.0750   2.0751  10.5671  10.5671  10.5671  10.5671
    17.4450  17.4450

     occupation numbers 
     1.0000   1.0000   1.0000   1.0000   0.0000   0.0000   0.0000   0.0000
     0.0000   0.0000

          k =-0.5000-0.5000 0.2252 (   784 PWs)   bands (ev):

     2.2683   2.2683   2.2683   2.2684   9.6846   9.6846   9.6846   9.6846
    18.1952  18.1955

     occupation numbers 
     1.0000   1.0000   1.0000   1.0000   0.7882   0.7882   0.7882   0.7881
     0.0000   0.0000

          k =-0.5000-0.5000 0.2815 (   792 PWs)   bands (ev):

     2.5160   2.5160   2.5160   2.5161   8.8319   8.8319   8.8319   8.8319
    18.4096  18.4098

     occupation numbers 
     1.0000   1.0000   1.0000   1.0000   1.0000   1.0000   1.0000   1.0000
     0.0000   0.0000

          k =-0.5000-0.5000 0.3378 (   800 PWs)   bands (ev):

     2.8172   2.8172   2.8172   2.8173   8.0199   8.0199   8.0199   8.0199
    18.6703  18.6705

     occupation numbers 
     1.0000   1.0000   1.0000   1.0000   1.0000   1.0000   1.0000   1.0000
     0.0000   0.0000

          k =-0.5000-0.5000 0.3941 (   800 PWs)   bands (ev):

     3.1702   3.1702   3.1702   3.1703   7.2549   7.2549   7.2549   7.2549
    18.9764  18.9765

     occupation numbers 
     1.0000   1.0000   1.0000   1.0000   1.0000   1.0000   1.0000   1.0000
     0.0000   0.0000

          k =-0.5000-0.5000 0.4504 (   816 PWs)   bands (ev):

     3.5713   3.5713   3.5713   3.5714   6.5433   6.5433   6.5433   6.5433
    19.3241  19.3243

     occupation numbers 
     1.0000   1.0000   1.0000   1.0000   1.0000   1.0000   1.0000   1.0000
     0.0000   0.0000

          k =-0.5000-0.5000 0.5067 (   808 PWs)   bands (ev):

     4.0088   4.0089   4.0089   4.0090   5.8980   5.8980   5.8980   5.8981
    19.7019  19.7021

     occupation numbers 
     1.0000   1.0000   1.0000   1.0000   1.0000   1.0000   1.0000   1.0000
     0.0000   0.0000

          k =-0.5000-0.5000 0.5630 (   816 PWs)   bands (ev):

     4.4194   4.4195   4.4195   4.4196   5.3833   5.3833   5.3833   5.3834
    20.0490  20.0495

     occupation numbers 
     1.0000   1.0000   1.0000   1.0000   1.0000   1.0000   1.0000   1.0000
     0.0000   0.0000

     the Fermi energy is     9.7568 ev

!    total energy              =     -26.77237781 Ry
     Harris-Foulkes estimate   =     -26.77237785 Ry
     estimated scf accuracy    <       0.00000007 Ry

     The total energy is the sum of the following terms:

     one-electron contribution =      13.61684285 Ry
     hartree contribution      =       0.03903137 Ry
     xc contribution           =     -17.56400886 Ry
     ewald contribution        =     -22.86427302 Ry
     smearing contrib. (-TS)   =       0.00002985 Ry

     convergence has been achieved in   5 iterations
 
     init_run     :    131.74s CPU      5.75s WALL (       1 calls)
     electrons    :   1535.19s CPU     65.35s WALL (       1 calls)

     Called by init_run:
     wfcinit      :    131.53s CPU      5.60s WALL (       1 calls)
     wfcinit:atom :      2.59s CPU      0.11s WALL (     605 calls)
     wfcinit:wfcr :    118.10s CPU      5.03s WALL (     605 calls)
     potinit      :      0.05s CPU      0.01s WALL (       1 calls)

     Called by electrons:
     c_bands      :   1319.97s CPU     56.17s WALL (       6 calls)
     sum_band     :    213.38s CPU      9.09s WALL (       6 calls)
     v_of_rho     :      0.65s CPU      0.03s WALL (       6 calls)
     v_h          :      0.03s CPU      0.00s WALL (       6 calls)
     v_xc         :      0.62s CPU      0.03s WALL (       6 calls)
     newd         :      0.51s CPU      0.03s WALL (       6 calls)
     mix_rho      :      0.14s CPU      0.01s WALL (       6 calls)

     Called by c_bands:
     init_us_2    :     43.29s CPU      1.85s WALL (    7865 calls)
     cegterg      :   1203.94s CPU     51.19s WALL (    3630 calls)

     Called by sum_band:
     sum_band:bec :      1.24s CPU      0.05s WALL (    3630 calls)
     addusdens    :      0.60s CPU      0.03s WALL (       6 calls)

     Called by *egterg:
     h_psi        :   1153.37s CPU     49.06s WALL (   12689 calls)
     s_psi        :      9.26s CPU      0.39s WALL (   12689 calls)
     g_psi        :      5.04s CPU      0.22s WALL (    8454 calls)
     cdiaghg      :     61.09s CPU      2.65s WALL (   11479 calls)
     cegterg:over :     14.69s CPU      0.63s WALL (    8454 calls)
     cegterg:upda :     15.40s CPU      0.68s WALL (    8454 calls)
     cegterg:last :      6.30s CPU      0.29s WALL (    3633 calls)

     Called by h_psi:
     h_psi:pot    :   1143.05s CPU     48.60s WALL (   12689 calls)
     h_psi:calbec :     38.17s CPU      1.62s WALL (   12689 calls)
     vloc_psi     :   1080.21s CPU     45.96s WALL (   12689 calls)
     add_vuspsi   :     14.94s CPU      0.66s WALL (   12689 calls)

     General routines
     calbec       :     40.04s CPU      1.79s WALL (   16319 calls)
     fft          :      0.26s CPU      0.03s WALL (      80 calls)
     fftw         :   1024.57s CPU     43.69s WALL (  237834 calls)
 
     Parallel routines
 
     PWSCF        : 27m47.23s CPU     1m11.16s WALL

 
   This run was terminated on:  17: 4:11  24Jan2019            

=------------------------------------------------------------------------------=
   JOB DONE.
=------------------------------------------------------------------------------=
