
     Program PWSCF v.6.2 (svn rev. 14038) starts on 24Jan2019 at 17:28:19 

     This program is part of the open-source Quantum ESPRESSO suite
     for quantum simulation of materials; please cite
         "P. Giannozzi et al., J. Phys.:Condens. Matter 21 395502 (2009);
         "P. Giannozzi et al., J. Phys.:Condens. Matter 29 465901 (2017);
          URL http://www.quantum-espresso.org", 
     in publications or presentations arising from this work. More details at
     http://www.quantum-espresso.org/quote

     Parallel version (MPI), running on     1 processors

     MPI processes distributed on     1 nodes
     Reading input from ./AlfccSEPNEG0DOT07707716284564542.in
Warning: card &IONS ignored
Warning: card / ignored
Warning: card &CELL ignored
Warning: card / ignored

     Current dimensions of program PWSCF are:
     Max number of different atomic species (ntypx) = 10
     Max number of k-points (npk) =  40000
     Max angular momentum in pseudopotentials (lmaxx) =  3
     Message from routine iosys:
     minimal I/O required, wf_collect reset to FALSE

     Subspace diagonalization in iterative solution of the eigenvalue problem:
     a serial algorithm will be used

     Found symmetry operation: I + ( -0.5000 -0.5000  0.0000)
     This is a supercell, fractional translations are disabled
 
     G-vector sticks info
     --------------------
     sticks:   dense  smooth     PW     G-vecs:    dense   smooth      PW
     Sum         465     465    145                 6959     6959    1309
 


     bravais-lattice index     =            0
     lattice parameter (alat)  =       7.6325  a.u.
     unit-cell volume          =     410.3561 (a.u.)^3
     number of atoms/cell      =            4
     number of atomic types    =            1
     number of electrons       =        12.00
     number of Kohn-Sham states=           10
     kinetic-energy cutoff     =      25.0000  Ry
     charge density cutoff     =     100.0000  Ry
     convergence threshold     =      1.0E-07
     mixing beta               =       0.7000
     number of iterations used =            8  plain     mixing
     Exchange-correlation      = SLA  PW   PBE  PBE ( 1  4  3  4 0 0)

     celldm(1)=   7.632472  celldm(2)=   0.000000  celldm(3)=   0.000000
     celldm(4)=   0.000000  celldm(5)=   0.000000  celldm(6)=   0.000000

     crystal axes: (cart. coord. in units of alat)
               a(1) = (   1.000000   0.000000   0.000000 )  
               a(2) = (   0.000000   1.000000   0.000000 )  
               a(3) = (   0.000000   0.000000   0.922923 )  

     reciprocal axes: (cart. coord. in units 2 pi/alat)
               b(1) = (  1.000000  0.000000  0.000000 )  
               b(2) = (  0.000000  1.000000  0.000000 )  
               b(3) = (  0.000000  0.000000  1.083514 )  


     PseudoPot. # 1 for Al read from file:
     ./al_pbe_v1.uspp.F.UPF
     MD5 check sum: 0a6289f5291fc8f409219462bc851e1f
     Pseudo is Ultrasoft + core correction, Zval =  3.0
     Generated by new atomic code, or converted to UPF format
     Using radial grid of  893 points,  3 beta functions with: 
                l(1) =   0
                l(2) =   1
                l(3) =   2
     Q(r) pseudized with  8 coefficients,  rinner =    0.900   0.900   0.900
                                                       0.900   0.900

     atomic species   valence    mass     pseudopotential
        Al             3.00    26.98150     Al( 1.00)

     16 Sym. Ops., with inversion, found


                                    s                        frac. trans.

      isym =  1     identity                                     

 cryst.   s( 1) = (     1          0          0      )
                  (     0          1          0      )
                  (     0          0          1      )

 cart.    s( 1) = (  1.0000000  0.0000000  0.0000000 )
                  (  0.0000000  1.0000000  0.0000000 )
                  (  0.0000000  0.0000000  1.0000000 )


      isym =  2     180 deg rotation - cart. axis [0,0,1]        

 cryst.   s( 2) = (    -1          0          0      )
                  (     0         -1          0      )
                  (     0          0          1      )

 cart.    s( 2) = ( -1.0000000  0.0000000  0.0000000 )
                  (  0.0000000 -1.0000000  0.0000000 )
                  (  0.0000000  0.0000000  1.0000000 )


      isym =  3     180 deg rotation - cart. axis [0,1,0]        

 cryst.   s( 3) = (    -1          0          0      )
                  (     0          1          0      )
                  (     0          0         -1      )

 cart.    s( 3) = ( -1.0000000  0.0000000  0.0000000 )
                  (  0.0000000  1.0000000  0.0000000 )
                  (  0.0000000  0.0000000 -1.0000000 )


      isym =  4     180 deg rotation - cart. axis [1,0,0]        

 cryst.   s( 4) = (     1          0          0      )
                  (     0         -1          0      )
                  (     0          0         -1      )

 cart.    s( 4) = (  1.0000000  0.0000000  0.0000000 )
                  (  0.0000000 -1.0000000  0.0000000 )
                  (  0.0000000  0.0000000 -1.0000000 )


      isym =  5     180 deg rotation - cart. axis [1,1,0]        

 cryst.   s( 5) = (     0          1          0      )
                  (     1          0          0      )
                  (     0          0         -1      )

 cart.    s( 5) = (  0.0000000  1.0000000  0.0000000 )
                  (  1.0000000  0.0000000  0.0000000 )
                  (  0.0000000  0.0000000 -1.0000000 )


      isym =  6     180 deg rotation - cart. axis [1,-1,0]       

 cryst.   s( 6) = (     0         -1          0      )
                  (    -1          0          0      )
                  (     0          0         -1      )

 cart.    s( 6) = (  0.0000000 -1.0000000  0.0000000 )
                  ( -1.0000000  0.0000000  0.0000000 )
                  (  0.0000000  0.0000000 -1.0000000 )


      isym =  7      90 deg rotation - cart. axis [0,0,-1]       

 cryst.   s( 7) = (     0         -1          0      )
                  (     1          0          0      )
                  (     0          0          1      )

 cart.    s( 7) = (  0.0000000  1.0000000  0.0000000 )
                  ( -1.0000000  0.0000000  0.0000000 )
                  (  0.0000000  0.0000000  1.0000000 )


      isym =  8      90 deg rotation - cart. axis [0,0,1]        

 cryst.   s( 8) = (     0          1          0      )
                  (    -1          0          0      )
                  (     0          0          1      )

 cart.    s( 8) = (  0.0000000 -1.0000000  0.0000000 )
                  (  1.0000000  0.0000000  0.0000000 )
                  (  0.0000000  0.0000000  1.0000000 )


      isym =  9     inversion                                    

 cryst.   s( 9) = (    -1          0          0      )
                  (     0         -1          0      )
                  (     0          0         -1      )

 cart.    s( 9) = ( -1.0000000  0.0000000  0.0000000 )
                  (  0.0000000 -1.0000000  0.0000000 )
                  (  0.0000000  0.0000000 -1.0000000 )


      isym = 10     inv. 180 deg rotation - cart. axis [0,0,1]   

 cryst.   s(10) = (     1          0          0      )
                  (     0          1          0      )
                  (     0          0         -1      )

 cart.    s(10) = (  1.0000000  0.0000000  0.0000000 )
                  (  0.0000000  1.0000000  0.0000000 )
                  (  0.0000000  0.0000000 -1.0000000 )


      isym = 11     inv. 180 deg rotation - cart. axis [0,1,0]   

 cryst.   s(11) = (     1          0          0      )
                  (     0         -1          0      )
                  (     0          0          1      )

 cart.    s(11) = (  1.0000000  0.0000000  0.0000000 )
                  (  0.0000000 -1.0000000  0.0000000 )
                  (  0.0000000  0.0000000  1.0000000 )


      isym = 12     inv. 180 deg rotation - cart. axis [1,0,0]   

 cryst.   s(12) = (    -1          0          0      )
                  (     0          1          0      )
                  (     0          0          1      )

 cart.    s(12) = ( -1.0000000  0.0000000  0.0000000 )
                  (  0.0000000  1.0000000  0.0000000 )
                  (  0.0000000  0.0000000  1.0000000 )


      isym = 13     inv. 180 deg rotation - cart. axis [1,1,0]   

 cryst.   s(13) = (     0         -1          0      )
                  (    -1          0          0      )
                  (     0          0          1      )

 cart.    s(13) = (  0.0000000 -1.0000000  0.0000000 )
                  ( -1.0000000  0.0000000  0.0000000 )
                  (  0.0000000  0.0000000  1.0000000 )


      isym = 14     inv. 180 deg rotation - cart. axis [1,-1,0]  

 cryst.   s(14) = (     0          1          0      )
                  (     1          0          0      )
                  (     0          0          1      )

 cart.    s(14) = (  0.0000000  1.0000000  0.0000000 )
                  (  1.0000000  0.0000000  0.0000000 )
                  (  0.0000000  0.0000000  1.0000000 )


      isym = 15     inv.  90 deg rotation - cart. axis [0,0,-1]  

 cryst.   s(15) = (     0          1          0      )
                  (    -1          0          0      )
                  (     0          0         -1      )

 cart.    s(15) = (  0.0000000 -1.0000000  0.0000000 )
                  (  1.0000000  0.0000000  0.0000000 )
                  (  0.0000000  0.0000000 -1.0000000 )


      isym = 16     inv.  90 deg rotation - cart. axis [0,0,1]   

 cryst.   s(16) = (     0         -1          0      )
                  (     1          0          0      )
                  (     0          0         -1      )

 cart.    s(16) = (  0.0000000  1.0000000  0.0000000 )
                  ( -1.0000000  0.0000000  0.0000000 )
                  (  0.0000000  0.0000000 -1.0000000 )


   Cartesian axes

     site n.     atom                  positions (alat units)
         1           Al  tau(   1) = (   0.0000000   0.0000000   0.0000000  )
         2           Al  tau(   2) = (   0.5000000   0.5000000   0.0000000  )
         3           Al  tau(   3) = (   0.5000000   0.0000000   0.4614613  )
         4           Al  tau(   4) = (   0.0000000   0.5000000   0.4614613  )

   Crystallographic axes

     site n.     atom                  positions (cryst. coord.)
         1           Al  tau(   1) = (  0.0000000  0.0000000  0.0000000  )
         2           Al  tau(   2) = (  0.5000000  0.5000000  0.0000000  )
         3           Al  tau(   3) = (  0.5000000  0.0000000  0.5000000  )
         4           Al  tau(   4) = (  0.0000000  0.5000000  0.5000000  )

     number of k points=   550  Marzari-Vanderbilt smearing, width (Ry)=  0.0100
                       cart. coord. in units 2pi/alat
        k(    1) = (   0.0000000   0.0000000   0.0000000), wk =   0.0003249
        k(    2) = (   0.0000000   0.0000000   0.0570271), wk =   0.0006498
        k(    3) = (   0.0000000   0.0000000   0.1140541), wk =   0.0006498
        k(    4) = (   0.0000000   0.0000000   0.1710812), wk =   0.0006498
        k(    5) = (   0.0000000   0.0000000   0.2281083), wk =   0.0006498
        k(    6) = (   0.0000000   0.0000000   0.2851354), wk =   0.0006498
        k(    7) = (   0.0000000   0.0000000   0.3421624), wk =   0.0006498
        k(    8) = (   0.0000000   0.0000000   0.3991895), wk =   0.0006498
        k(    9) = (   0.0000000   0.0000000   0.4562166), wk =   0.0006498
        k(   10) = (   0.0000000   0.0000000   0.5132437), wk =   0.0006498
        k(   11) = (   0.0000000   0.0555556   0.0000000), wk =   0.0012995
        k(   12) = (   0.0000000   0.0555556   0.0570271), wk =   0.0025991
        k(   13) = (   0.0000000   0.0555556   0.1140541), wk =   0.0025991
        k(   14) = (   0.0000000   0.0555556   0.1710812), wk =   0.0025991
        k(   15) = (   0.0000000   0.0555556   0.2281083), wk =   0.0025991
        k(   16) = (   0.0000000   0.0555556   0.2851354), wk =   0.0025991
        k(   17) = (   0.0000000   0.0555556   0.3421624), wk =   0.0025991
        k(   18) = (   0.0000000   0.0555556   0.3991895), wk =   0.0025991
        k(   19) = (   0.0000000   0.0555556   0.4562166), wk =   0.0025991
        k(   20) = (   0.0000000   0.0555556   0.5132437), wk =   0.0025991
        k(   21) = (   0.0000000   0.1111111   0.0000000), wk =   0.0012995
        k(   22) = (   0.0000000   0.1111111   0.0570271), wk =   0.0025991
        k(   23) = (   0.0000000   0.1111111   0.1140541), wk =   0.0025991
        k(   24) = (   0.0000000   0.1111111   0.1710812), wk =   0.0025991
        k(   25) = (   0.0000000   0.1111111   0.2281083), wk =   0.0025991
        k(   26) = (   0.0000000   0.1111111   0.2851354), wk =   0.0025991
        k(   27) = (   0.0000000   0.1111111   0.3421624), wk =   0.0025991
        k(   28) = (   0.0000000   0.1111111   0.3991895), wk =   0.0025991
        k(   29) = (   0.0000000   0.1111111   0.4562166), wk =   0.0025991
        k(   30) = (   0.0000000   0.1111111   0.5132437), wk =   0.0025991
        k(   31) = (   0.0000000   0.1666667   0.0000000), wk =   0.0012995
        k(   32) = (   0.0000000   0.1666667   0.0570271), wk =   0.0025991
        k(   33) = (   0.0000000   0.1666667   0.1140541), wk =   0.0025991
        k(   34) = (   0.0000000   0.1666667   0.1710812), wk =   0.0025991
        k(   35) = (   0.0000000   0.1666667   0.2281083), wk =   0.0025991
        k(   36) = (   0.0000000   0.1666667   0.2851354), wk =   0.0025991
        k(   37) = (   0.0000000   0.1666667   0.3421624), wk =   0.0025991
        k(   38) = (   0.0000000   0.1666667   0.3991895), wk =   0.0025991
        k(   39) = (   0.0000000   0.1666667   0.4562166), wk =   0.0025991
        k(   40) = (   0.0000000   0.1666667   0.5132437), wk =   0.0025991
        k(   41) = (   0.0000000   0.2222222   0.0000000), wk =   0.0012995
        k(   42) = (   0.0000000   0.2222222   0.0570271), wk =   0.0025991
        k(   43) = (   0.0000000   0.2222222   0.1140541), wk =   0.0025991
        k(   44) = (   0.0000000   0.2222222   0.1710812), wk =   0.0025991
        k(   45) = (   0.0000000   0.2222222   0.2281083), wk =   0.0025991
        k(   46) = (   0.0000000   0.2222222   0.2851354), wk =   0.0025991
        k(   47) = (   0.0000000   0.2222222   0.3421624), wk =   0.0025991
        k(   48) = (   0.0000000   0.2222222   0.3991895), wk =   0.0025991
        k(   49) = (   0.0000000   0.2222222   0.4562166), wk =   0.0025991
        k(   50) = (   0.0000000   0.2222222   0.5132437), wk =   0.0025991
        k(   51) = (   0.0000000   0.2777778   0.0000000), wk =   0.0012995
        k(   52) = (   0.0000000   0.2777778   0.0570271), wk =   0.0025991
        k(   53) = (   0.0000000   0.2777778   0.1140541), wk =   0.0025991
        k(   54) = (   0.0000000   0.2777778   0.1710812), wk =   0.0025991
        k(   55) = (   0.0000000   0.2777778   0.2281083), wk =   0.0025991
        k(   56) = (   0.0000000   0.2777778   0.2851354), wk =   0.0025991
        k(   57) = (   0.0000000   0.2777778   0.3421624), wk =   0.0025991
        k(   58) = (   0.0000000   0.2777778   0.3991895), wk =   0.0025991
        k(   59) = (   0.0000000   0.2777778   0.4562166), wk =   0.0025991
        k(   60) = (   0.0000000   0.2777778   0.5132437), wk =   0.0025991
        k(   61) = (   0.0000000   0.3333333   0.0000000), wk =   0.0012995
        k(   62) = (   0.0000000   0.3333333   0.0570271), wk =   0.0025991
        k(   63) = (   0.0000000   0.3333333   0.1140541), wk =   0.0025991
        k(   64) = (   0.0000000   0.3333333   0.1710812), wk =   0.0025991
        k(   65) = (   0.0000000   0.3333333   0.2281083), wk =   0.0025991
        k(   66) = (   0.0000000   0.3333333   0.2851354), wk =   0.0025991
        k(   67) = (   0.0000000   0.3333333   0.3421624), wk =   0.0025991
        k(   68) = (   0.0000000   0.3333333   0.3991895), wk =   0.0025991
        k(   69) = (   0.0000000   0.3333333   0.4562166), wk =   0.0025991
        k(   70) = (   0.0000000   0.3333333   0.5132437), wk =   0.0025991
        k(   71) = (   0.0000000   0.3888889   0.0000000), wk =   0.0012995
        k(   72) = (   0.0000000   0.3888889   0.0570271), wk =   0.0025991
        k(   73) = (   0.0000000   0.3888889   0.1140541), wk =   0.0025991
        k(   74) = (   0.0000000   0.3888889   0.1710812), wk =   0.0025991
        k(   75) = (   0.0000000   0.3888889   0.2281083), wk =   0.0025991
        k(   76) = (   0.0000000   0.3888889   0.2851354), wk =   0.0025991
        k(   77) = (   0.0000000   0.3888889   0.3421624), wk =   0.0025991
        k(   78) = (   0.0000000   0.3888889   0.3991895), wk =   0.0025991
        k(   79) = (   0.0000000   0.3888889   0.4562166), wk =   0.0025991
        k(   80) = (   0.0000000   0.3888889   0.5132437), wk =   0.0025991
        k(   81) = (   0.0000000   0.4444444   0.0000000), wk =   0.0012995
        k(   82) = (   0.0000000   0.4444444   0.0570271), wk =   0.0025991
        k(   83) = (   0.0000000   0.4444444   0.1140541), wk =   0.0025991
        k(   84) = (   0.0000000   0.4444444   0.1710812), wk =   0.0025991
        k(   85) = (   0.0000000   0.4444444   0.2281083), wk =   0.0025991
        k(   86) = (   0.0000000   0.4444444   0.2851354), wk =   0.0025991
        k(   87) = (   0.0000000   0.4444444   0.3421624), wk =   0.0025991
        k(   88) = (   0.0000000   0.4444444   0.3991895), wk =   0.0025991
        k(   89) = (   0.0000000   0.4444444   0.4562166), wk =   0.0025991
        k(   90) = (   0.0000000   0.4444444   0.5132437), wk =   0.0025991
        k(   91) = (   0.0000000  -0.5000000   0.0000000), wk =   0.0006498
        k(   92) = (   0.0000000  -0.5000000   0.0570271), wk =   0.0012995
        k(   93) = (   0.0000000  -0.5000000   0.1140541), wk =   0.0012995
        k(   94) = (   0.0000000  -0.5000000   0.1710812), wk =   0.0012995
        k(   95) = (   0.0000000  -0.5000000   0.2281083), wk =   0.0012995
        k(   96) = (   0.0000000  -0.5000000   0.2851354), wk =   0.0012995
        k(   97) = (   0.0000000  -0.5000000   0.3421624), wk =   0.0012995
        k(   98) = (   0.0000000  -0.5000000   0.3991895), wk =   0.0012995
        k(   99) = (   0.0000000  -0.5000000   0.4562166), wk =   0.0012995
        k(  100) = (   0.0000000  -0.5000000   0.5132437), wk =   0.0012995
        k(  101) = (   0.0555556   0.0555556   0.0000000), wk =   0.0012995
        k(  102) = (   0.0555556   0.0555556   0.0570271), wk =   0.0025991
        k(  103) = (   0.0555556   0.0555556   0.1140541), wk =   0.0025991
        k(  104) = (   0.0555556   0.0555556   0.1710812), wk =   0.0025991
        k(  105) = (   0.0555556   0.0555556   0.2281083), wk =   0.0025991
        k(  106) = (   0.0555556   0.0555556   0.2851354), wk =   0.0025991
        k(  107) = (   0.0555556   0.0555556   0.3421624), wk =   0.0025991
        k(  108) = (   0.0555556   0.0555556   0.3991895), wk =   0.0025991
        k(  109) = (   0.0555556   0.0555556   0.4562166), wk =   0.0025991
        k(  110) = (   0.0555556   0.0555556   0.5132437), wk =   0.0025991
        k(  111) = (   0.0555556   0.1111111   0.0000000), wk =   0.0025991
        k(  112) = (   0.0555556   0.1111111   0.0570271), wk =   0.0051982
        k(  113) = (   0.0555556   0.1111111   0.1140541), wk =   0.0051982
        k(  114) = (   0.0555556   0.1111111   0.1710812), wk =   0.0051982
        k(  115) = (   0.0555556   0.1111111   0.2281083), wk =   0.0051982
        k(  116) = (   0.0555556   0.1111111   0.2851354), wk =   0.0051982
        k(  117) = (   0.0555556   0.1111111   0.3421624), wk =   0.0051982
        k(  118) = (   0.0555556   0.1111111   0.3991895), wk =   0.0051982
        k(  119) = (   0.0555556   0.1111111   0.4562166), wk =   0.0051982
        k(  120) = (   0.0555556   0.1111111   0.5132437), wk =   0.0051982
        k(  121) = (   0.0555556   0.1666667   0.0000000), wk =   0.0025991
        k(  122) = (   0.0555556   0.1666667   0.0570271), wk =   0.0051982
        k(  123) = (   0.0555556   0.1666667   0.1140541), wk =   0.0051982
        k(  124) = (   0.0555556   0.1666667   0.1710812), wk =   0.0051982
        k(  125) = (   0.0555556   0.1666667   0.2281083), wk =   0.0051982
        k(  126) = (   0.0555556   0.1666667   0.2851354), wk =   0.0051982
        k(  127) = (   0.0555556   0.1666667   0.3421624), wk =   0.0051982
        k(  128) = (   0.0555556   0.1666667   0.3991895), wk =   0.0051982
        k(  129) = (   0.0555556   0.1666667   0.4562166), wk =   0.0051982
        k(  130) = (   0.0555556   0.1666667   0.5132437), wk =   0.0051982
        k(  131) = (   0.0555556   0.2222222   0.0000000), wk =   0.0025991
        k(  132) = (   0.0555556   0.2222222   0.0570271), wk =   0.0051982
        k(  133) = (   0.0555556   0.2222222   0.1140541), wk =   0.0051982
        k(  134) = (   0.0555556   0.2222222   0.1710812), wk =   0.0051982
        k(  135) = (   0.0555556   0.2222222   0.2281083), wk =   0.0051982
        k(  136) = (   0.0555556   0.2222222   0.2851354), wk =   0.0051982
        k(  137) = (   0.0555556   0.2222222   0.3421624), wk =   0.0051982
        k(  138) = (   0.0555556   0.2222222   0.3991895), wk =   0.0051982
        k(  139) = (   0.0555556   0.2222222   0.4562166), wk =   0.0051982
        k(  140) = (   0.0555556   0.2222222   0.5132437), wk =   0.0051982
        k(  141) = (   0.0555556   0.2777778   0.0000000), wk =   0.0025991
        k(  142) = (   0.0555556   0.2777778   0.0570271), wk =   0.0051982
        k(  143) = (   0.0555556   0.2777778   0.1140541), wk =   0.0051982
        k(  144) = (   0.0555556   0.2777778   0.1710812), wk =   0.0051982
        k(  145) = (   0.0555556   0.2777778   0.2281083), wk =   0.0051982
        k(  146) = (   0.0555556   0.2777778   0.2851354), wk =   0.0051982
        k(  147) = (   0.0555556   0.2777778   0.3421624), wk =   0.0051982
        k(  148) = (   0.0555556   0.2777778   0.3991895), wk =   0.0051982
        k(  149) = (   0.0555556   0.2777778   0.4562166), wk =   0.0051982
        k(  150) = (   0.0555556   0.2777778   0.5132437), wk =   0.0051982
        k(  151) = (   0.0555556   0.3333333   0.0000000), wk =   0.0025991
        k(  152) = (   0.0555556   0.3333333   0.0570271), wk =   0.0051982
        k(  153) = (   0.0555556   0.3333333   0.1140541), wk =   0.0051982
        k(  154) = (   0.0555556   0.3333333   0.1710812), wk =   0.0051982
        k(  155) = (   0.0555556   0.3333333   0.2281083), wk =   0.0051982
        k(  156) = (   0.0555556   0.3333333   0.2851354), wk =   0.0051982
        k(  157) = (   0.0555556   0.3333333   0.3421624), wk =   0.0051982
        k(  158) = (   0.0555556   0.3333333   0.3991895), wk =   0.0051982
        k(  159) = (   0.0555556   0.3333333   0.4562166), wk =   0.0051982
        k(  160) = (   0.0555556   0.3333333   0.5132437), wk =   0.0051982
        k(  161) = (   0.0555556   0.3888889   0.0000000), wk =   0.0025991
        k(  162) = (   0.0555556   0.3888889   0.0570271), wk =   0.0051982
        k(  163) = (   0.0555556   0.3888889   0.1140541), wk =   0.0051982
        k(  164) = (   0.0555556   0.3888889   0.1710812), wk =   0.0051982
        k(  165) = (   0.0555556   0.3888889   0.2281083), wk =   0.0051982
        k(  166) = (   0.0555556   0.3888889   0.2851354), wk =   0.0051982
        k(  167) = (   0.0555556   0.3888889   0.3421624), wk =   0.0051982
        k(  168) = (   0.0555556   0.3888889   0.3991895), wk =   0.0051982
        k(  169) = (   0.0555556   0.3888889   0.4562166), wk =   0.0051982
        k(  170) = (   0.0555556   0.3888889   0.5132437), wk =   0.0051982
        k(  171) = (   0.0555556   0.4444444   0.0000000), wk =   0.0025991
        k(  172) = (   0.0555556   0.4444444   0.0570271), wk =   0.0051982
        k(  173) = (   0.0555556   0.4444444   0.1140541), wk =   0.0051982
        k(  174) = (   0.0555556   0.4444444   0.1710812), wk =   0.0051982
        k(  175) = (   0.0555556   0.4444444   0.2281083), wk =   0.0051982
        k(  176) = (   0.0555556   0.4444444   0.2851354), wk =   0.0051982
        k(  177) = (   0.0555556   0.4444444   0.3421624), wk =   0.0051982
        k(  178) = (   0.0555556   0.4444444   0.3991895), wk =   0.0051982
        k(  179) = (   0.0555556   0.4444444   0.4562166), wk =   0.0051982
        k(  180) = (   0.0555556   0.4444444   0.5132437), wk =   0.0051982
        k(  181) = (   0.0555556  -0.5000000   0.0000000), wk =   0.0012995
        k(  182) = (   0.0555556  -0.5000000   0.0570271), wk =   0.0025991
        k(  183) = (   0.0555556  -0.5000000   0.1140541), wk =   0.0025991
        k(  184) = (   0.0555556  -0.5000000   0.1710812), wk =   0.0025991
        k(  185) = (   0.0555556  -0.5000000   0.2281083), wk =   0.0025991
        k(  186) = (   0.0555556  -0.5000000   0.2851354), wk =   0.0025991
        k(  187) = (   0.0555556  -0.5000000   0.3421624), wk =   0.0025991
        k(  188) = (   0.0555556  -0.5000000   0.3991895), wk =   0.0025991
        k(  189) = (   0.0555556  -0.5000000   0.4562166), wk =   0.0025991
        k(  190) = (   0.0555556  -0.5000000   0.5132437), wk =   0.0025991
        k(  191) = (   0.1111111   0.1111111   0.0000000), wk =   0.0012995
        k(  192) = (   0.1111111   0.1111111   0.0570271), wk =   0.0025991
        k(  193) = (   0.1111111   0.1111111   0.1140541), wk =   0.0025991
        k(  194) = (   0.1111111   0.1111111   0.1710812), wk =   0.0025991
        k(  195) = (   0.1111111   0.1111111   0.2281083), wk =   0.0025991
        k(  196) = (   0.1111111   0.1111111   0.2851354), wk =   0.0025991
        k(  197) = (   0.1111111   0.1111111   0.3421624), wk =   0.0025991
        k(  198) = (   0.1111111   0.1111111   0.3991895), wk =   0.0025991
        k(  199) = (   0.1111111   0.1111111   0.4562166), wk =   0.0025991
        k(  200) = (   0.1111111   0.1111111   0.5132437), wk =   0.0025991
        k(  201) = (   0.1111111   0.1666667   0.0000000), wk =   0.0025991
        k(  202) = (   0.1111111   0.1666667   0.0570271), wk =   0.0051982
        k(  203) = (   0.1111111   0.1666667   0.1140541), wk =   0.0051982
        k(  204) = (   0.1111111   0.1666667   0.1710812), wk =   0.0051982
        k(  205) = (   0.1111111   0.1666667   0.2281083), wk =   0.0051982
        k(  206) = (   0.1111111   0.1666667   0.2851354), wk =   0.0051982
        k(  207) = (   0.1111111   0.1666667   0.3421624), wk =   0.0051982
        k(  208) = (   0.1111111   0.1666667   0.3991895), wk =   0.0051982
        k(  209) = (   0.1111111   0.1666667   0.4562166), wk =   0.0051982
        k(  210) = (   0.1111111   0.1666667   0.5132437), wk =   0.0051982
        k(  211) = (   0.1111111   0.2222222   0.0000000), wk =   0.0025991
        k(  212) = (   0.1111111   0.2222222   0.0570271), wk =   0.0051982
        k(  213) = (   0.1111111   0.2222222   0.1140541), wk =   0.0051982
        k(  214) = (   0.1111111   0.2222222   0.1710812), wk =   0.0051982
        k(  215) = (   0.1111111   0.2222222   0.2281083), wk =   0.0051982
        k(  216) = (   0.1111111   0.2222222   0.2851354), wk =   0.0051982
        k(  217) = (   0.1111111   0.2222222   0.3421624), wk =   0.0051982
        k(  218) = (   0.1111111   0.2222222   0.3991895), wk =   0.0051982
        k(  219) = (   0.1111111   0.2222222   0.4562166), wk =   0.0051982
        k(  220) = (   0.1111111   0.2222222   0.5132437), wk =   0.0051982
        k(  221) = (   0.1111111   0.2777778   0.0000000), wk =   0.0025991
        k(  222) = (   0.1111111   0.2777778   0.0570271), wk =   0.0051982
        k(  223) = (   0.1111111   0.2777778   0.1140541), wk =   0.0051982
        k(  224) = (   0.1111111   0.2777778   0.1710812), wk =   0.0051982
        k(  225) = (   0.1111111   0.2777778   0.2281083), wk =   0.0051982
        k(  226) = (   0.1111111   0.2777778   0.2851354), wk =   0.0051982
        k(  227) = (   0.1111111   0.2777778   0.3421624), wk =   0.0051982
        k(  228) = (   0.1111111   0.2777778   0.3991895), wk =   0.0051982
        k(  229) = (   0.1111111   0.2777778   0.4562166), wk =   0.0051982
        k(  230) = (   0.1111111   0.2777778   0.5132437), wk =   0.0051982
        k(  231) = (   0.1111111   0.3333333   0.0000000), wk =   0.0025991
        k(  232) = (   0.1111111   0.3333333   0.0570271), wk =   0.0051982
        k(  233) = (   0.1111111   0.3333333   0.1140541), wk =   0.0051982
        k(  234) = (   0.1111111   0.3333333   0.1710812), wk =   0.0051982
        k(  235) = (   0.1111111   0.3333333   0.2281083), wk =   0.0051982
        k(  236) = (   0.1111111   0.3333333   0.2851354), wk =   0.0051982
        k(  237) = (   0.1111111   0.3333333   0.3421624), wk =   0.0051982
        k(  238) = (   0.1111111   0.3333333   0.3991895), wk =   0.0051982
        k(  239) = (   0.1111111   0.3333333   0.4562166), wk =   0.0051982
        k(  240) = (   0.1111111   0.3333333   0.5132437), wk =   0.0051982
        k(  241) = (   0.1111111   0.3888889   0.0000000), wk =   0.0025991
        k(  242) = (   0.1111111   0.3888889   0.0570271), wk =   0.0051982
        k(  243) = (   0.1111111   0.3888889   0.1140541), wk =   0.0051982
        k(  244) = (   0.1111111   0.3888889   0.1710812), wk =   0.0051982
        k(  245) = (   0.1111111   0.3888889   0.2281083), wk =   0.0051982
        k(  246) = (   0.1111111   0.3888889   0.2851354), wk =   0.0051982
        k(  247) = (   0.1111111   0.3888889   0.3421624), wk =   0.0051982
        k(  248) = (   0.1111111   0.3888889   0.3991895), wk =   0.0051982
        k(  249) = (   0.1111111   0.3888889   0.4562166), wk =   0.0051982
        k(  250) = (   0.1111111   0.3888889   0.5132437), wk =   0.0051982
        k(  251) = (   0.1111111   0.4444444   0.0000000), wk =   0.0025991
        k(  252) = (   0.1111111   0.4444444   0.0570271), wk =   0.0051982
        k(  253) = (   0.1111111   0.4444444   0.1140541), wk =   0.0051982
        k(  254) = (   0.1111111   0.4444444   0.1710812), wk =   0.0051982
        k(  255) = (   0.1111111   0.4444444   0.2281083), wk =   0.0051982
        k(  256) = (   0.1111111   0.4444444   0.2851354), wk =   0.0051982
        k(  257) = (   0.1111111   0.4444444   0.3421624), wk =   0.0051982
        k(  258) = (   0.1111111   0.4444444   0.3991895), wk =   0.0051982
        k(  259) = (   0.1111111   0.4444444   0.4562166), wk =   0.0051982
        k(  260) = (   0.1111111   0.4444444   0.5132437), wk =   0.0051982
        k(  261) = (   0.1111111  -0.5000000   0.0000000), wk =   0.0012995
        k(  262) = (   0.1111111  -0.5000000   0.0570271), wk =   0.0025991
        k(  263) = (   0.1111111  -0.5000000   0.1140541), wk =   0.0025991
        k(  264) = (   0.1111111  -0.5000000   0.1710812), wk =   0.0025991
        k(  265) = (   0.1111111  -0.5000000   0.2281083), wk =   0.0025991
        k(  266) = (   0.1111111  -0.5000000   0.2851354), wk =   0.0025991
        k(  267) = (   0.1111111  -0.5000000   0.3421624), wk =   0.0025991
        k(  268) = (   0.1111111  -0.5000000   0.3991895), wk =   0.0025991
        k(  269) = (   0.1111111  -0.5000000   0.4562166), wk =   0.0025991
        k(  270) = (   0.1111111  -0.5000000   0.5132437), wk =   0.0025991
        k(  271) = (   0.1666667   0.1666667   0.0000000), wk =   0.0012995
        k(  272) = (   0.1666667   0.1666667   0.0570271), wk =   0.0025991
        k(  273) = (   0.1666667   0.1666667   0.1140541), wk =   0.0025991
        k(  274) = (   0.1666667   0.1666667   0.1710812), wk =   0.0025991
        k(  275) = (   0.1666667   0.1666667   0.2281083), wk =   0.0025991
        k(  276) = (   0.1666667   0.1666667   0.2851354), wk =   0.0025991
        k(  277) = (   0.1666667   0.1666667   0.3421624), wk =   0.0025991
        k(  278) = (   0.1666667   0.1666667   0.3991895), wk =   0.0025991
        k(  279) = (   0.1666667   0.1666667   0.4562166), wk =   0.0025991
        k(  280) = (   0.1666667   0.1666667   0.5132437), wk =   0.0025991
        k(  281) = (   0.1666667   0.2222222   0.0000000), wk =   0.0025991
        k(  282) = (   0.1666667   0.2222222   0.0570271), wk =   0.0051982
        k(  283) = (   0.1666667   0.2222222   0.1140541), wk =   0.0051982
        k(  284) = (   0.1666667   0.2222222   0.1710812), wk =   0.0051982
        k(  285) = (   0.1666667   0.2222222   0.2281083), wk =   0.0051982
        k(  286) = (   0.1666667   0.2222222   0.2851354), wk =   0.0051982
        k(  287) = (   0.1666667   0.2222222   0.3421624), wk =   0.0051982
        k(  288) = (   0.1666667   0.2222222   0.3991895), wk =   0.0051982
        k(  289) = (   0.1666667   0.2222222   0.4562166), wk =   0.0051982
        k(  290) = (   0.1666667   0.2222222   0.5132437), wk =   0.0051982
        k(  291) = (   0.1666667   0.2777778   0.0000000), wk =   0.0025991
        k(  292) = (   0.1666667   0.2777778   0.0570271), wk =   0.0051982
        k(  293) = (   0.1666667   0.2777778   0.1140541), wk =   0.0051982
        k(  294) = (   0.1666667   0.2777778   0.1710812), wk =   0.0051982
        k(  295) = (   0.1666667   0.2777778   0.2281083), wk =   0.0051982
        k(  296) = (   0.1666667   0.2777778   0.2851354), wk =   0.0051982
        k(  297) = (   0.1666667   0.2777778   0.3421624), wk =   0.0051982
        k(  298) = (   0.1666667   0.2777778   0.3991895), wk =   0.0051982
        k(  299) = (   0.1666667   0.2777778   0.4562166), wk =   0.0051982
        k(  300) = (   0.1666667   0.2777778   0.5132437), wk =   0.0051982
        k(  301) = (   0.1666667   0.3333333   0.0000000), wk =   0.0025991
        k(  302) = (   0.1666667   0.3333333   0.0570271), wk =   0.0051982
        k(  303) = (   0.1666667   0.3333333   0.1140541), wk =   0.0051982
        k(  304) = (   0.1666667   0.3333333   0.1710812), wk =   0.0051982
        k(  305) = (   0.1666667   0.3333333   0.2281083), wk =   0.0051982
        k(  306) = (   0.1666667   0.3333333   0.2851354), wk =   0.0051982
        k(  307) = (   0.1666667   0.3333333   0.3421624), wk =   0.0051982
        k(  308) = (   0.1666667   0.3333333   0.3991895), wk =   0.0051982
        k(  309) = (   0.1666667   0.3333333   0.4562166), wk =   0.0051982
        k(  310) = (   0.1666667   0.3333333   0.5132437), wk =   0.0051982
        k(  311) = (   0.1666667   0.3888889   0.0000000), wk =   0.0025991
        k(  312) = (   0.1666667   0.3888889   0.0570271), wk =   0.0051982
        k(  313) = (   0.1666667   0.3888889   0.1140541), wk =   0.0051982
        k(  314) = (   0.1666667   0.3888889   0.1710812), wk =   0.0051982
        k(  315) = (   0.1666667   0.3888889   0.2281083), wk =   0.0051982
        k(  316) = (   0.1666667   0.3888889   0.2851354), wk =   0.0051982
        k(  317) = (   0.1666667   0.3888889   0.3421624), wk =   0.0051982
        k(  318) = (   0.1666667   0.3888889   0.3991895), wk =   0.0051982
        k(  319) = (   0.1666667   0.3888889   0.4562166), wk =   0.0051982
        k(  320) = (   0.1666667   0.3888889   0.5132437), wk =   0.0051982
        k(  321) = (   0.1666667   0.4444444   0.0000000), wk =   0.0025991
        k(  322) = (   0.1666667   0.4444444   0.0570271), wk =   0.0051982
        k(  323) = (   0.1666667   0.4444444   0.1140541), wk =   0.0051982
        k(  324) = (   0.1666667   0.4444444   0.1710812), wk =   0.0051982
        k(  325) = (   0.1666667   0.4444444   0.2281083), wk =   0.0051982
        k(  326) = (   0.1666667   0.4444444   0.2851354), wk =   0.0051982
        k(  327) = (   0.1666667   0.4444444   0.3421624), wk =   0.0051982
        k(  328) = (   0.1666667   0.4444444   0.3991895), wk =   0.0051982
        k(  329) = (   0.1666667   0.4444444   0.4562166), wk =   0.0051982
        k(  330) = (   0.1666667   0.4444444   0.5132437), wk =   0.0051982
        k(  331) = (   0.1666667  -0.5000000   0.0000000), wk =   0.0012995
        k(  332) = (   0.1666667  -0.5000000   0.0570271), wk =   0.0025991
        k(  333) = (   0.1666667  -0.5000000   0.1140541), wk =   0.0025991
        k(  334) = (   0.1666667  -0.5000000   0.1710812), wk =   0.0025991
        k(  335) = (   0.1666667  -0.5000000   0.2281083), wk =   0.0025991
        k(  336) = (   0.1666667  -0.5000000   0.2851354), wk =   0.0025991
        k(  337) = (   0.1666667  -0.5000000   0.3421624), wk =   0.0025991
        k(  338) = (   0.1666667  -0.5000000   0.3991895), wk =   0.0025991
        k(  339) = (   0.1666667  -0.5000000   0.4562166), wk =   0.0025991
        k(  340) = (   0.1666667  -0.5000000   0.5132437), wk =   0.0025991
        k(  341) = (   0.2222222   0.2222222   0.0000000), wk =   0.0012995
        k(  342) = (   0.2222222   0.2222222   0.0570271), wk =   0.0025991
        k(  343) = (   0.2222222   0.2222222   0.1140541), wk =   0.0025991
        k(  344) = (   0.2222222   0.2222222   0.1710812), wk =   0.0025991
        k(  345) = (   0.2222222   0.2222222   0.2281083), wk =   0.0025991
        k(  346) = (   0.2222222   0.2222222   0.2851354), wk =   0.0025991
        k(  347) = (   0.2222222   0.2222222   0.3421624), wk =   0.0025991
        k(  348) = (   0.2222222   0.2222222   0.3991895), wk =   0.0025991
        k(  349) = (   0.2222222   0.2222222   0.4562166), wk =   0.0025991
        k(  350) = (   0.2222222   0.2222222   0.5132437), wk =   0.0025991
        k(  351) = (   0.2222222   0.2777778   0.0000000), wk =   0.0025991
        k(  352) = (   0.2222222   0.2777778   0.0570271), wk =   0.0051982
        k(  353) = (   0.2222222   0.2777778   0.1140541), wk =   0.0051982
        k(  354) = (   0.2222222   0.2777778   0.1710812), wk =   0.0051982
        k(  355) = (   0.2222222   0.2777778   0.2281083), wk =   0.0051982
        k(  356) = (   0.2222222   0.2777778   0.2851354), wk =   0.0051982
        k(  357) = (   0.2222222   0.2777778   0.3421624), wk =   0.0051982
        k(  358) = (   0.2222222   0.2777778   0.3991895), wk =   0.0051982
        k(  359) = (   0.2222222   0.2777778   0.4562166), wk =   0.0051982
        k(  360) = (   0.2222222   0.2777778   0.5132437), wk =   0.0051982
        k(  361) = (   0.2222222   0.3333333   0.0000000), wk =   0.0025991
        k(  362) = (   0.2222222   0.3333333   0.0570271), wk =   0.0051982
        k(  363) = (   0.2222222   0.3333333   0.1140541), wk =   0.0051982
        k(  364) = (   0.2222222   0.3333333   0.1710812), wk =   0.0051982
        k(  365) = (   0.2222222   0.3333333   0.2281083), wk =   0.0051982
        k(  366) = (   0.2222222   0.3333333   0.2851354), wk =   0.0051982
        k(  367) = (   0.2222222   0.3333333   0.3421624), wk =   0.0051982
        k(  368) = (   0.2222222   0.3333333   0.3991895), wk =   0.0051982
        k(  369) = (   0.2222222   0.3333333   0.4562166), wk =   0.0051982
        k(  370) = (   0.2222222   0.3333333   0.5132437), wk =   0.0051982
        k(  371) = (   0.2222222   0.3888889   0.0000000), wk =   0.0025991
        k(  372) = (   0.2222222   0.3888889   0.0570271), wk =   0.0051982
        k(  373) = (   0.2222222   0.3888889   0.1140541), wk =   0.0051982
        k(  374) = (   0.2222222   0.3888889   0.1710812), wk =   0.0051982
        k(  375) = (   0.2222222   0.3888889   0.2281083), wk =   0.0051982
        k(  376) = (   0.2222222   0.3888889   0.2851354), wk =   0.0051982
        k(  377) = (   0.2222222   0.3888889   0.3421624), wk =   0.0051982
        k(  378) = (   0.2222222   0.3888889   0.3991895), wk =   0.0051982
        k(  379) = (   0.2222222   0.3888889   0.4562166), wk =   0.0051982
        k(  380) = (   0.2222222   0.3888889   0.5132437), wk =   0.0051982
        k(  381) = (   0.2222222   0.4444444   0.0000000), wk =   0.0025991
        k(  382) = (   0.2222222   0.4444444   0.0570271), wk =   0.0051982
        k(  383) = (   0.2222222   0.4444444   0.1140541), wk =   0.0051982
        k(  384) = (   0.2222222   0.4444444   0.1710812), wk =   0.0051982
        k(  385) = (   0.2222222   0.4444444   0.2281083), wk =   0.0051982
        k(  386) = (   0.2222222   0.4444444   0.2851354), wk =   0.0051982
        k(  387) = (   0.2222222   0.4444444   0.3421624), wk =   0.0051982
        k(  388) = (   0.2222222   0.4444444   0.3991895), wk =   0.0051982
        k(  389) = (   0.2222222   0.4444444   0.4562166), wk =   0.0051982
        k(  390) = (   0.2222222   0.4444444   0.5132437), wk =   0.0051982
        k(  391) = (   0.2222222  -0.5000000   0.0000000), wk =   0.0012995
        k(  392) = (   0.2222222  -0.5000000   0.0570271), wk =   0.0025991
        k(  393) = (   0.2222222  -0.5000000   0.1140541), wk =   0.0025991
        k(  394) = (   0.2222222  -0.5000000   0.1710812), wk =   0.0025991
        k(  395) = (   0.2222222  -0.5000000   0.2281083), wk =   0.0025991
        k(  396) = (   0.2222222  -0.5000000   0.2851354), wk =   0.0025991
        k(  397) = (   0.2222222  -0.5000000   0.3421624), wk =   0.0025991
        k(  398) = (   0.2222222  -0.5000000   0.3991895), wk =   0.0025991
        k(  399) = (   0.2222222  -0.5000000   0.4562166), wk =   0.0025991
        k(  400) = (   0.2222222  -0.5000000   0.5132437), wk =   0.0025991
        k(  401) = (   0.2777778   0.2777778   0.0000000), wk =   0.0012995
        k(  402) = (   0.2777778   0.2777778   0.0570271), wk =   0.0025991
        k(  403) = (   0.2777778   0.2777778   0.1140541), wk =   0.0025991
        k(  404) = (   0.2777778   0.2777778   0.1710812), wk =   0.0025991
        k(  405) = (   0.2777778   0.2777778   0.2281083), wk =   0.0025991
        k(  406) = (   0.2777778   0.2777778   0.2851354), wk =   0.0025991
        k(  407) = (   0.2777778   0.2777778   0.3421624), wk =   0.0025991
        k(  408) = (   0.2777778   0.2777778   0.3991895), wk =   0.0025991
        k(  409) = (   0.2777778   0.2777778   0.4562166), wk =   0.0025991
        k(  410) = (   0.2777778   0.2777778   0.5132437), wk =   0.0025991
        k(  411) = (   0.2777778   0.3333333   0.0000000), wk =   0.0025991
        k(  412) = (   0.2777778   0.3333333   0.0570271), wk =   0.0051982
        k(  413) = (   0.2777778   0.3333333   0.1140541), wk =   0.0051982
        k(  414) = (   0.2777778   0.3333333   0.1710812), wk =   0.0051982
        k(  415) = (   0.2777778   0.3333333   0.2281083), wk =   0.0051982
        k(  416) = (   0.2777778   0.3333333   0.2851354), wk =   0.0051982
        k(  417) = (   0.2777778   0.3333333   0.3421624), wk =   0.0051982
        k(  418) = (   0.2777778   0.3333333   0.3991895), wk =   0.0051982
        k(  419) = (   0.2777778   0.3333333   0.4562166), wk =   0.0051982
        k(  420) = (   0.2777778   0.3333333   0.5132437), wk =   0.0051982
        k(  421) = (   0.2777778   0.3888889   0.0000000), wk =   0.0025991
        k(  422) = (   0.2777778   0.3888889   0.0570271), wk =   0.0051982
        k(  423) = (   0.2777778   0.3888889   0.1140541), wk =   0.0051982
        k(  424) = (   0.2777778   0.3888889   0.1710812), wk =   0.0051982
        k(  425) = (   0.2777778   0.3888889   0.2281083), wk =   0.0051982
        k(  426) = (   0.2777778   0.3888889   0.2851354), wk =   0.0051982
        k(  427) = (   0.2777778   0.3888889   0.3421624), wk =   0.0051982
        k(  428) = (   0.2777778   0.3888889   0.3991895), wk =   0.0051982
        k(  429) = (   0.2777778   0.3888889   0.4562166), wk =   0.0051982
        k(  430) = (   0.2777778   0.3888889   0.5132437), wk =   0.0051982
        k(  431) = (   0.2777778   0.4444444   0.0000000), wk =   0.0025991
        k(  432) = (   0.2777778   0.4444444   0.0570271), wk =   0.0051982
        k(  433) = (   0.2777778   0.4444444   0.1140541), wk =   0.0051982
        k(  434) = (   0.2777778   0.4444444   0.1710812), wk =   0.0051982
        k(  435) = (   0.2777778   0.4444444   0.2281083), wk =   0.0051982
        k(  436) = (   0.2777778   0.4444444   0.2851354), wk =   0.0051982
        k(  437) = (   0.2777778   0.4444444   0.3421624), wk =   0.0051982
        k(  438) = (   0.2777778   0.4444444   0.3991895), wk =   0.0051982
        k(  439) = (   0.2777778   0.4444444   0.4562166), wk =   0.0051982
        k(  440) = (   0.2777778   0.4444444   0.5132437), wk =   0.0051982
        k(  441) = (   0.2777778  -0.5000000   0.0000000), wk =   0.0012995
        k(  442) = (   0.2777778  -0.5000000   0.0570271), wk =   0.0025991
        k(  443) = (   0.2777778  -0.5000000   0.1140541), wk =   0.0025991
        k(  444) = (   0.2777778  -0.5000000   0.1710812), wk =   0.0025991
        k(  445) = (   0.2777778  -0.5000000   0.2281083), wk =   0.0025991
        k(  446) = (   0.2777778  -0.5000000   0.2851354), wk =   0.0025991
        k(  447) = (   0.2777778  -0.5000000   0.3421624), wk =   0.0025991
        k(  448) = (   0.2777778  -0.5000000   0.3991895), wk =   0.0025991
        k(  449) = (   0.2777778  -0.5000000   0.4562166), wk =   0.0025991
        k(  450) = (   0.2777778  -0.5000000   0.5132437), wk =   0.0025991
        k(  451) = (   0.3333333   0.3333333   0.0000000), wk =   0.0012995
        k(  452) = (   0.3333333   0.3333333   0.0570271), wk =   0.0025991
        k(  453) = (   0.3333333   0.3333333   0.1140541), wk =   0.0025991
        k(  454) = (   0.3333333   0.3333333   0.1710812), wk =   0.0025991
        k(  455) = (   0.3333333   0.3333333   0.2281083), wk =   0.0025991
        k(  456) = (   0.3333333   0.3333333   0.2851354), wk =   0.0025991
        k(  457) = (   0.3333333   0.3333333   0.3421624), wk =   0.0025991
        k(  458) = (   0.3333333   0.3333333   0.3991895), wk =   0.0025991
        k(  459) = (   0.3333333   0.3333333   0.4562166), wk =   0.0025991
        k(  460) = (   0.3333333   0.3333333   0.5132437), wk =   0.0025991
        k(  461) = (   0.3333333   0.3888889   0.0000000), wk =   0.0025991
        k(  462) = (   0.3333333   0.3888889   0.0570271), wk =   0.0051982
        k(  463) = (   0.3333333   0.3888889   0.1140541), wk =   0.0051982
        k(  464) = (   0.3333333   0.3888889   0.1710812), wk =   0.0051982
        k(  465) = (   0.3333333   0.3888889   0.2281083), wk =   0.0051982
        k(  466) = (   0.3333333   0.3888889   0.2851354), wk =   0.0051982
        k(  467) = (   0.3333333   0.3888889   0.3421624), wk =   0.0051982
        k(  468) = (   0.3333333   0.3888889   0.3991895), wk =   0.0051982
        k(  469) = (   0.3333333   0.3888889   0.4562166), wk =   0.0051982
        k(  470) = (   0.3333333   0.3888889   0.5132437), wk =   0.0051982
        k(  471) = (   0.3333333   0.4444444   0.0000000), wk =   0.0025991
        k(  472) = (   0.3333333   0.4444444   0.0570271), wk =   0.0051982
        k(  473) = (   0.3333333   0.4444444   0.1140541), wk =   0.0051982
        k(  474) = (   0.3333333   0.4444444   0.1710812), wk =   0.0051982
        k(  475) = (   0.3333333   0.4444444   0.2281083), wk =   0.0051982
        k(  476) = (   0.3333333   0.4444444   0.2851354), wk =   0.0051982
        k(  477) = (   0.3333333   0.4444444   0.3421624), wk =   0.0051982
        k(  478) = (   0.3333333   0.4444444   0.3991895), wk =   0.0051982
        k(  479) = (   0.3333333   0.4444444   0.4562166), wk =   0.0051982
        k(  480) = (   0.3333333   0.4444444   0.5132437), wk =   0.0051982
        k(  481) = (   0.3333333  -0.5000000   0.0000000), wk =   0.0012995
        k(  482) = (   0.3333333  -0.5000000   0.0570271), wk =   0.0025991
        k(  483) = (   0.3333333  -0.5000000   0.1140541), wk =   0.0025991
        k(  484) = (   0.3333333  -0.5000000   0.1710812), wk =   0.0025991
        k(  485) = (   0.3333333  -0.5000000   0.2281083), wk =   0.0025991
        k(  486) = (   0.3333333  -0.5000000   0.2851354), wk =   0.0025991
        k(  487) = (   0.3333333  -0.5000000   0.3421624), wk =   0.0025991
        k(  488) = (   0.3333333  -0.5000000   0.3991895), wk =   0.0025991
        k(  489) = (   0.3333333  -0.5000000   0.4562166), wk =   0.0025991
        k(  490) = (   0.3333333  -0.5000000   0.5132437), wk =   0.0025991
        k(  491) = (   0.3888889   0.3888889   0.0000000), wk =   0.0012995
        k(  492) = (   0.3888889   0.3888889   0.0570271), wk =   0.0025991
        k(  493) = (   0.3888889   0.3888889   0.1140541), wk =   0.0025991
        k(  494) = (   0.3888889   0.3888889   0.1710812), wk =   0.0025991
        k(  495) = (   0.3888889   0.3888889   0.2281083), wk =   0.0025991
        k(  496) = (   0.3888889   0.3888889   0.2851354), wk =   0.0025991
        k(  497) = (   0.3888889   0.3888889   0.3421624), wk =   0.0025991
        k(  498) = (   0.3888889   0.3888889   0.3991895), wk =   0.0025991
        k(  499) = (   0.3888889   0.3888889   0.4562166), wk =   0.0025991
        k(  500) = (   0.3888889   0.3888889   0.5132437), wk =   0.0025991
        k(  501) = (   0.3888889   0.4444444   0.0000000), wk =   0.0025991
        k(  502) = (   0.3888889   0.4444444   0.0570271), wk =   0.0051982
        k(  503) = (   0.3888889   0.4444444   0.1140541), wk =   0.0051982
        k(  504) = (   0.3888889   0.4444444   0.1710812), wk =   0.0051982
        k(  505) = (   0.3888889   0.4444444   0.2281083), wk =   0.0051982
        k(  506) = (   0.3888889   0.4444444   0.2851354), wk =   0.0051982
        k(  507) = (   0.3888889   0.4444444   0.3421624), wk =   0.0051982
        k(  508) = (   0.3888889   0.4444444   0.3991895), wk =   0.0051982
        k(  509) = (   0.3888889   0.4444444   0.4562166), wk =   0.0051982
        k(  510) = (   0.3888889   0.4444444   0.5132437), wk =   0.0051982
        k(  511) = (   0.3888889  -0.5000000   0.0000000), wk =   0.0012995
        k(  512) = (   0.3888889  -0.5000000   0.0570271), wk =   0.0025991
        k(  513) = (   0.3888889  -0.5000000   0.1140541), wk =   0.0025991
        k(  514) = (   0.3888889  -0.5000000   0.1710812), wk =   0.0025991
        k(  515) = (   0.3888889  -0.5000000   0.2281083), wk =   0.0025991
        k(  516) = (   0.3888889  -0.5000000   0.2851354), wk =   0.0025991
        k(  517) = (   0.3888889  -0.5000000   0.3421624), wk =   0.0025991
        k(  518) = (   0.3888889  -0.5000000   0.3991895), wk =   0.0025991
        k(  519) = (   0.3888889  -0.5000000   0.4562166), wk =   0.0025991
        k(  520) = (   0.3888889  -0.5000000   0.5132437), wk =   0.0025991
        k(  521) = (   0.4444444   0.4444444   0.0000000), wk =   0.0012995
        k(  522) = (   0.4444444   0.4444444   0.0570271), wk =   0.0025991
        k(  523) = (   0.4444444   0.4444444   0.1140541), wk =   0.0025991
        k(  524) = (   0.4444444   0.4444444   0.1710812), wk =   0.0025991
        k(  525) = (   0.4444444   0.4444444   0.2281083), wk =   0.0025991
        k(  526) = (   0.4444444   0.4444444   0.2851354), wk =   0.0025991
        k(  527) = (   0.4444444   0.4444444   0.3421624), wk =   0.0025991
        k(  528) = (   0.4444444   0.4444444   0.3991895), wk =   0.0025991
        k(  529) = (   0.4444444   0.4444444   0.4562166), wk =   0.0025991
        k(  530) = (   0.4444444   0.4444444   0.5132437), wk =   0.0025991
        k(  531) = (   0.4444444  -0.5000000   0.0000000), wk =   0.0012995
        k(  532) = (   0.4444444  -0.5000000   0.0570271), wk =   0.0025991
        k(  533) = (   0.4444444  -0.5000000   0.1140541), wk =   0.0025991
        k(  534) = (   0.4444444  -0.5000000   0.1710812), wk =   0.0025991
        k(  535) = (   0.4444444  -0.5000000   0.2281083), wk =   0.0025991
        k(  536) = (   0.4444444  -0.5000000   0.2851354), wk =   0.0025991
        k(  537) = (   0.4444444  -0.5000000   0.3421624), wk =   0.0025991
        k(  538) = (   0.4444444  -0.5000000   0.3991895), wk =   0.0025991
        k(  539) = (   0.4444444  -0.5000000   0.4562166), wk =   0.0025991
        k(  540) = (   0.4444444  -0.5000000   0.5132437), wk =   0.0025991
        k(  541) = (  -0.5000000  -0.5000000   0.0000000), wk =   0.0003249
        k(  542) = (  -0.5000000  -0.5000000   0.0570271), wk =   0.0006498
        k(  543) = (  -0.5000000  -0.5000000   0.1140541), wk =   0.0006498
        k(  544) = (  -0.5000000  -0.5000000   0.1710812), wk =   0.0006498
        k(  545) = (  -0.5000000  -0.5000000   0.2281083), wk =   0.0006498
        k(  546) = (  -0.5000000  -0.5000000   0.2851354), wk =   0.0006498
        k(  547) = (  -0.5000000  -0.5000000   0.3421624), wk =   0.0006498
        k(  548) = (  -0.5000000  -0.5000000   0.3991895), wk =   0.0006498
        k(  549) = (  -0.5000000  -0.5000000   0.4562166), wk =   0.0006498
        k(  550) = (  -0.5000000  -0.5000000   0.5132437), wk =   0.0006498

                       cryst. coord.
        k(    1) = (   0.0000000   0.0000000   0.0000000), wk =   0.0003249
        k(    2) = (   0.0000000   0.0000000   0.0526316), wk =   0.0006498
        k(    3) = (   0.0000000   0.0000000   0.1052632), wk =   0.0006498
        k(    4) = (   0.0000000   0.0000000   0.1578947), wk =   0.0006498
        k(    5) = (   0.0000000   0.0000000   0.2105263), wk =   0.0006498
        k(    6) = (   0.0000000   0.0000000   0.2631579), wk =   0.0006498
        k(    7) = (   0.0000000   0.0000000   0.3157895), wk =   0.0006498
        k(    8) = (   0.0000000   0.0000000   0.3684211), wk =   0.0006498
        k(    9) = (   0.0000000   0.0000000   0.4210526), wk =   0.0006498
        k(   10) = (   0.0000000   0.0000000   0.4736842), wk =   0.0006498
        k(   11) = (   0.0000000   0.0555556   0.0000000), wk =   0.0012995
        k(   12) = (   0.0000000   0.0555556   0.0526316), wk =   0.0025991
        k(   13) = (   0.0000000   0.0555556   0.1052632), wk =   0.0025991
        k(   14) = (   0.0000000   0.0555556   0.1578947), wk =   0.0025991
        k(   15) = (   0.0000000   0.0555556   0.2105263), wk =   0.0025991
        k(   16) = (   0.0000000   0.0555556   0.2631579), wk =   0.0025991
        k(   17) = (   0.0000000   0.0555556   0.3157895), wk =   0.0025991
        k(   18) = (   0.0000000   0.0555556   0.3684211), wk =   0.0025991
        k(   19) = (   0.0000000   0.0555556   0.4210526), wk =   0.0025991
        k(   20) = (   0.0000000   0.0555556   0.4736842), wk =   0.0025991
        k(   21) = (   0.0000000   0.1111111   0.0000000), wk =   0.0012995
        k(   22) = (   0.0000000   0.1111111   0.0526316), wk =   0.0025991
        k(   23) = (   0.0000000   0.1111111   0.1052632), wk =   0.0025991
        k(   24) = (   0.0000000   0.1111111   0.1578947), wk =   0.0025991
        k(   25) = (   0.0000000   0.1111111   0.2105263), wk =   0.0025991
        k(   26) = (   0.0000000   0.1111111   0.2631579), wk =   0.0025991
        k(   27) = (   0.0000000   0.1111111   0.3157895), wk =   0.0025991
        k(   28) = (   0.0000000   0.1111111   0.3684211), wk =   0.0025991
        k(   29) = (   0.0000000   0.1111111   0.4210526), wk =   0.0025991
        k(   30) = (   0.0000000   0.1111111   0.4736842), wk =   0.0025991
        k(   31) = (   0.0000000   0.1666667   0.0000000), wk =   0.0012995
        k(   32) = (   0.0000000   0.1666667   0.0526316), wk =   0.0025991
        k(   33) = (   0.0000000   0.1666667   0.1052632), wk =   0.0025991
        k(   34) = (   0.0000000   0.1666667   0.1578947), wk =   0.0025991
        k(   35) = (   0.0000000   0.1666667   0.2105263), wk =   0.0025991
        k(   36) = (   0.0000000   0.1666667   0.2631579), wk =   0.0025991
        k(   37) = (   0.0000000   0.1666667   0.3157895), wk =   0.0025991
        k(   38) = (   0.0000000   0.1666667   0.3684211), wk =   0.0025991
        k(   39) = (   0.0000000   0.1666667   0.4210526), wk =   0.0025991
        k(   40) = (   0.0000000   0.1666667   0.4736842), wk =   0.0025991
        k(   41) = (   0.0000000   0.2222222   0.0000000), wk =   0.0012995
        k(   42) = (   0.0000000   0.2222222   0.0526316), wk =   0.0025991
        k(   43) = (   0.0000000   0.2222222   0.1052632), wk =   0.0025991
        k(   44) = (   0.0000000   0.2222222   0.1578947), wk =   0.0025991
        k(   45) = (   0.0000000   0.2222222   0.2105263), wk =   0.0025991
        k(   46) = (   0.0000000   0.2222222   0.2631579), wk =   0.0025991
        k(   47) = (   0.0000000   0.2222222   0.3157895), wk =   0.0025991
        k(   48) = (   0.0000000   0.2222222   0.3684211), wk =   0.0025991
        k(   49) = (   0.0000000   0.2222222   0.4210526), wk =   0.0025991
        k(   50) = (   0.0000000   0.2222222   0.4736842), wk =   0.0025991
        k(   51) = (   0.0000000   0.2777778   0.0000000), wk =   0.0012995
        k(   52) = (   0.0000000   0.2777778   0.0526316), wk =   0.0025991
        k(   53) = (   0.0000000   0.2777778   0.1052632), wk =   0.0025991
        k(   54) = (   0.0000000   0.2777778   0.1578947), wk =   0.0025991
        k(   55) = (   0.0000000   0.2777778   0.2105263), wk =   0.0025991
        k(   56) = (   0.0000000   0.2777778   0.2631579), wk =   0.0025991
        k(   57) = (   0.0000000   0.2777778   0.3157895), wk =   0.0025991
        k(   58) = (   0.0000000   0.2777778   0.3684211), wk =   0.0025991
        k(   59) = (   0.0000000   0.2777778   0.4210526), wk =   0.0025991
        k(   60) = (   0.0000000   0.2777778   0.4736842), wk =   0.0025991
        k(   61) = (   0.0000000   0.3333333   0.0000000), wk =   0.0012995
        k(   62) = (   0.0000000   0.3333333   0.0526316), wk =   0.0025991
        k(   63) = (   0.0000000   0.3333333   0.1052632), wk =   0.0025991
        k(   64) = (   0.0000000   0.3333333   0.1578947), wk =   0.0025991
        k(   65) = (   0.0000000   0.3333333   0.2105263), wk =   0.0025991
        k(   66) = (   0.0000000   0.3333333   0.2631579), wk =   0.0025991
        k(   67) = (   0.0000000   0.3333333   0.3157895), wk =   0.0025991
        k(   68) = (   0.0000000   0.3333333   0.3684211), wk =   0.0025991
        k(   69) = (   0.0000000   0.3333333   0.4210526), wk =   0.0025991
        k(   70) = (   0.0000000   0.3333333   0.4736842), wk =   0.0025991
        k(   71) = (   0.0000000   0.3888889   0.0000000), wk =   0.0012995
        k(   72) = (   0.0000000   0.3888889   0.0526316), wk =   0.0025991
        k(   73) = (   0.0000000   0.3888889   0.1052632), wk =   0.0025991
        k(   74) = (   0.0000000   0.3888889   0.1578947), wk =   0.0025991
        k(   75) = (   0.0000000   0.3888889   0.2105263), wk =   0.0025991
        k(   76) = (   0.0000000   0.3888889   0.2631579), wk =   0.0025991
        k(   77) = (   0.0000000   0.3888889   0.3157895), wk =   0.0025991
        k(   78) = (   0.0000000   0.3888889   0.3684211), wk =   0.0025991
        k(   79) = (   0.0000000   0.3888889   0.4210526), wk =   0.0025991
        k(   80) = (   0.0000000   0.3888889   0.4736842), wk =   0.0025991
        k(   81) = (   0.0000000   0.4444444   0.0000000), wk =   0.0012995
        k(   82) = (   0.0000000   0.4444444   0.0526316), wk =   0.0025991
        k(   83) = (   0.0000000   0.4444444   0.1052632), wk =   0.0025991
        k(   84) = (   0.0000000   0.4444444   0.1578947), wk =   0.0025991
        k(   85) = (   0.0000000   0.4444444   0.2105263), wk =   0.0025991
        k(   86) = (   0.0000000   0.4444444   0.2631579), wk =   0.0025991
        k(   87) = (   0.0000000   0.4444444   0.3157895), wk =   0.0025991
        k(   88) = (   0.0000000   0.4444444   0.3684211), wk =   0.0025991
        k(   89) = (   0.0000000   0.4444444   0.4210526), wk =   0.0025991
        k(   90) = (   0.0000000   0.4444444   0.4736842), wk =   0.0025991
        k(   91) = (   0.0000000  -0.5000000   0.0000000), wk =   0.0006498
        k(   92) = (   0.0000000  -0.5000000   0.0526316), wk =   0.0012995
        k(   93) = (   0.0000000  -0.5000000   0.1052632), wk =   0.0012995
        k(   94) = (   0.0000000  -0.5000000   0.1578947), wk =   0.0012995
        k(   95) = (   0.0000000  -0.5000000   0.2105263), wk =   0.0012995
        k(   96) = (   0.0000000  -0.5000000   0.2631579), wk =   0.0012995
        k(   97) = (   0.0000000  -0.5000000   0.3157895), wk =   0.0012995
        k(   98) = (   0.0000000  -0.5000000   0.3684211), wk =   0.0012995
        k(   99) = (   0.0000000  -0.5000000   0.4210526), wk =   0.0012995
        k(  100) = (   0.0000000  -0.5000000   0.4736842), wk =   0.0012995
        k(  101) = (   0.0555556   0.0555556   0.0000000), wk =   0.0012995
        k(  102) = (   0.0555556   0.0555556   0.0526316), wk =   0.0025991
        k(  103) = (   0.0555556   0.0555556   0.1052632), wk =   0.0025991
        k(  104) = (   0.0555556   0.0555556   0.1578947), wk =   0.0025991
        k(  105) = (   0.0555556   0.0555556   0.2105263), wk =   0.0025991
        k(  106) = (   0.0555556   0.0555556   0.2631579), wk =   0.0025991
        k(  107) = (   0.0555556   0.0555556   0.3157895), wk =   0.0025991
        k(  108) = (   0.0555556   0.0555556   0.3684211), wk =   0.0025991
        k(  109) = (   0.0555556   0.0555556   0.4210526), wk =   0.0025991
        k(  110) = (   0.0555556   0.0555556   0.4736842), wk =   0.0025991
        k(  111) = (   0.0555556   0.1111111   0.0000000), wk =   0.0025991
        k(  112) = (   0.0555556   0.1111111   0.0526316), wk =   0.0051982
        k(  113) = (   0.0555556   0.1111111   0.1052632), wk =   0.0051982
        k(  114) = (   0.0555556   0.1111111   0.1578947), wk =   0.0051982
        k(  115) = (   0.0555556   0.1111111   0.2105263), wk =   0.0051982
        k(  116) = (   0.0555556   0.1111111   0.2631579), wk =   0.0051982
        k(  117) = (   0.0555556   0.1111111   0.3157895), wk =   0.0051982
        k(  118) = (   0.0555556   0.1111111   0.3684211), wk =   0.0051982
        k(  119) = (   0.0555556   0.1111111   0.4210526), wk =   0.0051982
        k(  120) = (   0.0555556   0.1111111   0.4736842), wk =   0.0051982
        k(  121) = (   0.0555556   0.1666667   0.0000000), wk =   0.0025991
        k(  122) = (   0.0555556   0.1666667   0.0526316), wk =   0.0051982
        k(  123) = (   0.0555556   0.1666667   0.1052632), wk =   0.0051982
        k(  124) = (   0.0555556   0.1666667   0.1578947), wk =   0.0051982
        k(  125) = (   0.0555556   0.1666667   0.2105263), wk =   0.0051982
        k(  126) = (   0.0555556   0.1666667   0.2631579), wk =   0.0051982
        k(  127) = (   0.0555556   0.1666667   0.3157895), wk =   0.0051982
        k(  128) = (   0.0555556   0.1666667   0.3684211), wk =   0.0051982
        k(  129) = (   0.0555556   0.1666667   0.4210526), wk =   0.0051982
        k(  130) = (   0.0555556   0.1666667   0.4736842), wk =   0.0051982
        k(  131) = (   0.0555556   0.2222222   0.0000000), wk =   0.0025991
        k(  132) = (   0.0555556   0.2222222   0.0526316), wk =   0.0051982
        k(  133) = (   0.0555556   0.2222222   0.1052632), wk =   0.0051982
        k(  134) = (   0.0555556   0.2222222   0.1578947), wk =   0.0051982
        k(  135) = (   0.0555556   0.2222222   0.2105263), wk =   0.0051982
        k(  136) = (   0.0555556   0.2222222   0.2631579), wk =   0.0051982
        k(  137) = (   0.0555556   0.2222222   0.3157895), wk =   0.0051982
        k(  138) = (   0.0555556   0.2222222   0.3684211), wk =   0.0051982
        k(  139) = (   0.0555556   0.2222222   0.4210526), wk =   0.0051982
        k(  140) = (   0.0555556   0.2222222   0.4736842), wk =   0.0051982
        k(  141) = (   0.0555556   0.2777778   0.0000000), wk =   0.0025991
        k(  142) = (   0.0555556   0.2777778   0.0526316), wk =   0.0051982
        k(  143) = (   0.0555556   0.2777778   0.1052632), wk =   0.0051982
        k(  144) = (   0.0555556   0.2777778   0.1578947), wk =   0.0051982
        k(  145) = (   0.0555556   0.2777778   0.2105263), wk =   0.0051982
        k(  146) = (   0.0555556   0.2777778   0.2631579), wk =   0.0051982
        k(  147) = (   0.0555556   0.2777778   0.3157895), wk =   0.0051982
        k(  148) = (   0.0555556   0.2777778   0.3684211), wk =   0.0051982
        k(  149) = (   0.0555556   0.2777778   0.4210526), wk =   0.0051982
        k(  150) = (   0.0555556   0.2777778   0.4736842), wk =   0.0051982
        k(  151) = (   0.0555556   0.3333333   0.0000000), wk =   0.0025991
        k(  152) = (   0.0555556   0.3333333   0.0526316), wk =   0.0051982
        k(  153) = (   0.0555556   0.3333333   0.1052632), wk =   0.0051982
        k(  154) = (   0.0555556   0.3333333   0.1578947), wk =   0.0051982
        k(  155) = (   0.0555556   0.3333333   0.2105263), wk =   0.0051982
        k(  156) = (   0.0555556   0.3333333   0.2631579), wk =   0.0051982
        k(  157) = (   0.0555556   0.3333333   0.3157895), wk =   0.0051982
        k(  158) = (   0.0555556   0.3333333   0.3684211), wk =   0.0051982
        k(  159) = (   0.0555556   0.3333333   0.4210526), wk =   0.0051982
        k(  160) = (   0.0555556   0.3333333   0.4736842), wk =   0.0051982
        k(  161) = (   0.0555556   0.3888889   0.0000000), wk =   0.0025991
        k(  162) = (   0.0555556   0.3888889   0.0526316), wk =   0.0051982
        k(  163) = (   0.0555556   0.3888889   0.1052632), wk =   0.0051982
        k(  164) = (   0.0555556   0.3888889   0.1578947), wk =   0.0051982
        k(  165) = (   0.0555556   0.3888889   0.2105263), wk =   0.0051982
        k(  166) = (   0.0555556   0.3888889   0.2631579), wk =   0.0051982
        k(  167) = (   0.0555556   0.3888889   0.3157895), wk =   0.0051982
        k(  168) = (   0.0555556   0.3888889   0.3684211), wk =   0.0051982
        k(  169) = (   0.0555556   0.3888889   0.4210526), wk =   0.0051982
        k(  170) = (   0.0555556   0.3888889   0.4736842), wk =   0.0051982
        k(  171) = (   0.0555556   0.4444444   0.0000000), wk =   0.0025991
        k(  172) = (   0.0555556   0.4444444   0.0526316), wk =   0.0051982
        k(  173) = (   0.0555556   0.4444444   0.1052632), wk =   0.0051982
        k(  174) = (   0.0555556   0.4444444   0.1578947), wk =   0.0051982
        k(  175) = (   0.0555556   0.4444444   0.2105263), wk =   0.0051982
        k(  176) = (   0.0555556   0.4444444   0.2631579), wk =   0.0051982
        k(  177) = (   0.0555556   0.4444444   0.3157895), wk =   0.0051982
        k(  178) = (   0.0555556   0.4444444   0.3684211), wk =   0.0051982
        k(  179) = (   0.0555556   0.4444444   0.4210526), wk =   0.0051982
        k(  180) = (   0.0555556   0.4444444   0.4736842), wk =   0.0051982
        k(  181) = (   0.0555556  -0.5000000   0.0000000), wk =   0.0012995
        k(  182) = (   0.0555556  -0.5000000   0.0526316), wk =   0.0025991
        k(  183) = (   0.0555556  -0.5000000   0.1052632), wk =   0.0025991
        k(  184) = (   0.0555556  -0.5000000   0.1578947), wk =   0.0025991
        k(  185) = (   0.0555556  -0.5000000   0.2105263), wk =   0.0025991
        k(  186) = (   0.0555556  -0.5000000   0.2631579), wk =   0.0025991
        k(  187) = (   0.0555556  -0.5000000   0.3157895), wk =   0.0025991
        k(  188) = (   0.0555556  -0.5000000   0.3684211), wk =   0.0025991
        k(  189) = (   0.0555556  -0.5000000   0.4210526), wk =   0.0025991
        k(  190) = (   0.0555556  -0.5000000   0.4736842), wk =   0.0025991
        k(  191) = (   0.1111111   0.1111111   0.0000000), wk =   0.0012995
        k(  192) = (   0.1111111   0.1111111   0.0526316), wk =   0.0025991
        k(  193) = (   0.1111111   0.1111111   0.1052632), wk =   0.0025991
        k(  194) = (   0.1111111   0.1111111   0.1578947), wk =   0.0025991
        k(  195) = (   0.1111111   0.1111111   0.2105263), wk =   0.0025991
        k(  196) = (   0.1111111   0.1111111   0.2631579), wk =   0.0025991
        k(  197) = (   0.1111111   0.1111111   0.3157895), wk =   0.0025991
        k(  198) = (   0.1111111   0.1111111   0.3684211), wk =   0.0025991
        k(  199) = (   0.1111111   0.1111111   0.4210526), wk =   0.0025991
        k(  200) = (   0.1111111   0.1111111   0.4736842), wk =   0.0025991
        k(  201) = (   0.1111111   0.1666667   0.0000000), wk =   0.0025991
        k(  202) = (   0.1111111   0.1666667   0.0526316), wk =   0.0051982
        k(  203) = (   0.1111111   0.1666667   0.1052632), wk =   0.0051982
        k(  204) = (   0.1111111   0.1666667   0.1578947), wk =   0.0051982
        k(  205) = (   0.1111111   0.1666667   0.2105263), wk =   0.0051982
        k(  206) = (   0.1111111   0.1666667   0.2631579), wk =   0.0051982
        k(  207) = (   0.1111111   0.1666667   0.3157895), wk =   0.0051982
        k(  208) = (   0.1111111   0.1666667   0.3684211), wk =   0.0051982
        k(  209) = (   0.1111111   0.1666667   0.4210526), wk =   0.0051982
        k(  210) = (   0.1111111   0.1666667   0.4736842), wk =   0.0051982
        k(  211) = (   0.1111111   0.2222222   0.0000000), wk =   0.0025991
        k(  212) = (   0.1111111   0.2222222   0.0526316), wk =   0.0051982
        k(  213) = (   0.1111111   0.2222222   0.1052632), wk =   0.0051982
        k(  214) = (   0.1111111   0.2222222   0.1578947), wk =   0.0051982
        k(  215) = (   0.1111111   0.2222222   0.2105263), wk =   0.0051982
        k(  216) = (   0.1111111   0.2222222   0.2631579), wk =   0.0051982
        k(  217) = (   0.1111111   0.2222222   0.3157895), wk =   0.0051982
        k(  218) = (   0.1111111   0.2222222   0.3684211), wk =   0.0051982
        k(  219) = (   0.1111111   0.2222222   0.4210526), wk =   0.0051982
        k(  220) = (   0.1111111   0.2222222   0.4736842), wk =   0.0051982
        k(  221) = (   0.1111111   0.2777778   0.0000000), wk =   0.0025991
        k(  222) = (   0.1111111   0.2777778   0.0526316), wk =   0.0051982
        k(  223) = (   0.1111111   0.2777778   0.1052632), wk =   0.0051982
        k(  224) = (   0.1111111   0.2777778   0.1578947), wk =   0.0051982
        k(  225) = (   0.1111111   0.2777778   0.2105263), wk =   0.0051982
        k(  226) = (   0.1111111   0.2777778   0.2631579), wk =   0.0051982
        k(  227) = (   0.1111111   0.2777778   0.3157895), wk =   0.0051982
        k(  228) = (   0.1111111   0.2777778   0.3684211), wk =   0.0051982
        k(  229) = (   0.1111111   0.2777778   0.4210526), wk =   0.0051982
        k(  230) = (   0.1111111   0.2777778   0.4736842), wk =   0.0051982
        k(  231) = (   0.1111111   0.3333333   0.0000000), wk =   0.0025991
        k(  232) = (   0.1111111   0.3333333   0.0526316), wk =   0.0051982
        k(  233) = (   0.1111111   0.3333333   0.1052632), wk =   0.0051982
        k(  234) = (   0.1111111   0.3333333   0.1578947), wk =   0.0051982
        k(  235) = (   0.1111111   0.3333333   0.2105263), wk =   0.0051982
        k(  236) = (   0.1111111   0.3333333   0.2631579), wk =   0.0051982
        k(  237) = (   0.1111111   0.3333333   0.3157895), wk =   0.0051982
        k(  238) = (   0.1111111   0.3333333   0.3684211), wk =   0.0051982
        k(  239) = (   0.1111111   0.3333333   0.4210526), wk =   0.0051982
        k(  240) = (   0.1111111   0.3333333   0.4736842), wk =   0.0051982
        k(  241) = (   0.1111111   0.3888889   0.0000000), wk =   0.0025991
        k(  242) = (   0.1111111   0.3888889   0.0526316), wk =   0.0051982
        k(  243) = (   0.1111111   0.3888889   0.1052632), wk =   0.0051982
        k(  244) = (   0.1111111   0.3888889   0.1578947), wk =   0.0051982
        k(  245) = (   0.1111111   0.3888889   0.2105263), wk =   0.0051982
        k(  246) = (   0.1111111   0.3888889   0.2631579), wk =   0.0051982
        k(  247) = (   0.1111111   0.3888889   0.3157895), wk =   0.0051982
        k(  248) = (   0.1111111   0.3888889   0.3684211), wk =   0.0051982
        k(  249) = (   0.1111111   0.3888889   0.4210526), wk =   0.0051982
        k(  250) = (   0.1111111   0.3888889   0.4736842), wk =   0.0051982
        k(  251) = (   0.1111111   0.4444444   0.0000000), wk =   0.0025991
        k(  252) = (   0.1111111   0.4444444   0.0526316), wk =   0.0051982
        k(  253) = (   0.1111111   0.4444444   0.1052632), wk =   0.0051982
        k(  254) = (   0.1111111   0.4444444   0.1578947), wk =   0.0051982
        k(  255) = (   0.1111111   0.4444444   0.2105263), wk =   0.0051982
        k(  256) = (   0.1111111   0.4444444   0.2631579), wk =   0.0051982
        k(  257) = (   0.1111111   0.4444444   0.3157895), wk =   0.0051982
        k(  258) = (   0.1111111   0.4444444   0.3684211), wk =   0.0051982
        k(  259) = (   0.1111111   0.4444444   0.4210526), wk =   0.0051982
        k(  260) = (   0.1111111   0.4444444   0.4736842), wk =   0.0051982
        k(  261) = (   0.1111111  -0.5000000   0.0000000), wk =   0.0012995
        k(  262) = (   0.1111111  -0.5000000   0.0526316), wk =   0.0025991
        k(  263) = (   0.1111111  -0.5000000   0.1052632), wk =   0.0025991
        k(  264) = (   0.1111111  -0.5000000   0.1578947), wk =   0.0025991
        k(  265) = (   0.1111111  -0.5000000   0.2105263), wk =   0.0025991
        k(  266) = (   0.1111111  -0.5000000   0.2631579), wk =   0.0025991
        k(  267) = (   0.1111111  -0.5000000   0.3157895), wk =   0.0025991
        k(  268) = (   0.1111111  -0.5000000   0.3684211), wk =   0.0025991
        k(  269) = (   0.1111111  -0.5000000   0.4210526), wk =   0.0025991
        k(  270) = (   0.1111111  -0.5000000   0.4736842), wk =   0.0025991
        k(  271) = (   0.1666667   0.1666667   0.0000000), wk =   0.0012995
        k(  272) = (   0.1666667   0.1666667   0.0526316), wk =   0.0025991
        k(  273) = (   0.1666667   0.1666667   0.1052632), wk =   0.0025991
        k(  274) = (   0.1666667   0.1666667   0.1578947), wk =   0.0025991
        k(  275) = (   0.1666667   0.1666667   0.2105263), wk =   0.0025991
        k(  276) = (   0.1666667   0.1666667   0.2631579), wk =   0.0025991
        k(  277) = (   0.1666667   0.1666667   0.3157895), wk =   0.0025991
        k(  278) = (   0.1666667   0.1666667   0.3684211), wk =   0.0025991
        k(  279) = (   0.1666667   0.1666667   0.4210526), wk =   0.0025991
        k(  280) = (   0.1666667   0.1666667   0.4736842), wk =   0.0025991
        k(  281) = (   0.1666667   0.2222222   0.0000000), wk =   0.0025991
        k(  282) = (   0.1666667   0.2222222   0.0526316), wk =   0.0051982
        k(  283) = (   0.1666667   0.2222222   0.1052632), wk =   0.0051982
        k(  284) = (   0.1666667   0.2222222   0.1578947), wk =   0.0051982
        k(  285) = (   0.1666667   0.2222222   0.2105263), wk =   0.0051982
        k(  286) = (   0.1666667   0.2222222   0.2631579), wk =   0.0051982
        k(  287) = (   0.1666667   0.2222222   0.3157895), wk =   0.0051982
        k(  288) = (   0.1666667   0.2222222   0.3684211), wk =   0.0051982
        k(  289) = (   0.1666667   0.2222222   0.4210526), wk =   0.0051982
        k(  290) = (   0.1666667   0.2222222   0.4736842), wk =   0.0051982
        k(  291) = (   0.1666667   0.2777778   0.0000000), wk =   0.0025991
        k(  292) = (   0.1666667   0.2777778   0.0526316), wk =   0.0051982
        k(  293) = (   0.1666667   0.2777778   0.1052632), wk =   0.0051982
        k(  294) = (   0.1666667   0.2777778   0.1578947), wk =   0.0051982
        k(  295) = (   0.1666667   0.2777778   0.2105263), wk =   0.0051982
        k(  296) = (   0.1666667   0.2777778   0.2631579), wk =   0.0051982
        k(  297) = (   0.1666667   0.2777778   0.3157895), wk =   0.0051982
        k(  298) = (   0.1666667   0.2777778   0.3684211), wk =   0.0051982
        k(  299) = (   0.1666667   0.2777778   0.4210526), wk =   0.0051982
        k(  300) = (   0.1666667   0.2777778   0.4736842), wk =   0.0051982
        k(  301) = (   0.1666667   0.3333333   0.0000000), wk =   0.0025991
        k(  302) = (   0.1666667   0.3333333   0.0526316), wk =   0.0051982
        k(  303) = (   0.1666667   0.3333333   0.1052632), wk =   0.0051982
        k(  304) = (   0.1666667   0.3333333   0.1578947), wk =   0.0051982
        k(  305) = (   0.1666667   0.3333333   0.2105263), wk =   0.0051982
        k(  306) = (   0.1666667   0.3333333   0.2631579), wk =   0.0051982
        k(  307) = (   0.1666667   0.3333333   0.3157895), wk =   0.0051982
        k(  308) = (   0.1666667   0.3333333   0.3684211), wk =   0.0051982
        k(  309) = (   0.1666667   0.3333333   0.4210526), wk =   0.0051982
        k(  310) = (   0.1666667   0.3333333   0.4736842), wk =   0.0051982
        k(  311) = (   0.1666667   0.3888889   0.0000000), wk =   0.0025991
        k(  312) = (   0.1666667   0.3888889   0.0526316), wk =   0.0051982
        k(  313) = (   0.1666667   0.3888889   0.1052632), wk =   0.0051982
        k(  314) = (   0.1666667   0.3888889   0.1578947), wk =   0.0051982
        k(  315) = (   0.1666667   0.3888889   0.2105263), wk =   0.0051982
        k(  316) = (   0.1666667   0.3888889   0.2631579), wk =   0.0051982
        k(  317) = (   0.1666667   0.3888889   0.3157895), wk =   0.0051982
        k(  318) = (   0.1666667   0.3888889   0.3684211), wk =   0.0051982
        k(  319) = (   0.1666667   0.3888889   0.4210526), wk =   0.0051982
        k(  320) = (   0.1666667   0.3888889   0.4736842), wk =   0.0051982
        k(  321) = (   0.1666667   0.4444444   0.0000000), wk =   0.0025991
        k(  322) = (   0.1666667   0.4444444   0.0526316), wk =   0.0051982
        k(  323) = (   0.1666667   0.4444444   0.1052632), wk =   0.0051982
        k(  324) = (   0.1666667   0.4444444   0.1578947), wk =   0.0051982
        k(  325) = (   0.1666667   0.4444444   0.2105263), wk =   0.0051982
        k(  326) = (   0.1666667   0.4444444   0.2631579), wk =   0.0051982
        k(  327) = (   0.1666667   0.4444444   0.3157895), wk =   0.0051982
        k(  328) = (   0.1666667   0.4444444   0.3684211), wk =   0.0051982
        k(  329) = (   0.1666667   0.4444444   0.4210526), wk =   0.0051982
        k(  330) = (   0.1666667   0.4444444   0.4736842), wk =   0.0051982
        k(  331) = (   0.1666667  -0.5000000   0.0000000), wk =   0.0012995
        k(  332) = (   0.1666667  -0.5000000   0.0526316), wk =   0.0025991
        k(  333) = (   0.1666667  -0.5000000   0.1052632), wk =   0.0025991
        k(  334) = (   0.1666667  -0.5000000   0.1578947), wk =   0.0025991
        k(  335) = (   0.1666667  -0.5000000   0.2105263), wk =   0.0025991
        k(  336) = (   0.1666667  -0.5000000   0.2631579), wk =   0.0025991
        k(  337) = (   0.1666667  -0.5000000   0.3157895), wk =   0.0025991
        k(  338) = (   0.1666667  -0.5000000   0.3684211), wk =   0.0025991
        k(  339) = (   0.1666667  -0.5000000   0.4210526), wk =   0.0025991
        k(  340) = (   0.1666667  -0.5000000   0.4736842), wk =   0.0025991
        k(  341) = (   0.2222222   0.2222222   0.0000000), wk =   0.0012995
        k(  342) = (   0.2222222   0.2222222   0.0526316), wk =   0.0025991
        k(  343) = (   0.2222222   0.2222222   0.1052632), wk =   0.0025991
        k(  344) = (   0.2222222   0.2222222   0.1578947), wk =   0.0025991
        k(  345) = (   0.2222222   0.2222222   0.2105263), wk =   0.0025991
        k(  346) = (   0.2222222   0.2222222   0.2631579), wk =   0.0025991
        k(  347) = (   0.2222222   0.2222222   0.3157895), wk =   0.0025991
        k(  348) = (   0.2222222   0.2222222   0.3684211), wk =   0.0025991
        k(  349) = (   0.2222222   0.2222222   0.4210526), wk =   0.0025991
        k(  350) = (   0.2222222   0.2222222   0.4736842), wk =   0.0025991
        k(  351) = (   0.2222222   0.2777778   0.0000000), wk =   0.0025991
        k(  352) = (   0.2222222   0.2777778   0.0526316), wk =   0.0051982
        k(  353) = (   0.2222222   0.2777778   0.1052632), wk =   0.0051982
        k(  354) = (   0.2222222   0.2777778   0.1578947), wk =   0.0051982
        k(  355) = (   0.2222222   0.2777778   0.2105263), wk =   0.0051982
        k(  356) = (   0.2222222   0.2777778   0.2631579), wk =   0.0051982
        k(  357) = (   0.2222222   0.2777778   0.3157895), wk =   0.0051982
        k(  358) = (   0.2222222   0.2777778   0.3684211), wk =   0.0051982
[...]
    12.6904  12.8396

     occupation numbers 
     1.0000   1.0000   1.0000   1.0000   0.0006   0.0000   0.0000   0.0000
     0.0000   0.0000

          k = 0.3889 0.3889 0.0570 (   871 PWs)   bands (ev):

    -0.2249   1.7412   1.7412   3.6777   8.6110  10.4532  10.4532  11.4981
    12.2919  13.2844

     occupation numbers 
     1.0000   1.0000   1.0000   1.0000   1.0679   0.0000   0.0000   0.0000
     0.0000   0.0000

          k = 0.3889 0.3889 0.1141 (   877 PWs)   bands (ev):

    -0.1380   1.8268   1.8268   3.7607   7.8176   9.6734   9.6734  11.5250
    12.4340  14.1501

     occupation numbers 
     1.0000   1.0000   1.0000   1.0000   1.0000   0.0000   0.0000   0.0000
     0.0000   0.0000

          k = 0.3889 0.3889 0.1711 (   873 PWs)   bands (ev):

     0.0068   1.9693   1.9693   3.8980   6.9729   8.8383   8.8383  10.7001
    13.5158  14.9698

     occupation numbers 
     1.0000   1.0000   1.0000   1.0000   1.0000   0.1419   0.1419   0.0000
     0.0000   0.0000

          k = 0.3889 0.3889 0.2281 (   876 PWs)   bands (ev):

     0.2092   2.1684   2.1684   4.0863   6.1507   8.0192   8.0192   9.8894
    14.6698  15.3865

     occupation numbers 
     1.0000   1.0000   1.0000   1.0000   1.0000   1.0000   1.0000   0.0000
     0.0000   0.0000

          k = 0.3889 0.3889 0.2851 (   870 PWs)   bands (ev):

     0.4691   2.4236   2.4236   4.3101   5.3864   7.2369   7.2369   9.1143
    15.6711  15.6714

     occupation numbers 
     1.0000   1.0000   1.0000   1.0000   1.0000   1.0000   1.0000   0.0000
     0.0000   0.0000

          k = 0.3889 0.3889 0.3422 (   869 PWs)   bands (ev):

     0.7859   2.7340   2.7340   4.3729   4.8842   6.5002   6.5002   8.3831
    15.9709  15.9710

     occupation numbers 
     1.0000   1.0000   1.0000   1.0000   1.0000   1.0000   1.0000   1.0027
     0.0000   0.0000

          k = 0.3889 0.3889 0.3992 (   868 PWs)   bands (ev):

     1.1592   3.0978   3.0978   3.8231   5.0992   5.8146   5.8146   7.7000
    16.3066  16.3067

     occupation numbers 
     1.0000   1.0000   1.0000   1.0000   1.0000   1.0000   1.0000   1.0000
     0.0000   0.0000

          k = 0.3889 0.3889 0.4562 (   867 PWs)   bands (ev):

     1.5884   3.1973   3.5092   3.5092   5.1878   5.1878   5.4967   7.0678
    16.6754  16.6754

     occupation numbers 
     1.0000   1.0000   1.0000   1.0000   1.0000   1.0000   1.0000   1.0000
     0.0000   0.0000

          k = 0.3889 0.3889 0.5132 (   868 PWs)   bands (ev):

     2.0725   2.6099   3.9312   3.9312   4.6579   4.6579   5.9634   6.4882
    17.0337  17.0338

     occupation numbers 
     1.0000   1.0000   1.0000   1.0000   1.0000   1.0000   1.0000   1.0000
     0.0000   0.0000

          k = 0.3889 0.4444 0.0000 (   875 PWs)   bands (ev):

     0.1583   1.1424   2.1190   3.0886   9.4128  10.3289  11.2442  11.4221
    12.1580  12.3332

     occupation numbers 
     1.0000   1.0000   1.0000   1.0000   0.0000   0.0000   0.0000   0.0000
     0.0000   0.0000

          k = 0.3889 0.4444 0.0570 (   880 PWs)   bands (ev):

     0.1872   1.1710   2.1475   3.1166   8.9958   9.9174  10.8381  11.7577
    11.8860  12.7872

     occupation numbers 
     1.0000   1.0000   1.0000   1.0000   0.0020   0.0000   0.0000   0.0000
     0.0000   0.0000

          k = 0.3889 0.4444 0.1141 (   874 PWs)   bands (ev):

     0.2739   1.2571   2.2327   3.2007   8.2053   9.1340  10.0616  10.9879
    12.8166  13.6936

     occupation numbers 
     1.0000   1.0000   1.0000   1.0000   1.0000   0.0000   0.0000   0.0000
     0.0000   0.0000

          k = 0.3889 0.4444 0.1711 (   873 PWs)   bands (ev):

     0.4183   1.4003   2.3746   3.3404   7.3616   8.2956   9.2286  10.1600
    13.8918  14.7090

     occupation numbers 
     1.0000   1.0000   1.0000   1.0000   1.0000   1.0001   0.0000   0.0000
     0.0000   0.0000

          k = 0.3889 0.4444 0.2281 (   875 PWs)   bands (ev):

     0.6201   1.6005   2.5727   3.5343   6.5368   7.4737   8.4109   9.3467
    15.0340  15.5707

     occupation numbers 
     1.0000   1.0000   1.0000   1.0000   1.0000   1.0000   1.0060   0.0000
     0.0000   0.0000

          k = 0.3889 0.4444 0.2851 (   872 PWs)   bands (ev):

     0.8791   1.8573   2.8262   3.7788   5.7547   6.6893   7.6297   8.5692
    15.9842  16.1904

     occupation numbers 
     1.0000   1.0000   1.0000   1.0000   1.0000   1.0000   1.0000   1.0820
     0.0000   0.0000

          k = 0.3889 0.4444 0.3422 (   867 PWs)   bands (ev):

     1.1949   2.1701   3.1336   4.0552   5.0418   5.9521   6.8933   7.8359
    16.3044  16.9254

     occupation numbers 
     1.0000   1.0000   1.0000   1.0000   1.0000   1.0000   1.0000   1.0000
     0.0000   0.0000

          k = 0.3889 0.4444 0.3992 (   870 PWs)   bands (ev):

     1.5668   2.5378   3.4899   4.1133   4.6520   5.2705   6.2066   7.1510
    16.6483  17.2889

     occupation numbers 
     1.0000   1.0000   1.0000   1.0000   1.0000   1.0000   1.0000   1.0000
     0.0000   0.0000

          k = 0.3889 0.4444 0.4562 (   873 PWs)   bands (ev):

     1.9942   2.9584   3.5826   3.8664   4.6752   4.9575   5.5736   6.5174
    17.0298  17.6730

     occupation numbers 
     1.0000   1.0000   1.0000   1.0000   1.0000   1.0000   1.0000   1.0000
     0.0000   0.0000

          k = 0.3889 0.4444 0.5132 (   873 PWs)   bands (ev):

     2.4757   3.0083   3.4252   3.8901   4.5403   5.0020   5.4142   5.9373
    17.4446  17.8488

     occupation numbers 
     1.0000   1.0000   1.0000   1.0000   1.0000   1.0000   1.0000   1.0000
     0.0000   0.0000

          k = 0.3889-0.5000 0.0000 (   880 PWs)   bands (ev):

     0.6240   0.6240   2.5779   2.5779   9.8454   9.8455  11.6758  11.6759
    11.8577  11.8578

     occupation numbers 
     1.0000   1.0000   1.0000   1.0000   0.0000   0.0000   0.0000   0.0000
     0.0000   0.0000

          k = 0.3889-0.5000 0.0570 (   872 PWs)   bands (ev):

     0.6528   0.6528   2.6062   2.6062   9.4314   9.4314  11.2729  11.2730
    12.3172  12.3173

     occupation numbers 
     1.0000   1.0000   1.0000   1.0000   0.0000   0.0000   0.0000   0.0000
     0.0000   0.0000

          k = 0.3889-0.5000 0.1141 (   868 PWs)   bands (ev):

     0.7392   0.7392   2.6910   2.6910   8.6444   8.6444  10.4999  10.4999
    13.2393  13.2394

     occupation numbers 
     1.0000   1.0000   1.0000   1.0000   1.0068   1.0067   0.0000   0.0000
     0.0000   0.0000

          k = 0.3889-0.5000 0.1711 (   874 PWs)   bands (ev):

     0.8830   0.8830   2.8320   2.8320   7.8029   7.8029   9.6693   9.6693
    14.2990  14.2990

     occupation numbers 
     1.0000   1.0000   1.0000   1.0000   1.0000   1.0000   0.0000   0.0000
     0.0000   0.0000

          k = 0.3889-0.5000 0.2281 (   872 PWs)   bands (ev):

     1.0841   1.0841   3.0285   3.0285   6.9789   6.9789   8.8536   8.8537
    15.3947  15.3948

     occupation numbers 
     1.0000   1.0000   1.0000   1.0000   1.0000   1.0000   0.1050   0.1049
     0.0000   0.0000

          k = 0.3889-0.5000 0.2851 (   874 PWs)   bands (ev):

     1.3421   1.3421   3.2792   3.2792   6.1939   6.1940   8.0740   8.0741
    16.2484  16.2486

     occupation numbers 
     1.0000   1.0000   1.0000   1.0000   1.0000   1.0000   1.0000   1.0000
     0.0000   0.0000

          k = 0.3889-0.5000 0.3422 (   872 PWs)   bands (ev):

     1.6565   1.6566   3.5798   3.5798   5.4600   5.4601   7.3389   7.3389
    16.6428  16.6428

     occupation numbers 
     1.0000   1.0000   1.0000   1.0000   1.0000   1.0000   1.0000   1.0000
     0.0000   0.0000

          k = 0.3889-0.5000 0.3992 (   868 PWs)   bands (ev):

     2.0268   2.0268   3.9074   3.9075   4.8038   4.8039   6.6527   6.6528
    16.9959  16.9960

     occupation numbers 
     1.0000   1.0000   1.0000   1.0000   1.0000   1.0000   1.0000   1.0000
     0.0000   0.0000

          k = 0.3889-0.5000 0.4562 (   866 PWs)   bands (ev):

     2.4516   2.4516   3.9515   3.9516   4.5376   4.5377   6.0185   6.0186
    17.3818  17.3819

     occupation numbers 
     1.0000   1.0000   1.0000   1.0000   1.0000   1.0000   1.0000   1.0000
     0.0000   0.0000

          k = 0.3889-0.5000 0.5132 (   872 PWs)   bands (ev):

     2.9285   2.9286   3.4497   3.4498   4.9250   4.9251   5.4398   5.4399
    17.8071  17.8072

     occupation numbers 
     1.0000   1.0000   1.0000   1.0000   1.0000   1.0000   1.0000   1.0000
     0.0000   0.0000

          k = 0.4444 0.4444 0.0000 (   874 PWs)   bands (ev):

     0.5694   1.5505   1.5505   2.5245   9.7946  10.7103  10.7103  11.6250
    11.8178  12.7396

     occupation numbers 
     1.0000   1.0000   1.0000   1.0000   0.0000   0.0000   0.0000   0.0000
     0.0000   0.0000

          k = 0.4444 0.4444 0.0570 (   872 PWs)   bands (ev):

     0.5982   1.5791   1.5791   2.5528   9.3807  10.3023  10.3023  11.2227
    12.2784  13.1924

     occupation numbers 
     1.0000   1.0000   1.0000   1.0000   0.0000   0.0000   0.0000   0.0000
     0.0000   0.0000

          k = 0.4444 0.4444 0.1141 (   874 PWs)   bands (ev):

     0.6846   1.6648   1.6648   2.6376   8.5935   9.5223   9.5223  10.4497
    13.2056  14.1051

     occupation numbers 
     1.0000   1.0000   1.0000   1.0000   1.0806   0.0000   0.0000   0.0000
     0.0000   0.0000

          k = 0.4444 0.4444 0.1711 (   873 PWs)   bands (ev):

     0.8285   1.8075   1.8075   2.7786   7.7516   8.6860   8.6860   9.6189
    14.2792  15.1557

     occupation numbers 
     1.0000   1.0000   1.0000   1.0000   1.0000   0.8554   0.8554   0.0000
     0.0000   0.0000

          k = 0.4444 0.4444 0.2281 (   873 PWs)   bands (ev):

     1.0297   2.0069   2.0069   2.9753   6.9270   7.8655   7.8655   8.8029
    15.4238  16.2449

     occupation numbers 
     1.0000   1.0000   1.0000   1.0000   1.0000   1.0000   1.0000   0.2608
     0.0000   0.0000

          k = 0.4444 0.4444 0.2851 (   872 PWs)   bands (ev):

     1.2878   2.2625   2.2625   3.2261   6.1416   7.0819   7.0819   8.0229
    16.6122  17.1020

     occupation numbers 
     1.0000   1.0000   1.0000   1.0000   1.0000   1.0000   1.0000   1.0000
     0.0000   0.0000

          k = 0.4444 0.4444 0.3422 (   873 PWs)   bands (ev):

     1.6024   2.5734   2.5734   3.5269   5.4073   6.3440   6.3440   7.2874
    17.4802  17.4805

     occupation numbers 
     1.0000   1.0000   1.0000   1.0000   1.0000   1.0000   1.0000   1.0000
     0.0000   0.0000

          k = 0.4444 0.4444 0.3992 (   872 PWs)   bands (ev):

     1.9728   2.9377   2.9378   3.8549   4.7505   5.6572   5.6572   6.6009
    17.8228  17.8228

     occupation numbers 
     1.0000   1.0000   1.0000   1.0000   1.0000   1.0000   1.0000   1.0000
     0.0000   0.0000

          k = 0.4444 0.4444 0.4562 (   867 PWs)   bands (ev):

     2.3978   3.3500   3.3500   3.8990   4.4842   5.0293   5.0293   5.9664
    18.1941  18.1941

     occupation numbers 
     1.0000   1.0000   1.0000   1.0000   1.0000   1.0000   1.0000   1.0000
     0.0000   0.0000

          k = 0.4444 0.4444 0.5132 (   867 PWs)   bands (ev):

     2.8750   3.3966   3.7734   3.7734   4.4978   4.4978   4.8723   5.3874
    18.5720  18.5722

     occupation numbers 
     1.0000   1.0000   1.0000   1.0000   1.0000   1.0000   1.0000   1.0000
     0.0000   0.0000

          k = 0.4444-0.5000 0.0000 (   866 PWs)   bands (ev):

     1.0337   1.0337   2.0115   2.0115  10.2271  10.2271  11.1423  11.1424
    12.2576  12.2576

     occupation numbers 
     1.0000   1.0000   1.0000   1.0000   0.0000   0.0000   0.0000   0.0000
     0.0000   0.0000

          k = 0.4444-0.5000 0.0570 (   864 PWs)   bands (ev):

     1.0624   1.0624   2.0399   2.0400   9.8163   9.8164  10.7374  10.7375
    12.7145  12.7145

     occupation numbers 
     1.0000   1.0000   1.0000   1.0000   0.0000   0.0000   0.0000   0.0000
     0.0000   0.0000

          k = 0.4444-0.5000 0.1141 (   874 PWs)   bands (ev):

     1.1485   1.1485   2.1253   2.1253   9.0327   9.0327   9.9610   9.9610
    13.6358  13.6359

     occupation numbers 
     1.0000   1.0000   1.0000   1.0000   0.0005   0.0005   0.0000   0.0000
     0.0000   0.0000

          k = 0.4444-0.5000 0.1711 (   876 PWs)   bands (ev):

     1.2919   1.2919   2.2673   2.2673   8.1933   8.1934   9.1273   9.1273
    14.7020  14.7020

     occupation numbers 
     1.0000   1.0000   1.0000   1.0000   1.0000   1.0000   0.0000   0.0000
     0.0000   0.0000

          k = 0.4444-0.5000 0.2281 (   880 PWs)   bands (ev):

     1.4922   1.4922   2.4655   2.4655   7.3705   7.3705   8.3088   8.3089
    15.8338  15.8339

     occupation numbers 
     1.0000   1.0000   1.0000   1.0000   1.0000   1.0000   1.0002   1.0002
     0.0000   0.0000

          k = 0.4444-0.5000 0.2851 (   880 PWs)   bands (ev):

     1.7492   1.7492   2.7193   2.7193   6.5853   6.5853   7.5268   7.5268
    16.9808  16.9809

     occupation numbers 
     1.0000   1.0000   1.0000   1.0000   1.0000   1.0000   1.0000   1.0000
     0.0000   0.0000

          k = 0.4444-0.5000 0.3422 (   876 PWs)   bands (ev):

     2.0623   2.0623   3.0270   3.0271   5.8472   5.8472   6.7897   6.7897
    17.7067  17.7068

     occupation numbers 
     1.0000   1.0000   1.0000   1.0000   1.0000   1.0000   1.0000   1.0000
     0.0000   0.0000

          k = 0.4444-0.5000 0.3992 (   870 PWs)   bands (ev):

     2.4304   2.4304   3.3838   3.3839   5.1647   5.1648   6.1023   6.1023
    18.0609  18.0610

     occupation numbers 
     1.0000   1.0000   1.0000   1.0000   1.0000   1.0000   1.0000   1.0000
     0.0000   0.0000

          k = 0.4444-0.5000 0.4562 (   864 PWs)   bands (ev):

     2.8515   2.8515   3.7611   3.7612   4.5684   4.5685   5.4686   5.4686
    18.4392  18.4393

     occupation numbers 
     1.0000   1.0000   1.0000   1.0000   1.0000   1.0000   1.0000   1.0000
     0.0000   0.0000

          k = 0.4444-0.5000 0.5132 (   870 PWs)   bands (ev):

     3.3188   3.3189   3.7848   3.7850   4.4333   4.4335   4.8962   4.8963
    18.8561  18.8562

     occupation numbers 
     1.0000   1.0000   1.0000   1.0000   1.0000   1.0000   1.0000   1.0000
     0.0000   0.0000

          k =-0.5000-0.5000 0.0000 (   848 PWs)   bands (ev):

     1.4964   1.4964   1.4964   1.4965  10.6594  10.6594  10.6595  10.6595
    12.7002  12.7002

     occupation numbers 
     1.0000   1.0000   1.0000   1.0000   0.0000   0.0000   0.0000   0.0000
     0.0000   0.0000

          k =-0.5000-0.5000 0.0570 (   864 PWs)   bands (ev):

     1.5250   1.5250   1.5250   1.5251  10.2517  10.2518  10.2518  10.2519
    13.1538  13.1538

     occupation numbers 
     1.0000   1.0000   1.0000   1.0000   0.0000   0.0000   0.0000   0.0000
     0.0000   0.0000

          k =-0.5000-0.5000 0.1141 (   880 PWs)   bands (ev):

     1.6108   1.6108   1.6108   1.6108   9.4717   9.4718   9.4718   9.4718
    14.0711  14.0711

     occupation numbers 
     1.0000   1.0000   1.0000   1.0000   0.0000   0.0000   0.0000   0.0000
     0.0000   0.0000

          k =-0.5000-0.5000 0.1711 (   880 PWs)   bands (ev):

     1.7535   1.7535   1.7535   1.7536   8.6350   8.6350   8.6350   8.6351
    15.1339  15.1339

     occupation numbers 
     1.0000   1.0000   1.0000   1.0000   1.0293   1.0292   1.0292   1.0291
     0.0000   0.0000

          k =-0.5000-0.5000 0.2281 (   880 PWs)   bands (ev):

     1.9530   1.9530   1.9530   1.9530   7.8141   7.8141   7.8141   7.8142
    16.2648  16.2649

     occupation numbers 
     1.0000   1.0000   1.0000   1.0000   1.0000   1.0000   1.0000   1.0000
     0.0000   0.0000

          k =-0.5000-0.5000 0.2851 (   872 PWs)   bands (ev):

     2.2087   2.2087   2.2087   2.2087   7.0301   7.0301   7.0301   7.0302
    17.4326  17.4327

     occupation numbers 
     1.0000   1.0000   1.0000   1.0000   1.0000   1.0000   1.0000   1.0000
     0.0000   0.0000

          k =-0.5000-0.5000 0.3422 (   880 PWs)   bands (ev):

     2.5197   2.5197   2.5197   2.5198   6.2917   6.2918   6.2918   6.2918
    18.4783  18.4785

     occupation numbers 
     1.0000   1.0000   1.0000   1.0000   1.0000   1.0000   1.0000   1.0000
     0.0000   0.0000

          k =-0.5000-0.5000 0.3992 (   864 PWs)   bands (ev):

     2.8843   2.8843   2.8843   2.8844   5.6047   5.6047   5.6047   5.6047
    18.8020  18.8021

     occupation numbers 
     1.0000   1.0000   1.0000   1.0000   1.0000   1.0000   1.0000   1.0000
     0.0000   0.0000

          k =-0.5000-0.5000 0.4562 (   856 PWs)   bands (ev):

     3.2968   3.2968   3.2968   3.2969   4.9763   4.9764   4.9764   4.9764
    19.1734  19.1736

     occupation numbers 
     1.0000   1.0000   1.0000   1.0000   1.0000   1.0000   1.0000   1.0000
     0.0000   0.0000

          k =-0.5000-0.5000 0.5132 (   880 PWs)   bands (ev):

     3.7207   3.7208   3.7208   3.7209   4.4441   4.4442   4.4442   4.4443
    19.5791  19.5794

     occupation numbers 
     1.0000   1.0000   1.0000   1.0000   1.0000   1.0000   1.0000   1.0000
     0.0000   0.0000

     the Fermi energy is     8.7722 ev

!    total energy              =     -26.81821634 Ry
     Harris-Foulkes estimate   =     -26.81821636 Ry
     estimated scf accuracy    <       0.00000004 Ry

     The total energy is the sum of the following terms:

     one-electron contribution =      12.71371181 Ry
     hartree contribution      =       0.03589195 Ry
     xc contribution           =     -17.35775340 Ry
     ewald contribution        =     -22.21011142 Ry
     smearing contrib. (-TS)   =       0.00004472 Ry

     convergence has been achieved in   5 iterations
 
     init_run     :    117.11s CPU      5.12s WALL (       1 calls)
     electrons    :   1396.78s CPU     59.42s WALL (       1 calls)

     Called by init_run:
     wfcinit      :    116.88s CPU      4.97s WALL (       1 calls)
     wfcinit:atom :      2.49s CPU      0.11s WALL (     550 calls)
     wfcinit:wfcr :    103.84s CPU      4.41s WALL (     550 calls)
     potinit      :      0.04s CPU      0.01s WALL (       1 calls)

     Called by electrons:
     c_bands      :   1199.78s CPU     51.03s WALL (       6 calls)
     sum_band     :    194.97s CPU      8.30s WALL (       6 calls)
     v_of_rho     :      0.68s CPU      0.03s WALL (       6 calls)
     v_h          :      0.03s CPU      0.00s WALL (       6 calls)
     v_xc         :      0.65s CPU      0.03s WALL (       6 calls)
     newd         :      0.65s CPU      0.04s WALL (       6 calls)
     mix_rho      :      0.12s CPU      0.01s WALL (       6 calls)

     Called by c_bands:
     init_us_2    :     42.59s CPU      1.81s WALL (    7150 calls)
     cegterg      :   1085.42s CPU     46.13s WALL (    3300 calls)

     Called by sum_band:
     sum_band:bec :      1.05s CPU      0.05s WALL (    3300 calls)
     addusdens    :      0.84s CPU      0.04s WALL (       6 calls)

     Called by *egterg:
     h_psi        :   1033.61s CPU     43.95s WALL (   11526 calls)
     s_psi        :      8.77s CPU      0.38s WALL (   11526 calls)
     g_psi        :      4.78s CPU      0.21s WALL (    7676 calls)
     cdiaghg      :     54.31s CPU      2.36s WALL (   10426 calls)
     cegterg:over :     14.41s CPU      0.62s WALL (    7676 calls)
     cegterg:upda :     14.72s CPU      0.65s WALL (    7676 calls)
     cegterg:last :      5.83s CPU      0.26s WALL (    3302 calls)

     Called by h_psi:
     h_psi:pot    :   1023.97s CPU     43.51s WALL (   11526 calls)
     h_psi:calbec :     35.59s CPU      1.51s WALL (   11526 calls)
     vloc_psi     :    964.66s CPU     41.01s WALL (   11526 calls)
     add_vuspsi   :     14.96s CPU      0.65s WALL (   11526 calls)

     General routines
     calbec       :     37.73s CPU      1.68s WALL (   14826 calls)
     fft          :      0.27s CPU      0.02s WALL (      80 calls)
     fftw         :    921.74s CPU     39.31s WALL (  216086 calls)
 
     Parallel routines
 
     PWSCF        : 25m14.16s CPU     1m 4.65s WALL

 
   This run was terminated on:  17:29:23  24Jan2019            

=------------------------------------------------------------------------------=
   JOB DONE.
=------------------------------------------------------------------------------=
