
     Program PWSCF v.6.2 (svn rev. 14038) starts on 24Jan2019 at 17: 1:36 

     This program is part of the open-source Quantum ESPRESSO suite
     for quantum simulation of materials; please cite
         "P. Giannozzi et al., J. Phys.:Condens. Matter 21 395502 (2009);
         "P. Giannozzi et al., J. Phys.:Condens. Matter 29 465901 (2017);
          URL http://www.quantum-espresso.org", 
     in publications or presentations arising from this work. More details at
     http://www.quantum-espresso.org/quote

     Parallel version (MPI), running on     1 processors

     MPI processes distributed on     1 nodes
     Reading input from ./AlfccSEPNEG0DOT10790802798390359.in
Warning: card &IONS ignored
Warning: card / ignored
Warning: card &CELL ignored
Warning: card / ignored

     Current dimensions of program PWSCF are:
     Max number of different atomic species (ntypx) = 10
     Max number of k-points (npk) =  40000
     Max angular momentum in pseudopotentials (lmaxx) =  3
     Message from routine iosys:
     minimal I/O required, wf_collect reset to FALSE

     Subspace diagonalization in iterative solution of the eigenvalue problem:
     a serial algorithm will be used

     Found symmetry operation: I + ( -0.5000 -0.5000  0.0000)
     This is a supercell, fractional translations are disabled
 
     G-vector sticks info
     --------------------
     sticks:   dense  smooth     PW     G-vecs:    dense   smooth      PW
     Sum         465     465    145                 6717     6717    1261
 


     bravais-lattice index     =            0
     lattice parameter (alat)  =       7.6325  a.u.
     unit-cell volume          =     396.6479 (a.u.)^3
     number of atoms/cell      =            4
     number of atomic types    =            1
     number of electrons       =        12.00
     number of Kohn-Sham states=           10
     kinetic-energy cutoff     =      25.0000  Ry
     charge density cutoff     =     100.0000  Ry
     convergence threshold     =      1.0E-07
     mixing beta               =       0.7000
     number of iterations used =            8  plain     mixing
     Exchange-correlation      = SLA  PW   PBE  PBE ( 1  4  3  4 0 0)

     celldm(1)=   7.632472  celldm(2)=   0.000000  celldm(3)=   0.000000
     celldm(4)=   0.000000  celldm(5)=   0.000000  celldm(6)=   0.000000

     crystal axes: (cart. coord. in units of alat)
               a(1) = (   1.000000   0.000000   0.000000 )  
               a(2) = (   0.000000   1.000000   0.000000 )  
               a(3) = (   0.000000   0.000000   0.892092 )  

     reciprocal axes: (cart. coord. in units 2 pi/alat)
               b(1) = (  1.000000  0.000000  0.000000 )  
               b(2) = (  0.000000  1.000000  0.000000 )  
               b(3) = (  0.000000  0.000000  1.120961 )  


     PseudoPot. # 1 for Al read from file:
     ./al_pbe_v1.uspp.F.UPF
     MD5 check sum: 0a6289f5291fc8f409219462bc851e1f
     Pseudo is Ultrasoft + core correction, Zval =  3.0
     Generated by new atomic code, or converted to UPF format
     Using radial grid of  893 points,  3 beta functions with: 
                l(1) =   0
                l(2) =   1
                l(3) =   2
     Q(r) pseudized with  8 coefficients,  rinner =    0.900   0.900   0.900
                                                       0.900   0.900

     atomic species   valence    mass     pseudopotential
        Al             3.00    26.98150     Al( 1.00)

     16 Sym. Ops., with inversion, found


                                    s                        frac. trans.

      isym =  1     identity                                     

 cryst.   s( 1) = (     1          0          0      )
                  (     0          1          0      )
                  (     0          0          1      )

 cart.    s( 1) = (  1.0000000  0.0000000  0.0000000 )
                  (  0.0000000  1.0000000  0.0000000 )
                  (  0.0000000  0.0000000  1.0000000 )


      isym =  2     180 deg rotation - cart. axis [0,0,1]        

 cryst.   s( 2) = (    -1          0          0      )
                  (     0         -1          0      )
                  (     0          0          1      )

 cart.    s( 2) = ( -1.0000000  0.0000000  0.0000000 )
                  (  0.0000000 -1.0000000  0.0000000 )
                  (  0.0000000  0.0000000  1.0000000 )


      isym =  3     180 deg rotation - cart. axis [0,1,0]        

 cryst.   s( 3) = (    -1          0          0      )
                  (     0          1          0      )
                  (     0          0         -1      )

 cart.    s( 3) = ( -1.0000000  0.0000000  0.0000000 )
                  (  0.0000000  1.0000000  0.0000000 )
                  (  0.0000000  0.0000000 -1.0000000 )


      isym =  4     180 deg rotation - cart. axis [1,0,0]        

 cryst.   s( 4) = (     1          0          0      )
                  (     0         -1          0      )
                  (     0          0         -1      )

 cart.    s( 4) = (  1.0000000  0.0000000  0.0000000 )
                  (  0.0000000 -1.0000000  0.0000000 )
                  (  0.0000000  0.0000000 -1.0000000 )


      isym =  5     180 deg rotation - cart. axis [1,1,0]        

 cryst.   s( 5) = (     0          1          0      )
                  (     1          0          0      )
                  (     0          0         -1      )

 cart.    s( 5) = (  0.0000000  1.0000000  0.0000000 )
                  (  1.0000000  0.0000000  0.0000000 )
                  (  0.0000000  0.0000000 -1.0000000 )


      isym =  6     180 deg rotation - cart. axis [1,-1,0]       

 cryst.   s( 6) = (     0         -1          0      )
                  (    -1          0          0      )
                  (     0          0         -1      )

 cart.    s( 6) = (  0.0000000 -1.0000000  0.0000000 )
                  ( -1.0000000  0.0000000  0.0000000 )
                  (  0.0000000  0.0000000 -1.0000000 )


      isym =  7      90 deg rotation - cart. axis [0,0,-1]       

 cryst.   s( 7) = (     0         -1          0      )
                  (     1          0          0      )
                  (     0          0          1      )

 cart.    s( 7) = (  0.0000000  1.0000000  0.0000000 )
                  ( -1.0000000  0.0000000  0.0000000 )
                  (  0.0000000  0.0000000  1.0000000 )


      isym =  8      90 deg rotation - cart. axis [0,0,1]        

 cryst.   s( 8) = (     0          1          0      )
                  (    -1          0          0      )
                  (     0          0          1      )

 cart.    s( 8) = (  0.0000000 -1.0000000  0.0000000 )
                  (  1.0000000  0.0000000  0.0000000 )
                  (  0.0000000  0.0000000  1.0000000 )


      isym =  9     inversion                                    

 cryst.   s( 9) = (    -1          0          0      )
                  (     0         -1          0      )
                  (     0          0         -1      )

 cart.    s( 9) = ( -1.0000000  0.0000000  0.0000000 )
                  (  0.0000000 -1.0000000  0.0000000 )
                  (  0.0000000  0.0000000 -1.0000000 )


      isym = 10     inv. 180 deg rotation - cart. axis [0,0,1]   

 cryst.   s(10) = (     1          0          0      )
                  (     0          1          0      )
                  (     0          0         -1      )

 cart.    s(10) = (  1.0000000  0.0000000  0.0000000 )
                  (  0.0000000  1.0000000  0.0000000 )
                  (  0.0000000  0.0000000 -1.0000000 )


      isym = 11     inv. 180 deg rotation - cart. axis [0,1,0]   

 cryst.   s(11) = (     1          0          0      )
                  (     0         -1          0      )
                  (     0          0          1      )

 cart.    s(11) = (  1.0000000  0.0000000  0.0000000 )
                  (  0.0000000 -1.0000000  0.0000000 )
                  (  0.0000000  0.0000000  1.0000000 )


      isym = 12     inv. 180 deg rotation - cart. axis [1,0,0]   

 cryst.   s(12) = (    -1          0          0      )
                  (     0          1          0      )
                  (     0          0          1      )

 cart.    s(12) = ( -1.0000000  0.0000000  0.0000000 )
                  (  0.0000000  1.0000000  0.0000000 )
                  (  0.0000000  0.0000000  1.0000000 )


      isym = 13     inv. 180 deg rotation - cart. axis [1,1,0]   

 cryst.   s(13) = (     0         -1          0      )
                  (    -1          0          0      )
                  (     0          0          1      )

 cart.    s(13) = (  0.0000000 -1.0000000  0.0000000 )
                  ( -1.0000000  0.0000000  0.0000000 )
                  (  0.0000000  0.0000000  1.0000000 )


      isym = 14     inv. 180 deg rotation - cart. axis [1,-1,0]  

 cryst.   s(14) = (     0          1          0      )
                  (     1          0          0      )
                  (     0          0          1      )

 cart.    s(14) = (  0.0000000  1.0000000  0.0000000 )
                  (  1.0000000  0.0000000  0.0000000 )
                  (  0.0000000  0.0000000  1.0000000 )


      isym = 15     inv.  90 deg rotation - cart. axis [0,0,-1]  

 cryst.   s(15) = (     0          1          0      )
                  (    -1          0          0      )
                  (     0          0         -1      )

 cart.    s(15) = (  0.0000000 -1.0000000  0.0000000 )
                  (  1.0000000  0.0000000  0.0000000 )
                  (  0.0000000  0.0000000 -1.0000000 )


      isym = 16     inv.  90 deg rotation - cart. axis [0,0,1]   

 cryst.   s(16) = (     0         -1          0      )
                  (     1          0          0      )
                  (     0          0         -1      )

 cart.    s(16) = (  0.0000000  1.0000000  0.0000000 )
                  ( -1.0000000  0.0000000  0.0000000 )
                  (  0.0000000  0.0000000 -1.0000000 )


   Cartesian axes

     site n.     atom                  positions (alat units)
         1           Al  tau(   1) = (   0.0000000   0.0000000   0.0000000  )
         2           Al  tau(   2) = (   0.5000000   0.5000000   0.0000000  )
         3           Al  tau(   3) = (   0.5000000   0.0000000   0.4460460  )
         4           Al  tau(   4) = (   0.0000000   0.5000000   0.4460460  )

   Crystallographic axes

     site n.     atom                  positions (cryst. coord.)
         1           Al  tau(   1) = (  0.0000000  0.0000000  0.0000000  )
         2           Al  tau(   2) = (  0.5000000  0.5000000  0.0000000  )
         3           Al  tau(   3) = (  0.5000000  0.0000000  0.5000000  )
         4           Al  tau(   4) = (  0.0000000  0.5000000  0.5000000  )

     number of k points=   605  Marzari-Vanderbilt smearing, width (Ry)=  0.0100
                       cart. coord. in units 2pi/alat
        k(    1) = (   0.0000000   0.0000000   0.0000000), wk =   0.0003086
        k(    2) = (   0.0000000   0.0000000   0.0560480), wk =   0.0006173
        k(    3) = (   0.0000000   0.0000000   0.1120961), wk =   0.0006173
        k(    4) = (   0.0000000   0.0000000   0.1681441), wk =   0.0006173
        k(    5) = (   0.0000000   0.0000000   0.2241921), wk =   0.0006173
        k(    6) = (   0.0000000   0.0000000   0.2802402), wk =   0.0006173
        k(    7) = (   0.0000000   0.0000000   0.3362882), wk =   0.0006173
        k(    8) = (   0.0000000   0.0000000   0.3923362), wk =   0.0006173
        k(    9) = (   0.0000000   0.0000000   0.4483843), wk =   0.0006173
        k(   10) = (   0.0000000   0.0000000   0.5044323), wk =   0.0006173
        k(   11) = (   0.0000000   0.0000000  -0.5604803), wk =   0.0003086
        k(   12) = (   0.0000000   0.0555556   0.0000000), wk =   0.0012346
        k(   13) = (   0.0000000   0.0555556   0.0560480), wk =   0.0024691
        k(   14) = (   0.0000000   0.0555556   0.1120961), wk =   0.0024691
        k(   15) = (   0.0000000   0.0555556   0.1681441), wk =   0.0024691
        k(   16) = (   0.0000000   0.0555556   0.2241921), wk =   0.0024691
        k(   17) = (   0.0000000   0.0555556   0.2802402), wk =   0.0024691
        k(   18) = (   0.0000000   0.0555556   0.3362882), wk =   0.0024691
        k(   19) = (   0.0000000   0.0555556   0.3923362), wk =   0.0024691
        k(   20) = (   0.0000000   0.0555556   0.4483843), wk =   0.0024691
        k(   21) = (   0.0000000   0.0555556   0.5044323), wk =   0.0024691
        k(   22) = (   0.0000000   0.0555556  -0.5604803), wk =   0.0012346
        k(   23) = (   0.0000000   0.1111111   0.0000000), wk =   0.0012346
        k(   24) = (   0.0000000   0.1111111   0.0560480), wk =   0.0024691
        k(   25) = (   0.0000000   0.1111111   0.1120961), wk =   0.0024691
        k(   26) = (   0.0000000   0.1111111   0.1681441), wk =   0.0024691
        k(   27) = (   0.0000000   0.1111111   0.2241921), wk =   0.0024691
        k(   28) = (   0.0000000   0.1111111   0.2802402), wk =   0.0024691
        k(   29) = (   0.0000000   0.1111111   0.3362882), wk =   0.0024691
        k(   30) = (   0.0000000   0.1111111   0.3923362), wk =   0.0024691
        k(   31) = (   0.0000000   0.1111111   0.4483843), wk =   0.0024691
        k(   32) = (   0.0000000   0.1111111   0.5044323), wk =   0.0024691
        k(   33) = (   0.0000000   0.1111111  -0.5604803), wk =   0.0012346
        k(   34) = (   0.0000000   0.1666667   0.0000000), wk =   0.0012346
        k(   35) = (   0.0000000   0.1666667   0.0560480), wk =   0.0024691
        k(   36) = (   0.0000000   0.1666667   0.1120961), wk =   0.0024691
        k(   37) = (   0.0000000   0.1666667   0.1681441), wk =   0.0024691
        k(   38) = (   0.0000000   0.1666667   0.2241921), wk =   0.0024691
        k(   39) = (   0.0000000   0.1666667   0.2802402), wk =   0.0024691
        k(   40) = (   0.0000000   0.1666667   0.3362882), wk =   0.0024691
        k(   41) = (   0.0000000   0.1666667   0.3923362), wk =   0.0024691
        k(   42) = (   0.0000000   0.1666667   0.4483843), wk =   0.0024691
        k(   43) = (   0.0000000   0.1666667   0.5044323), wk =   0.0024691
        k(   44) = (   0.0000000   0.1666667  -0.5604803), wk =   0.0012346
        k(   45) = (   0.0000000   0.2222222   0.0000000), wk =   0.0012346
        k(   46) = (   0.0000000   0.2222222   0.0560480), wk =   0.0024691
        k(   47) = (   0.0000000   0.2222222   0.1120961), wk =   0.0024691
        k(   48) = (   0.0000000   0.2222222   0.1681441), wk =   0.0024691
        k(   49) = (   0.0000000   0.2222222   0.2241921), wk =   0.0024691
        k(   50) = (   0.0000000   0.2222222   0.2802402), wk =   0.0024691
        k(   51) = (   0.0000000   0.2222222   0.3362882), wk =   0.0024691
        k(   52) = (   0.0000000   0.2222222   0.3923362), wk =   0.0024691
        k(   53) = (   0.0000000   0.2222222   0.4483843), wk =   0.0024691
        k(   54) = (   0.0000000   0.2222222   0.5044323), wk =   0.0024691
        k(   55) = (   0.0000000   0.2222222  -0.5604803), wk =   0.0012346
        k(   56) = (   0.0000000   0.2777778   0.0000000), wk =   0.0012346
        k(   57) = (   0.0000000   0.2777778   0.0560480), wk =   0.0024691
        k(   58) = (   0.0000000   0.2777778   0.1120961), wk =   0.0024691
        k(   59) = (   0.0000000   0.2777778   0.1681441), wk =   0.0024691
        k(   60) = (   0.0000000   0.2777778   0.2241921), wk =   0.0024691
        k(   61) = (   0.0000000   0.2777778   0.2802402), wk =   0.0024691
        k(   62) = (   0.0000000   0.2777778   0.3362882), wk =   0.0024691
        k(   63) = (   0.0000000   0.2777778   0.3923362), wk =   0.0024691
        k(   64) = (   0.0000000   0.2777778   0.4483843), wk =   0.0024691
        k(   65) = (   0.0000000   0.2777778   0.5044323), wk =   0.0024691
        k(   66) = (   0.0000000   0.2777778  -0.5604803), wk =   0.0012346
        k(   67) = (   0.0000000   0.3333333   0.0000000), wk =   0.0012346
        k(   68) = (   0.0000000   0.3333333   0.0560480), wk =   0.0024691
        k(   69) = (   0.0000000   0.3333333   0.1120961), wk =   0.0024691
        k(   70) = (   0.0000000   0.3333333   0.1681441), wk =   0.0024691
        k(   71) = (   0.0000000   0.3333333   0.2241921), wk =   0.0024691
        k(   72) = (   0.0000000   0.3333333   0.2802402), wk =   0.0024691
        k(   73) = (   0.0000000   0.3333333   0.3362882), wk =   0.0024691
        k(   74) = (   0.0000000   0.3333333   0.3923362), wk =   0.0024691
        k(   75) = (   0.0000000   0.3333333   0.4483843), wk =   0.0024691
        k(   76) = (   0.0000000   0.3333333   0.5044323), wk =   0.0024691
        k(   77) = (   0.0000000   0.3333333  -0.5604803), wk =   0.0012346
        k(   78) = (   0.0000000   0.3888889   0.0000000), wk =   0.0012346
        k(   79) = (   0.0000000   0.3888889   0.0560480), wk =   0.0024691
        k(   80) = (   0.0000000   0.3888889   0.1120961), wk =   0.0024691
        k(   81) = (   0.0000000   0.3888889   0.1681441), wk =   0.0024691
        k(   82) = (   0.0000000   0.3888889   0.2241921), wk =   0.0024691
        k(   83) = (   0.0000000   0.3888889   0.2802402), wk =   0.0024691
        k(   84) = (   0.0000000   0.3888889   0.3362882), wk =   0.0024691
        k(   85) = (   0.0000000   0.3888889   0.3923362), wk =   0.0024691
        k(   86) = (   0.0000000   0.3888889   0.4483843), wk =   0.0024691
        k(   87) = (   0.0000000   0.3888889   0.5044323), wk =   0.0024691
        k(   88) = (   0.0000000   0.3888889  -0.5604803), wk =   0.0012346
        k(   89) = (   0.0000000   0.4444444   0.0000000), wk =   0.0012346
        k(   90) = (   0.0000000   0.4444444   0.0560480), wk =   0.0024691
        k(   91) = (   0.0000000   0.4444444   0.1120961), wk =   0.0024691
        k(   92) = (   0.0000000   0.4444444   0.1681441), wk =   0.0024691
        k(   93) = (   0.0000000   0.4444444   0.2241921), wk =   0.0024691
        k(   94) = (   0.0000000   0.4444444   0.2802402), wk =   0.0024691
        k(   95) = (   0.0000000   0.4444444   0.3362882), wk =   0.0024691
        k(   96) = (   0.0000000   0.4444444   0.3923362), wk =   0.0024691
        k(   97) = (   0.0000000   0.4444444   0.4483843), wk =   0.0024691
        k(   98) = (   0.0000000   0.4444444   0.5044323), wk =   0.0024691
        k(   99) = (   0.0000000   0.4444444  -0.5604803), wk =   0.0012346
        k(  100) = (   0.0000000  -0.5000000   0.0000000), wk =   0.0006173
        k(  101) = (   0.0000000  -0.5000000   0.0560480), wk =   0.0012346
        k(  102) = (   0.0000000  -0.5000000   0.1120961), wk =   0.0012346
        k(  103) = (   0.0000000  -0.5000000   0.1681441), wk =   0.0012346
        k(  104) = (   0.0000000  -0.5000000   0.2241921), wk =   0.0012346
        k(  105) = (   0.0000000  -0.5000000   0.2802402), wk =   0.0012346
        k(  106) = (   0.0000000  -0.5000000   0.3362882), wk =   0.0012346
        k(  107) = (   0.0000000  -0.5000000   0.3923362), wk =   0.0012346
        k(  108) = (   0.0000000  -0.5000000   0.4483843), wk =   0.0012346
        k(  109) = (   0.0000000  -0.5000000   0.5044323), wk =   0.0012346
        k(  110) = (   0.0000000  -0.5000000  -0.5604803), wk =   0.0006173
        k(  111) = (   0.0555556   0.0555556   0.0000000), wk =   0.0012346
        k(  112) = (   0.0555556   0.0555556   0.0560480), wk =   0.0024691
        k(  113) = (   0.0555556   0.0555556   0.1120961), wk =   0.0024691
        k(  114) = (   0.0555556   0.0555556   0.1681441), wk =   0.0024691
        k(  115) = (   0.0555556   0.0555556   0.2241921), wk =   0.0024691
        k(  116) = (   0.0555556   0.0555556   0.2802402), wk =   0.0024691
        k(  117) = (   0.0555556   0.0555556   0.3362882), wk =   0.0024691
        k(  118) = (   0.0555556   0.0555556   0.3923362), wk =   0.0024691
        k(  119) = (   0.0555556   0.0555556   0.4483843), wk =   0.0024691
        k(  120) = (   0.0555556   0.0555556   0.5044323), wk =   0.0024691
        k(  121) = (   0.0555556   0.0555556  -0.5604803), wk =   0.0012346
        k(  122) = (   0.0555556   0.1111111   0.0000000), wk =   0.0024691
        k(  123) = (   0.0555556   0.1111111   0.0560480), wk =   0.0049383
        k(  124) = (   0.0555556   0.1111111   0.1120961), wk =   0.0049383
        k(  125) = (   0.0555556   0.1111111   0.1681441), wk =   0.0049383
        k(  126) = (   0.0555556   0.1111111   0.2241921), wk =   0.0049383
        k(  127) = (   0.0555556   0.1111111   0.2802402), wk =   0.0049383
        k(  128) = (   0.0555556   0.1111111   0.3362882), wk =   0.0049383
        k(  129) = (   0.0555556   0.1111111   0.3923362), wk =   0.0049383
        k(  130) = (   0.0555556   0.1111111   0.4483843), wk =   0.0049383
        k(  131) = (   0.0555556   0.1111111   0.5044323), wk =   0.0049383
        k(  132) = (   0.0555556   0.1111111  -0.5604803), wk =   0.0024691
        k(  133) = (   0.0555556   0.1666667   0.0000000), wk =   0.0024691
        k(  134) = (   0.0555556   0.1666667   0.0560480), wk =   0.0049383
        k(  135) = (   0.0555556   0.1666667   0.1120961), wk =   0.0049383
        k(  136) = (   0.0555556   0.1666667   0.1681441), wk =   0.0049383
        k(  137) = (   0.0555556   0.1666667   0.2241921), wk =   0.0049383
        k(  138) = (   0.0555556   0.1666667   0.2802402), wk =   0.0049383
        k(  139) = (   0.0555556   0.1666667   0.3362882), wk =   0.0049383
        k(  140) = (   0.0555556   0.1666667   0.3923362), wk =   0.0049383
        k(  141) = (   0.0555556   0.1666667   0.4483843), wk =   0.0049383
        k(  142) = (   0.0555556   0.1666667   0.5044323), wk =   0.0049383
        k(  143) = (   0.0555556   0.1666667  -0.5604803), wk =   0.0024691
        k(  144) = (   0.0555556   0.2222222   0.0000000), wk =   0.0024691
        k(  145) = (   0.0555556   0.2222222   0.0560480), wk =   0.0049383
        k(  146) = (   0.0555556   0.2222222   0.1120961), wk =   0.0049383
        k(  147) = (   0.0555556   0.2222222   0.1681441), wk =   0.0049383
        k(  148) = (   0.0555556   0.2222222   0.2241921), wk =   0.0049383
        k(  149) = (   0.0555556   0.2222222   0.2802402), wk =   0.0049383
        k(  150) = (   0.0555556   0.2222222   0.3362882), wk =   0.0049383
        k(  151) = (   0.0555556   0.2222222   0.3923362), wk =   0.0049383
        k(  152) = (   0.0555556   0.2222222   0.4483843), wk =   0.0049383
        k(  153) = (   0.0555556   0.2222222   0.5044323), wk =   0.0049383
        k(  154) = (   0.0555556   0.2222222  -0.5604803), wk =   0.0024691
        k(  155) = (   0.0555556   0.2777778   0.0000000), wk =   0.0024691
        k(  156) = (   0.0555556   0.2777778   0.0560480), wk =   0.0049383
        k(  157) = (   0.0555556   0.2777778   0.1120961), wk =   0.0049383
        k(  158) = (   0.0555556   0.2777778   0.1681441), wk =   0.0049383
        k(  159) = (   0.0555556   0.2777778   0.2241921), wk =   0.0049383
        k(  160) = (   0.0555556   0.2777778   0.2802402), wk =   0.0049383
        k(  161) = (   0.0555556   0.2777778   0.3362882), wk =   0.0049383
        k(  162) = (   0.0555556   0.2777778   0.3923362), wk =   0.0049383
        k(  163) = (   0.0555556   0.2777778   0.4483843), wk =   0.0049383
        k(  164) = (   0.0555556   0.2777778   0.5044323), wk =   0.0049383
        k(  165) = (   0.0555556   0.2777778  -0.5604803), wk =   0.0024691
        k(  166) = (   0.0555556   0.3333333   0.0000000), wk =   0.0024691
        k(  167) = (   0.0555556   0.3333333   0.0560480), wk =   0.0049383
        k(  168) = (   0.0555556   0.3333333   0.1120961), wk =   0.0049383
        k(  169) = (   0.0555556   0.3333333   0.1681441), wk =   0.0049383
        k(  170) = (   0.0555556   0.3333333   0.2241921), wk =   0.0049383
        k(  171) = (   0.0555556   0.3333333   0.2802402), wk =   0.0049383
        k(  172) = (   0.0555556   0.3333333   0.3362882), wk =   0.0049383
        k(  173) = (   0.0555556   0.3333333   0.3923362), wk =   0.0049383
        k(  174) = (   0.0555556   0.3333333   0.4483843), wk =   0.0049383
        k(  175) = (   0.0555556   0.3333333   0.5044323), wk =   0.0049383
        k(  176) = (   0.0555556   0.3333333  -0.5604803), wk =   0.0024691
        k(  177) = (   0.0555556   0.3888889   0.0000000), wk =   0.0024691
        k(  178) = (   0.0555556   0.3888889   0.0560480), wk =   0.0049383
        k(  179) = (   0.0555556   0.3888889   0.1120961), wk =   0.0049383
        k(  180) = (   0.0555556   0.3888889   0.1681441), wk =   0.0049383
        k(  181) = (   0.0555556   0.3888889   0.2241921), wk =   0.0049383
        k(  182) = (   0.0555556   0.3888889   0.2802402), wk =   0.0049383
        k(  183) = (   0.0555556   0.3888889   0.3362882), wk =   0.0049383
        k(  184) = (   0.0555556   0.3888889   0.3923362), wk =   0.0049383
        k(  185) = (   0.0555556   0.3888889   0.4483843), wk =   0.0049383
        k(  186) = (   0.0555556   0.3888889   0.5044323), wk =   0.0049383
        k(  187) = (   0.0555556   0.3888889  -0.5604803), wk =   0.0024691
        k(  188) = (   0.0555556   0.4444444   0.0000000), wk =   0.0024691
        k(  189) = (   0.0555556   0.4444444   0.0560480), wk =   0.0049383
        k(  190) = (   0.0555556   0.4444444   0.1120961), wk =   0.0049383
        k(  191) = (   0.0555556   0.4444444   0.1681441), wk =   0.0049383
        k(  192) = (   0.0555556   0.4444444   0.2241921), wk =   0.0049383
        k(  193) = (   0.0555556   0.4444444   0.2802402), wk =   0.0049383
        k(  194) = (   0.0555556   0.4444444   0.3362882), wk =   0.0049383
        k(  195) = (   0.0555556   0.4444444   0.3923362), wk =   0.0049383
        k(  196) = (   0.0555556   0.4444444   0.4483843), wk =   0.0049383
        k(  197) = (   0.0555556   0.4444444   0.5044323), wk =   0.0049383
        k(  198) = (   0.0555556   0.4444444  -0.5604803), wk =   0.0024691
        k(  199) = (   0.0555556  -0.5000000   0.0000000), wk =   0.0012346
        k(  200) = (   0.0555556  -0.5000000   0.0560480), wk =   0.0024691
        k(  201) = (   0.0555556  -0.5000000   0.1120961), wk =   0.0024691
        k(  202) = (   0.0555556  -0.5000000   0.1681441), wk =   0.0024691
        k(  203) = (   0.0555556  -0.5000000   0.2241921), wk =   0.0024691
        k(  204) = (   0.0555556  -0.5000000   0.2802402), wk =   0.0024691
        k(  205) = (   0.0555556  -0.5000000   0.3362882), wk =   0.0024691
        k(  206) = (   0.0555556  -0.5000000   0.3923362), wk =   0.0024691
        k(  207) = (   0.0555556  -0.5000000   0.4483843), wk =   0.0024691
        k(  208) = (   0.0555556  -0.5000000   0.5044323), wk =   0.0024691
        k(  209) = (   0.0555556  -0.5000000  -0.5604803), wk =   0.0012346
        k(  210) = (   0.1111111   0.1111111   0.0000000), wk =   0.0012346
        k(  211) = (   0.1111111   0.1111111   0.0560480), wk =   0.0024691
        k(  212) = (   0.1111111   0.1111111   0.1120961), wk =   0.0024691
        k(  213) = (   0.1111111   0.1111111   0.1681441), wk =   0.0024691
        k(  214) = (   0.1111111   0.1111111   0.2241921), wk =   0.0024691
        k(  215) = (   0.1111111   0.1111111   0.2802402), wk =   0.0024691
        k(  216) = (   0.1111111   0.1111111   0.3362882), wk =   0.0024691
        k(  217) = (   0.1111111   0.1111111   0.3923362), wk =   0.0024691
        k(  218) = (   0.1111111   0.1111111   0.4483843), wk =   0.0024691
        k(  219) = (   0.1111111   0.1111111   0.5044323), wk =   0.0024691
        k(  220) = (   0.1111111   0.1111111  -0.5604803), wk =   0.0012346
        k(  221) = (   0.1111111   0.1666667   0.0000000), wk =   0.0024691
        k(  222) = (   0.1111111   0.1666667   0.0560480), wk =   0.0049383
        k(  223) = (   0.1111111   0.1666667   0.1120961), wk =   0.0049383
        k(  224) = (   0.1111111   0.1666667   0.1681441), wk =   0.0049383
        k(  225) = (   0.1111111   0.1666667   0.2241921), wk =   0.0049383
        k(  226) = (   0.1111111   0.1666667   0.2802402), wk =   0.0049383
        k(  227) = (   0.1111111   0.1666667   0.3362882), wk =   0.0049383
        k(  228) = (   0.1111111   0.1666667   0.3923362), wk =   0.0049383
        k(  229) = (   0.1111111   0.1666667   0.4483843), wk =   0.0049383
        k(  230) = (   0.1111111   0.1666667   0.5044323), wk =   0.0049383
        k(  231) = (   0.1111111   0.1666667  -0.5604803), wk =   0.0024691
        k(  232) = (   0.1111111   0.2222222   0.0000000), wk =   0.0024691
        k(  233) = (   0.1111111   0.2222222   0.0560480), wk =   0.0049383
        k(  234) = (   0.1111111   0.2222222   0.1120961), wk =   0.0049383
        k(  235) = (   0.1111111   0.2222222   0.1681441), wk =   0.0049383
        k(  236) = (   0.1111111   0.2222222   0.2241921), wk =   0.0049383
        k(  237) = (   0.1111111   0.2222222   0.2802402), wk =   0.0049383
        k(  238) = (   0.1111111   0.2222222   0.3362882), wk =   0.0049383
        k(  239) = (   0.1111111   0.2222222   0.3923362), wk =   0.0049383
        k(  240) = (   0.1111111   0.2222222   0.4483843), wk =   0.0049383
        k(  241) = (   0.1111111   0.2222222   0.5044323), wk =   0.0049383
        k(  242) = (   0.1111111   0.2222222  -0.5604803), wk =   0.0024691
        k(  243) = (   0.1111111   0.2777778   0.0000000), wk =   0.0024691
        k(  244) = (   0.1111111   0.2777778   0.0560480), wk =   0.0049383
        k(  245) = (   0.1111111   0.2777778   0.1120961), wk =   0.0049383
        k(  246) = (   0.1111111   0.2777778   0.1681441), wk =   0.0049383
        k(  247) = (   0.1111111   0.2777778   0.2241921), wk =   0.0049383
        k(  248) = (   0.1111111   0.2777778   0.2802402), wk =   0.0049383
        k(  249) = (   0.1111111   0.2777778   0.3362882), wk =   0.0049383
        k(  250) = (   0.1111111   0.2777778   0.3923362), wk =   0.0049383
        k(  251) = (   0.1111111   0.2777778   0.4483843), wk =   0.0049383
        k(  252) = (   0.1111111   0.2777778   0.5044323), wk =   0.0049383
        k(  253) = (   0.1111111   0.2777778  -0.5604803), wk =   0.0024691
        k(  254) = (   0.1111111   0.3333333   0.0000000), wk =   0.0024691
        k(  255) = (   0.1111111   0.3333333   0.0560480), wk =   0.0049383
        k(  256) = (   0.1111111   0.3333333   0.1120961), wk =   0.0049383
        k(  257) = (   0.1111111   0.3333333   0.1681441), wk =   0.0049383
        k(  258) = (   0.1111111   0.3333333   0.2241921), wk =   0.0049383
        k(  259) = (   0.1111111   0.3333333   0.2802402), wk =   0.0049383
        k(  260) = (   0.1111111   0.3333333   0.3362882), wk =   0.0049383
        k(  261) = (   0.1111111   0.3333333   0.3923362), wk =   0.0049383
        k(  262) = (   0.1111111   0.3333333   0.4483843), wk =   0.0049383
        k(  263) = (   0.1111111   0.3333333   0.5044323), wk =   0.0049383
        k(  264) = (   0.1111111   0.3333333  -0.5604803), wk =   0.0024691
        k(  265) = (   0.1111111   0.3888889   0.0000000), wk =   0.0024691
        k(  266) = (   0.1111111   0.3888889   0.0560480), wk =   0.0049383
        k(  267) = (   0.1111111   0.3888889   0.1120961), wk =   0.0049383
        k(  268) = (   0.1111111   0.3888889   0.1681441), wk =   0.0049383
        k(  269) = (   0.1111111   0.3888889   0.2241921), wk =   0.0049383
        k(  270) = (   0.1111111   0.3888889   0.2802402), wk =   0.0049383
        k(  271) = (   0.1111111   0.3888889   0.3362882), wk =   0.0049383
        k(  272) = (   0.1111111   0.3888889   0.3923362), wk =   0.0049383
        k(  273) = (   0.1111111   0.3888889   0.4483843), wk =   0.0049383
        k(  274) = (   0.1111111   0.3888889   0.5044323), wk =   0.0049383
        k(  275) = (   0.1111111   0.3888889  -0.5604803), wk =   0.0024691
        k(  276) = (   0.1111111   0.4444444   0.0000000), wk =   0.0024691
        k(  277) = (   0.1111111   0.4444444   0.0560480), wk =   0.0049383
        k(  278) = (   0.1111111   0.4444444   0.1120961), wk =   0.0049383
        k(  279) = (   0.1111111   0.4444444   0.1681441), wk =   0.0049383
        k(  280) = (   0.1111111   0.4444444   0.2241921), wk =   0.0049383
        k(  281) = (   0.1111111   0.4444444   0.2802402), wk =   0.0049383
        k(  282) = (   0.1111111   0.4444444   0.3362882), wk =   0.0049383
        k(  283) = (   0.1111111   0.4444444   0.3923362), wk =   0.0049383
        k(  284) = (   0.1111111   0.4444444   0.4483843), wk =   0.0049383
        k(  285) = (   0.1111111   0.4444444   0.5044323), wk =   0.0049383
        k(  286) = (   0.1111111   0.4444444  -0.5604803), wk =   0.0024691
        k(  287) = (   0.1111111  -0.5000000   0.0000000), wk =   0.0012346
        k(  288) = (   0.1111111  -0.5000000   0.0560480), wk =   0.0024691
        k(  289) = (   0.1111111  -0.5000000   0.1120961), wk =   0.0024691
        k(  290) = (   0.1111111  -0.5000000   0.1681441), wk =   0.0024691
        k(  291) = (   0.1111111  -0.5000000   0.2241921), wk =   0.0024691
        k(  292) = (   0.1111111  -0.5000000   0.2802402), wk =   0.0024691
        k(  293) = (   0.1111111  -0.5000000   0.3362882), wk =   0.0024691
        k(  294) = (   0.1111111  -0.5000000   0.3923362), wk =   0.0024691
        k(  295) = (   0.1111111  -0.5000000   0.4483843), wk =   0.0024691
        k(  296) = (   0.1111111  -0.5000000   0.5044323), wk =   0.0024691
        k(  297) = (   0.1111111  -0.5000000  -0.5604803), wk =   0.0012346
        k(  298) = (   0.1666667   0.1666667   0.0000000), wk =   0.0012346
        k(  299) = (   0.1666667   0.1666667   0.0560480), wk =   0.0024691
        k(  300) = (   0.1666667   0.1666667   0.1120961), wk =   0.0024691
        k(  301) = (   0.1666667   0.1666667   0.1681441), wk =   0.0024691
        k(  302) = (   0.1666667   0.1666667   0.2241921), wk =   0.0024691
        k(  303) = (   0.1666667   0.1666667   0.2802402), wk =   0.0024691
        k(  304) = (   0.1666667   0.1666667   0.3362882), wk =   0.0024691
        k(  305) = (   0.1666667   0.1666667   0.3923362), wk =   0.0024691
        k(  306) = (   0.1666667   0.1666667   0.4483843), wk =   0.0024691
        k(  307) = (   0.1666667   0.1666667   0.5044323), wk =   0.0024691
        k(  308) = (   0.1666667   0.1666667  -0.5604803), wk =   0.0012346
        k(  309) = (   0.1666667   0.2222222   0.0000000), wk =   0.0024691
        k(  310) = (   0.1666667   0.2222222   0.0560480), wk =   0.0049383
        k(  311) = (   0.1666667   0.2222222   0.1120961), wk =   0.0049383
        k(  312) = (   0.1666667   0.2222222   0.1681441), wk =   0.0049383
        k(  313) = (   0.1666667   0.2222222   0.2241921), wk =   0.0049383
        k(  314) = (   0.1666667   0.2222222   0.2802402), wk =   0.0049383
        k(  315) = (   0.1666667   0.2222222   0.3362882), wk =   0.0049383
        k(  316) = (   0.1666667   0.2222222   0.3923362), wk =   0.0049383
        k(  317) = (   0.1666667   0.2222222   0.4483843), wk =   0.0049383
        k(  318) = (   0.1666667   0.2222222   0.5044323), wk =   0.0049383
        k(  319) = (   0.1666667   0.2222222  -0.5604803), wk =   0.0024691
        k(  320) = (   0.1666667   0.2777778   0.0000000), wk =   0.0024691
        k(  321) = (   0.1666667   0.2777778   0.0560480), wk =   0.0049383
        k(  322) = (   0.1666667   0.2777778   0.1120961), wk =   0.0049383
        k(  323) = (   0.1666667   0.2777778   0.1681441), wk =   0.0049383
        k(  324) = (   0.1666667   0.2777778   0.2241921), wk =   0.0049383
        k(  325) = (   0.1666667   0.2777778   0.2802402), wk =   0.0049383
        k(  326) = (   0.1666667   0.2777778   0.3362882), wk =   0.0049383
        k(  327) = (   0.1666667   0.2777778   0.3923362), wk =   0.0049383
        k(  328) = (   0.1666667   0.2777778   0.4483843), wk =   0.0049383
        k(  329) = (   0.1666667   0.2777778   0.5044323), wk =   0.0049383
        k(  330) = (   0.1666667   0.2777778  -0.5604803), wk =   0.0024691
        k(  331) = (   0.1666667   0.3333333   0.0000000), wk =   0.0024691
        k(  332) = (   0.1666667   0.3333333   0.0560480), wk =   0.0049383
        k(  333) = (   0.1666667   0.3333333   0.1120961), wk =   0.0049383
        k(  334) = (   0.1666667   0.3333333   0.1681441), wk =   0.0049383
        k(  335) = (   0.1666667   0.3333333   0.2241921), wk =   0.0049383
        k(  336) = (   0.1666667   0.3333333   0.2802402), wk =   0.0049383
        k(  337) = (   0.1666667   0.3333333   0.3362882), wk =   0.0049383
        k(  338) = (   0.1666667   0.3333333   0.3923362), wk =   0.0049383
        k(  339) = (   0.1666667   0.3333333   0.4483843), wk =   0.0049383
        k(  340) = (   0.1666667   0.3333333   0.5044323), wk =   0.0049383
        k(  341) = (   0.1666667   0.3333333  -0.5604803), wk =   0.0024691
        k(  342) = (   0.1666667   0.3888889   0.0000000), wk =   0.0024691
        k(  343) = (   0.1666667   0.3888889   0.0560480), wk =   0.0049383
        k(  344) = (   0.1666667   0.3888889   0.1120961), wk =   0.0049383
        k(  345) = (   0.1666667   0.3888889   0.1681441), wk =   0.0049383
        k(  346) = (   0.1666667   0.3888889   0.2241921), wk =   0.0049383
        k(  347) = (   0.1666667   0.3888889   0.2802402), wk =   0.0049383
        k(  348) = (   0.1666667   0.3888889   0.3362882), wk =   0.0049383
        k(  349) = (   0.1666667   0.3888889   0.3923362), wk =   0.0049383
        k(  350) = (   0.1666667   0.3888889   0.4483843), wk =   0.0049383
        k(  351) = (   0.1666667   0.3888889   0.5044323), wk =   0.0049383
        k(  352) = (   0.1666667   0.3888889  -0.5604803), wk =   0.0024691
        k(  353) = (   0.1666667   0.4444444   0.0000000), wk =   0.0024691
        k(  354) = (   0.1666667   0.4444444   0.0560480), wk =   0.0049383
        k(  355) = (   0.1666667   0.4444444   0.1120961), wk =   0.0049383
        k(  356) = (   0.1666667   0.4444444   0.1681441), wk =   0.0049383
        k(  357) = (   0.1666667   0.4444444   0.2241921), wk =   0.0049383
        k(  358) = (   0.1666667   0.4444444   0.2802402), wk =   0.0049383
        k(  359) = (   0.1666667   0.4444444   0.3362882), wk =   0.0049383
        k(  360) = (   0.1666667   0.4444444   0.3923362), wk =   0.0049383
        k(  361) = (   0.1666667   0.4444444   0.4483843), wk =   0.0049383
        k(  362) = (   0.1666667   0.4444444   0.5044323), wk =   0.0049383
        k(  363) = (   0.1666667   0.4444444  -0.5604803), wk =   0.0024691
        k(  364) = (   0.1666667  -0.5000000   0.0000000), wk =   0.0012346
        k(  365) = (   0.1666667  -0.5000000   0.0560480), wk =   0.0024691
        k(  366) = (   0.1666667  -0.5000000   0.1120961), wk =   0.0024691
        k(  367) = (   0.1666667  -0.5000000   0.1681441), wk =   0.0024691
        k(  368) = (   0.1666667  -0.5000000   0.2241921), wk =   0.0024691
        k(  369) = (   0.1666667  -0.5000000   0.2802402), wk =   0.0024691
        k(  370) = (   0.1666667  -0.5000000   0.3362882), wk =   0.0024691
        k(  371) = (   0.1666667  -0.5000000   0.3923362), wk =   0.0024691
        k(  372) = (   0.1666667  -0.5000000   0.4483843), wk =   0.0024691
        k(  373) = (   0.1666667  -0.5000000   0.5044323), wk =   0.0024691
        k(  374) = (   0.1666667  -0.5000000  -0.5604803), wk =   0.0012346
        k(  375) = (   0.2222222   0.2222222   0.0000000), wk =   0.0012346
        k(  376) = (   0.2222222   0.2222222   0.0560480), wk =   0.0024691
        k(  377) = (   0.2222222   0.2222222   0.1120961), wk =   0.0024691
        k(  378) = (   0.2222222   0.2222222   0.1681441), wk =   0.0024691
        k(  379) = (   0.2222222   0.2222222   0.2241921), wk =   0.0024691
        k(  380) = (   0.2222222   0.2222222   0.2802402), wk =   0.0024691
        k(  381) = (   0.2222222   0.2222222   0.3362882), wk =   0.0024691
        k(  382) = (   0.2222222   0.2222222   0.3923362), wk =   0.0024691
        k(  383) = (   0.2222222   0.2222222   0.4483843), wk =   0.0024691
        k(  384) = (   0.2222222   0.2222222   0.5044323), wk =   0.0024691
        k(  385) = (   0.2222222   0.2222222  -0.5604803), wk =   0.0012346
        k(  386) = (   0.2222222   0.2777778   0.0000000), wk =   0.0024691
        k(  387) = (   0.2222222   0.2777778   0.0560480), wk =   0.0049383
        k(  388) = (   0.2222222   0.2777778   0.1120961), wk =   0.0049383
        k(  389) = (   0.2222222   0.2777778   0.1681441), wk =   0.0049383
        k(  390) = (   0.2222222   0.2777778   0.2241921), wk =   0.0049383
        k(  391) = (   0.2222222   0.2777778   0.2802402), wk =   0.0049383
        k(  392) = (   0.2222222   0.2777778   0.3362882), wk =   0.0049383
        k(  393) = (   0.2222222   0.2777778   0.3923362), wk =   0.0049383
        k(  394) = (   0.2222222   0.2777778   0.4483843), wk =   0.0049383
        k(  395) = (   0.2222222   0.2777778   0.5044323), wk =   0.0049383
        k(  396) = (   0.2222222   0.2777778  -0.5604803), wk =   0.0024691
        k(  397) = (   0.2222222   0.3333333   0.0000000), wk =   0.0024691
        k(  398) = (   0.2222222   0.3333333   0.0560480), wk =   0.0049383
        k(  399) = (   0.2222222   0.3333333   0.1120961), wk =   0.0049383
        k(  400) = (   0.2222222   0.3333333   0.1681441), wk =   0.0049383
        k(  401) = (   0.2222222   0.3333333   0.2241921), wk =   0.0049383
        k(  402) = (   0.2222222   0.3333333   0.2802402), wk =   0.0049383
        k(  403) = (   0.2222222   0.3333333   0.3362882), wk =   0.0049383
        k(  404) = (   0.2222222   0.3333333   0.3923362), wk =   0.0049383
        k(  405) = (   0.2222222   0.3333333   0.4483843), wk =   0.0049383
        k(  406) = (   0.2222222   0.3333333   0.5044323), wk =   0.0049383
        k(  407) = (   0.2222222   0.3333333  -0.5604803), wk =   0.0024691
        k(  408) = (   0.2222222   0.3888889   0.0000000), wk =   0.0024691
        k(  409) = (   0.2222222   0.3888889   0.0560480), wk =   0.0049383
        k(  410) = (   0.2222222   0.3888889   0.1120961), wk =   0.0049383
        k(  411) = (   0.2222222   0.3888889   0.1681441), wk =   0.0049383
        k(  412) = (   0.2222222   0.3888889   0.2241921), wk =   0.0049383
        k(  413) = (   0.2222222   0.3888889   0.2802402), wk =   0.0049383
        k(  414) = (   0.2222222   0.3888889   0.3362882), wk =   0.0049383
        k(  415) = (   0.2222222   0.3888889   0.3923362), wk =   0.0049383
        k(  416) = (   0.2222222   0.3888889   0.4483843), wk =   0.0049383
        k(  417) = (   0.2222222   0.3888889   0.5044323), wk =   0.0049383
        k(  418) = (   0.2222222   0.3888889  -0.5604803), wk =   0.0024691
        k(  419) = (   0.2222222   0.4444444   0.0000000), wk =   0.0024691
        k(  420) = (   0.2222222   0.4444444   0.0560480), wk =   0.0049383
        k(  421) = (   0.2222222   0.4444444   0.1120961), wk =   0.0049383
        k(  422) = (   0.2222222   0.4444444   0.1681441), wk =   0.0049383
        k(  423) = (   0.2222222   0.4444444   0.2241921), wk =   0.0049383
        k(  424) = (   0.2222222   0.4444444   0.2802402), wk =   0.0049383
        k(  425) = (   0.2222222   0.4444444   0.3362882), wk =   0.0049383
        k(  426) = (   0.2222222   0.4444444   0.3923362), wk =   0.0049383
        k(  427) = (   0.2222222   0.4444444   0.4483843), wk =   0.0049383
        k(  428) = (   0.2222222   0.4444444   0.5044323), wk =   0.0049383
        k(  429) = (   0.2222222   0.4444444  -0.5604803), wk =   0.0024691
        k(  430) = (   0.2222222  -0.5000000   0.0000000), wk =   0.0012346
        k(  431) = (   0.2222222  -0.5000000   0.0560480), wk =   0.0024691
        k(  432) = (   0.2222222  -0.5000000   0.1120961), wk =   0.0024691
        k(  433) = (   0.2222222  -0.5000000   0.1681441), wk =   0.0024691
        k(  434) = (   0.2222222  -0.5000000   0.2241921), wk =   0.0024691
        k(  435) = (   0.2222222  -0.5000000   0.2802402), wk =   0.0024691
        k(  436) = (   0.2222222  -0.5000000   0.3362882), wk =   0.0024691
        k(  437) = (   0.2222222  -0.5000000   0.3923362), wk =   0.0024691
        k(  438) = (   0.2222222  -0.5000000   0.4483843), wk =   0.0024691
        k(  439) = (   0.2222222  -0.5000000   0.5044323), wk =   0.0024691
        k(  440) = (   0.2222222  -0.5000000  -0.5604803), wk =   0.0012346
        k(  441) = (   0.2777778   0.2777778   0.0000000), wk =   0.0012346
        k(  442) = (   0.2777778   0.2777778   0.0560480), wk =   0.0024691
        k(  443) = (   0.2777778   0.2777778   0.1120961), wk =   0.0024691
        k(  444) = (   0.2777778   0.2777778   0.1681441), wk =   0.0024691
        k(  445) = (   0.2777778   0.2777778   0.2241921), wk =   0.0024691
        k(  446) = (   0.2777778   0.2777778   0.2802402), wk =   0.0024691
        k(  447) = (   0.2777778   0.2777778   0.3362882), wk =   0.0024691
        k(  448) = (   0.2777778   0.2777778   0.3923362), wk =   0.0024691
        k(  449) = (   0.2777778   0.2777778   0.4483843), wk =   0.0024691
        k(  450) = (   0.2777778   0.2777778   0.5044323), wk =   0.0024691
        k(  451) = (   0.2777778   0.2777778  -0.5604803), wk =   0.0012346
        k(  452) = (   0.2777778   0.3333333   0.0000000), wk =   0.0024691
        k(  453) = (   0.2777778   0.3333333   0.0560480), wk =   0.0049383
        k(  454) = (   0.2777778   0.3333333   0.1120961), wk =   0.0049383
        k(  455) = (   0.2777778   0.3333333   0.1681441), wk =   0.0049383
        k(  456) = (   0.2777778   0.3333333   0.2241921), wk =   0.0049383
        k(  457) = (   0.2777778   0.3333333   0.2802402), wk =   0.0049383
        k(  458) = (   0.2777778   0.3333333   0.3362882), wk =   0.0049383
        k(  459) = (   0.2777778   0.3333333   0.3923362), wk =   0.0049383
        k(  460) = (   0.2777778   0.3333333   0.4483843), wk =   0.0049383
        k(  461) = (   0.2777778   0.3333333   0.5044323), wk =   0.0049383
        k(  462) = (   0.2777778   0.3333333  -0.5604803), wk =   0.0024691
        k(  463) = (   0.2777778   0.3888889   0.0000000), wk =   0.0024691
        k(  464) = (   0.2777778   0.3888889   0.0560480), wk =   0.0049383
        k(  465) = (   0.2777778   0.3888889   0.1120961), wk =   0.0049383
        k(  466) = (   0.2777778   0.3888889   0.1681441), wk =   0.0049383
        k(  467) = (   0.2777778   0.3888889   0.2241921), wk =   0.0049383
        k(  468) = (   0.2777778   0.3888889   0.2802402), wk =   0.0049383
        k(  469) = (   0.2777778   0.3888889   0.3362882), wk =   0.0049383
        k(  470) = (   0.2777778   0.3888889   0.3923362), wk =   0.0049383
        k(  471) = (   0.2777778   0.3888889   0.4483843), wk =   0.0049383
        k(  472) = (   0.2777778   0.3888889   0.5044323), wk =   0.0049383
        k(  473) = (   0.2777778   0.3888889  -0.5604803), wk =   0.0024691
        k(  474) = (   0.2777778   0.4444444   0.0000000), wk =   0.0024691
        k(  475) = (   0.2777778   0.4444444   0.0560480), wk =   0.0049383
        k(  476) = (   0.2777778   0.4444444   0.1120961), wk =   0.0049383
        k(  477) = (   0.2777778   0.4444444   0.1681441), wk =   0.0049383
        k(  478) = (   0.2777778   0.4444444   0.2241921), wk =   0.0049383
        k(  479) = (   0.2777778   0.4444444   0.2802402), wk =   0.0049383
        k(  480) = (   0.2777778   0.4444444   0.3362882), wk =   0.0049383
        k(  481) = (   0.2777778   0.4444444   0.3923362), wk =   0.0049383
        k(  482) = (   0.2777778   0.4444444   0.4483843), wk =   0.0049383
        k(  483) = (   0.2777778   0.4444444   0.5044323), wk =   0.0049383
        k(  484) = (   0.2777778   0.4444444  -0.5604803), wk =   0.0024691
        k(  485) = (   0.2777778  -0.5000000   0.0000000), wk =   0.0012346
        k(  486) = (   0.2777778  -0.5000000   0.0560480), wk =   0.0024691
        k(  487) = (   0.2777778  -0.5000000   0.1120961), wk =   0.0024691
        k(  488) = (   0.2777778  -0.5000000   0.1681441), wk =   0.0024691
        k(  489) = (   0.2777778  -0.5000000   0.2241921), wk =   0.0024691
        k(  490) = (   0.2777778  -0.5000000   0.2802402), wk =   0.0024691
        k(  491) = (   0.2777778  -0.5000000   0.3362882), wk =   0.0024691
        k(  492) = (   0.2777778  -0.5000000   0.3923362), wk =   0.0024691
        k(  493) = (   0.2777778  -0.5000000   0.4483843), wk =   0.0024691
        k(  494) = (   0.2777778  -0.5000000   0.5044323), wk =   0.0024691
        k(  495) = (   0.2777778  -0.5000000  -0.5604803), wk =   0.0012346
        k(  496) = (   0.3333333   0.3333333   0.0000000), wk =   0.0012346
        k(  497) = (   0.3333333   0.3333333   0.0560480), wk =   0.0024691
        k(  498) = (   0.3333333   0.3333333   0.1120961), wk =   0.0024691
        k(  499) = (   0.3333333   0.3333333   0.1681441), wk =   0.0024691
        k(  500) = (   0.3333333   0.3333333   0.2241921), wk =   0.0024691
        k(  501) = (   0.3333333   0.3333333   0.2802402), wk =   0.0024691
        k(  502) = (   0.3333333   0.3333333   0.3362882), wk =   0.0024691
        k(  503) = (   0.3333333   0.3333333   0.3923362), wk =   0.0024691
        k(  504) = (   0.3333333   0.3333333   0.4483843), wk =   0.0024691
        k(  505) = (   0.3333333   0.3333333   0.5044323), wk =   0.0024691
        k(  506) = (   0.3333333   0.3333333  -0.5604803), wk =   0.0012346
        k(  507) = (   0.3333333   0.3888889   0.0000000), wk =   0.0024691
        k(  508) = (   0.3333333   0.3888889   0.0560480), wk =   0.0049383
        k(  509) = (   0.3333333   0.3888889   0.1120961), wk =   0.0049383
        k(  510) = (   0.3333333   0.3888889   0.1681441), wk =   0.0049383
        k(  511) = (   0.3333333   0.3888889   0.2241921), wk =   0.0049383
        k(  512) = (   0.3333333   0.3888889   0.2802402), wk =   0.0049383
        k(  513) = (   0.3333333   0.3888889   0.3362882), wk =   0.0049383
        k(  514) = (   0.3333333   0.3888889   0.3923362), wk =   0.0049383
        k(  515) = (   0.3333333   0.3888889   0.4483843), wk =   0.0049383
        k(  516) = (   0.3333333   0.3888889   0.5044323), wk =   0.0049383
        k(  517) = (   0.3333333   0.3888889  -0.5604803), wk =   0.0024691
        k(  518) = (   0.3333333   0.4444444   0.0000000), wk =   0.0024691
        k(  519) = (   0.3333333   0.4444444   0.0560480), wk =   0.0049383
        k(  520) = (   0.3333333   0.4444444   0.1120961), wk =   0.0049383
        k(  521) = (   0.3333333   0.4444444   0.1681441), wk =   0.0049383
        k(  522) = (   0.3333333   0.4444444   0.2241921), wk =   0.0049383
        k(  523) = (   0.3333333   0.4444444   0.2802402), wk =   0.0049383
        k(  524) = (   0.3333333   0.4444444   0.3362882), wk =   0.0049383
        k(  525) = (   0.3333333   0.4444444   0.3923362), wk =   0.0049383
        k(  526) = (   0.3333333   0.4444444   0.4483843), wk =   0.0049383
        k(  527) = (   0.3333333   0.4444444   0.5044323), wk =   0.0049383
        k(  528) = (   0.3333333   0.4444444  -0.5604803), wk =   0.0024691
        k(  529) = (   0.3333333  -0.5000000   0.0000000), wk =   0.0012346
        k(  530) = (   0.3333333  -0.5000000   0.0560480), wk =   0.0024691
        k(  531) = (   0.3333333  -0.5000000   0.1120961), wk =   0.0024691
        k(  532) = (   0.3333333  -0.5000000   0.1681441), wk =   0.0024691
        k(  533) = (   0.3333333  -0.5000000   0.2241921), wk =   0.0024691
        k(  534) = (   0.3333333  -0.5000000   0.2802402), wk =   0.0024691
        k(  535) = (   0.3333333  -0.5000000   0.3362882), wk =   0.0024691
        k(  536) = (   0.3333333  -0.5000000   0.3923362), wk =   0.0024691
        k(  537) = (   0.3333333  -0.5000000   0.4483843), wk =   0.0024691
        k(  538) = (   0.3333333  -0.5000000   0.5044323), wk =   0.0024691
        k(  539) = (   0.3333333  -0.5000000  -0.5604803), wk =   0.0012346
        k(  540) = (   0.3888889   0.3888889   0.0000000), wk =   0.0012346
        k(  541) = (   0.3888889   0.3888889   0.0560480), wk =   0.0024691
        k(  542) = (   0.3888889   0.3888889   0.1120961), wk =   0.0024691
        k(  543) = (   0.3888889   0.3888889   0.1681441), wk =   0.0024691
        k(  544) = (   0.3888889   0.3888889   0.2241921), wk =   0.0024691
        k(  545) = (   0.3888889   0.3888889   0.2802402), wk =   0.0024691
        k(  546) = (   0.3888889   0.3888889   0.3362882), wk =   0.0024691
        k(  547) = (   0.3888889   0.3888889   0.3923362), wk =   0.0024691
        k(  548) = (   0.3888889   0.3888889   0.4483843), wk =   0.0024691
        k(  549) = (   0.3888889   0.3888889   0.5044323), wk =   0.0024691
        k(  550) = (   0.3888889   0.3888889  -0.5604803), wk =   0.0012346
        k(  551) = (   0.3888889   0.4444444   0.0000000), wk =   0.0024691
        k(  552) = (   0.3888889   0.4444444   0.0560480), wk =   0.0049383
        k(  553) = (   0.3888889   0.4444444   0.1120961), wk =   0.0049383
        k(  554) = (   0.3888889   0.4444444   0.1681441), wk =   0.0049383
        k(  555) = (   0.3888889   0.4444444   0.2241921), wk =   0.0049383
        k(  556) = (   0.3888889   0.4444444   0.2802402), wk =   0.0049383
        k(  557) = (   0.3888889   0.4444444   0.3362882), wk =   0.0049383
        k(  558) = (   0.3888889   0.4444444   0.3923362), wk =   0.0049383
        k(  559) = (   0.3888889   0.4444444   0.4483843), wk =   0.0049383
        k(  560) = (   0.3888889   0.4444444   0.5044323), wk =   0.0049383
        k(  561) = (   0.3888889   0.4444444  -0.5604803), wk =   0.0024691
        k(  562) = (   0.3888889  -0.5000000   0.0000000), wk =   0.0012346
        k(  563) = (   0.3888889  -0.5000000   0.0560480), wk =   0.0024691
        k(  564) = (   0.3888889  -0.5000000   0.1120961), wk =   0.0024691
        k(  565) = (   0.3888889  -0.5000000   0.1681441), wk =   0.0024691
        k(  566) = (   0.3888889  -0.5000000   0.2241921), wk =   0.0024691
        k(  567) = (   0.3888889  -0.5000000   0.2802402), wk =   0.0024691
        k(  568) = (   0.3888889  -0.5000000   0.3362882), wk =   0.0024691
        k(  569) = (   0.3888889  -0.5000000   0.3923362), wk =   0.0024691
        k(  570) = (   0.3888889  -0.5000000   0.4483843), wk =   0.0024691
        k(  571) = (   0.3888889  -0.5000000   0.5044323), wk =   0.0024691
        k(  572) = (   0.3888889  -0.5000000  -0.5604803), wk =   0.0012346
        k(  573) = (   0.4444444   0.4444444   0.0000000), wk =   0.0012346
        k(  574) = (   0.4444444   0.4444444   0.0560480), wk =   0.0024691
        k(  575) = (   0.4444444   0.4444444   0.1120961), wk =   0.0024691
        k(  576) = (   0.4444444   0.4444444   0.1681441), wk =   0.0024691
        k(  577) = (   0.4444444   0.4444444   0.2241921), wk =   0.0024691
        k(  578) = (   0.4444444   0.4444444   0.2802402), wk =   0.0024691
        k(  579) = (   0.4444444   0.4444444   0.3362882), wk =   0.0024691
        k(  580) = (   0.4444444   0.4444444   0.3923362), wk =   0.0024691
        k(  581) = (   0.4444444   0.4444444   0.4483843), wk =   0.0024691
        k(  582) = (   0.4444444   0.4444444   0.5044323), wk =   0.0024691
        k(  583) = (   0.4444444   0.4444444  -0.5604803), wk =   0.0012346
        k(  584) = (   0.4444444  -0.5000000   0.0000000), wk =   0.0012346
        k(  585) = (   0.4444444  -0.5000000   0.0560480), wk =   0.0024691
        k(  586) = (   0.4444444  -0.5000000   0.1120961), wk =   0.0024691
        k(  587) = (   0.4444444  -0.5000000   0.1681441), wk =   0.0024691
        k(  588) = (   0.4444444  -0.5000000   0.2241921), wk =   0.0024691
        k(  589) = (   0.4444444  -0.5000000   0.2802402), wk =   0.0024691
        k(  590) = (   0.4444444  -0.5000000   0.3362882), wk =   0.0024691
        k(  591) = (   0.4444444  -0.5000000   0.3923362), wk =   0.0024691
        k(  592) = (   0.4444444  -0.5000000   0.4483843), wk =   0.0024691
        k(  593) = (   0.4444444  -0.5000000   0.5044323), wk =   0.0024691
        k(  594) = (   0.4444444  -0.5000000  -0.5604803), wk =   0.0012346
        k(  595) = (  -0.5000000  -0.5000000   0.0000000), wk =   0.0003086
        k(  596) = (  -0.5000000  -0.5000000   0.0560480), wk =   0.0006173
        k(  597) = (  -0.5000000  -0.5000000   0.1120961), wk =   0.0006173
        k(  598) = (  -0.5000000  -0.5000000   0.1681441), wk =   0.0006173
        k(  599) = (  -0.5000000  -0.5000000   0.2241921), wk =   0.0006173
        k(  600) = (  -0.5000000  -0.5000000   0.2802402), wk =   0.0006173
        k(  601) = (  -0.5000000  -0.5000000   0.3362882), wk =   0.0006173
        k(  602) = (  -0.5000000  -0.5000000   0.3923362), wk =   0.0006173
        k(  603) = (  -0.5000000  -0.5000000   0.4483843), wk =   0.0006173
        k(  604) = (  -0.5000000  -0.5000000   0.5044323), wk =   0.0006173
        k(  605) = (  -0.5000000  -0.5000000  -0.5604803), wk =   0.0003086

                       cryst. coord.
        k(    1) = (   0.0000000   0.0000000   0.0000000), wk =   0.0003086
        k(    2) = (   0.0000000   0.0000000   0.0500000), wk =   0.0006173
        k(    3) = (   0.0000000   0.0000000   0.1000000), wk =   0.0006173
        k(    4) = (   0.0000000   0.0000000   0.1500000), wk =   0.0006173
        k(    5) = (   0.0000000   0.0000000   0.2000000), wk =   0.0006173
        k(    6) = (   0.0000000   0.0000000   0.2500000), wk =   0.0006173
        k(    7) = (   0.0000000   0.0000000   0.3000000), wk =   0.0006173
        k(    8) = (   0.0000000   0.0000000   0.3500000), wk =   0.0006173
        k(    9) = (   0.0000000   0.0000000   0.4000000), wk =   0.0006173
        k(   10) = (   0.0000000   0.0000000   0.4500000), wk =   0.0006173
        k(   11) = (   0.0000000   0.0000000  -0.5000000), wk =   0.0003086
        k(   12) = (   0.0000000   0.0555556   0.0000000), wk =   0.0012346
        k(   13) = (   0.0000000   0.0555556   0.0500000), wk =   0.0024691
        k(   14) = (   0.0000000   0.0555556   0.1000000), wk =   0.0024691
        k(   15) = (   0.0000000   0.0555556   0.1500000), wk =   0.0024691
        k(   16) = (   0.0000000   0.0555556   0.2000000), wk =   0.0024691
        k(   17) = (   0.0000000   0.0555556   0.2500000), wk =   0.0024691
        k(   18) = (   0.0000000   0.0555556   0.3000000), wk =   0.0024691
        k(   19) = (   0.0000000   0.0555556   0.3500000), wk =   0.0024691
        k(   20) = (   0.0000000   0.0555556   0.4000000), wk =   0.0024691
        k(   21) = (   0.0000000   0.0555556   0.4500000), wk =   0.0024691
        k(   22) = (   0.0000000   0.0555556  -0.5000000), wk =   0.0012346
        k(   23) = (   0.0000000   0.1111111   0.0000000), wk =   0.0012346
        k(   24) = (   0.0000000   0.1111111   0.0500000), wk =   0.0024691
        k(   25) = (   0.0000000   0.1111111   0.1000000), wk =   0.0024691
        k(   26) = (   0.0000000   0.1111111   0.1500000), wk =   0.0024691
        k(   27) = (   0.0000000   0.1111111   0.2000000), wk =   0.0024691
        k(   28) = (   0.0000000   0.1111111   0.2500000), wk =   0.0024691
        k(   29) = (   0.0000000   0.1111111   0.3000000), wk =   0.0024691
        k(   30) = (   0.0000000   0.1111111   0.3500000), wk =   0.0024691
        k(   31) = (   0.0000000   0.1111111   0.4000000), wk =   0.0024691
        k(   32) = (   0.0000000   0.1111111   0.4500000), wk =   0.0024691
        k(   33) = (   0.0000000   0.1111111  -0.5000000), wk =   0.0012346
        k(   34) = (   0.0000000   0.1666667   0.0000000), wk =   0.0012346
        k(   35) = (   0.0000000   0.1666667   0.0500000), wk =   0.0024691
        k(   36) = (   0.0000000   0.1666667   0.1000000), wk =   0.0024691
        k(   37) = (   0.0000000   0.1666667   0.1500000), wk =   0.0024691
        k(   38) = (   0.0000000   0.1666667   0.2000000), wk =   0.0024691
        k(   39) = (   0.0000000   0.1666667   0.2500000), wk =   0.0024691
        k(   40) = (   0.0000000   0.1666667   0.3000000), wk =   0.0024691
        k(   41) = (   0.0000000   0.1666667   0.3500000), wk =   0.0024691
        k(   42) = (   0.0000000   0.1666667   0.4000000), wk =   0.0024691
        k(   43) = (   0.0000000   0.1666667   0.4500000), wk =   0.0024691
        k(   44) = (   0.0000000   0.1666667  -0.5000000), wk =   0.0012346
        k(   45) = (   0.0000000   0.2222222   0.0000000), wk =   0.0012346
        k(   46) = (   0.0000000   0.2222222   0.0500000), wk =   0.0024691
        k(   47) = (   0.0000000   0.2222222   0.1000000), wk =   0.0024691
        k(   48) = (   0.0000000   0.2222222   0.1500000), wk =   0.0024691
        k(   49) = (   0.0000000   0.2222222   0.2000000), wk =   0.0024691
        k(   50) = (   0.0000000   0.2222222   0.2500000), wk =   0.0024691
        k(   51) = (   0.0000000   0.2222222   0.3000000), wk =   0.0024691
        k(   52) = (   0.0000000   0.2222222   0.3500000), wk =   0.0024691
        k(   53) = (   0.0000000   0.2222222   0.4000000), wk =   0.0024691
        k(   54) = (   0.0000000   0.2222222   0.4500000), wk =   0.0024691
        k(   55) = (   0.0000000   0.2222222  -0.5000000), wk =   0.0012346
        k(   56) = (   0.0000000   0.2777778   0.0000000), wk =   0.0012346
        k(   57) = (   0.0000000   0.2777778   0.0500000), wk =   0.0024691
        k(   58) = (   0.0000000   0.2777778   0.1000000), wk =   0.0024691
        k(   59) = (   0.0000000   0.2777778   0.1500000), wk =   0.0024691
        k(   60) = (   0.0000000   0.2777778   0.2000000), wk =   0.0024691
        k(   61) = (   0.0000000   0.2777778   0.2500000), wk =   0.0024691
        k(   62) = (   0.0000000   0.2777778   0.3000000), wk =   0.0024691
        k(   63) = (   0.0000000   0.2777778   0.3500000), wk =   0.0024691
        k(   64) = (   0.0000000   0.2777778   0.4000000), wk =   0.0024691
        k(   65) = (   0.0000000   0.2777778   0.4500000), wk =   0.0024691
        k(   66) = (   0.0000000   0.2777778  -0.5000000), wk =   0.0012346
        k(   67) = (   0.0000000   0.3333333   0.0000000), wk =   0.0012346
        k(   68) = (   0.0000000   0.3333333   0.0500000), wk =   0.0024691
        k(   69) = (   0.0000000   0.3333333   0.1000000), wk =   0.0024691
        k(   70) = (   0.0000000   0.3333333   0.1500000), wk =   0.0024691
        k(   71) = (   0.0000000   0.3333333   0.2000000), wk =   0.0024691
        k(   72) = (   0.0000000   0.3333333   0.2500000), wk =   0.0024691
        k(   73) = (   0.0000000   0.3333333   0.3000000), wk =   0.0024691
        k(   74) = (   0.0000000   0.3333333   0.3500000), wk =   0.0024691
        k(   75) = (   0.0000000   0.3333333   0.4000000), wk =   0.0024691
        k(   76) = (   0.0000000   0.3333333   0.4500000), wk =   0.0024691
        k(   77) = (   0.0000000   0.3333333  -0.5000000), wk =   0.0012346
        k(   78) = (   0.0000000   0.3888889   0.0000000), wk =   0.0012346
        k(   79) = (   0.0000000   0.3888889   0.0500000), wk =   0.0024691
        k(   80) = (   0.0000000   0.3888889   0.1000000), wk =   0.0024691
        k(   81) = (   0.0000000   0.3888889   0.1500000), wk =   0.0024691
        k(   82) = (   0.0000000   0.3888889   0.2000000), wk =   0.0024691
        k(   83) = (   0.0000000   0.3888889   0.2500000), wk =   0.0024691
        k(   84) = (   0.0000000   0.3888889   0.3000000), wk =   0.0024691
        k(   85) = (   0.0000000   0.3888889   0.3500000), wk =   0.0024691
        k(   86) = (   0.0000000   0.3888889   0.4000000), wk =   0.0024691
        k(   87) = (   0.0000000   0.3888889   0.4500000), wk =   0.0024691
        k(   88) = (   0.0000000   0.3888889  -0.5000000), wk =   0.0012346
        k(   89) = (   0.0000000   0.4444444   0.0000000), wk =   0.0012346
        k(   90) = (   0.0000000   0.4444444   0.0500000), wk =   0.0024691
        k(   91) = (   0.0000000   0.4444444   0.1000000), wk =   0.0024691
        k(   92) = (   0.0000000   0.4444444   0.1500000), wk =   0.0024691
        k(   93) = (   0.0000000   0.4444444   0.2000000), wk =   0.0024691
        k(   94) = (   0.0000000   0.4444444   0.2500000), wk =   0.0024691
        k(   95) = (   0.0000000   0.4444444   0.3000000), wk =   0.0024691
        k(   96) = (   0.0000000   0.4444444   0.3500000), wk =   0.0024691
        k(   97) = (   0.0000000   0.4444444   0.4000000), wk =   0.0024691
        k(   98) = (   0.0000000   0.4444444   0.4500000), wk =   0.0024691
        k(   99) = (   0.0000000   0.4444444  -0.5000000), wk =   0.0012346
        k(  100) = (   0.0000000  -0.5000000   0.0000000), wk =   0.0006173
        k(  101) = (   0.0000000  -0.5000000   0.0500000), wk =   0.0012346
        k(  102) = (   0.0000000  -0.5000000   0.1000000), wk =   0.0012346
        k(  103) = (   0.0000000  -0.5000000   0.1500000), wk =   0.0012346
        k(  104) = (   0.0000000  -0.5000000   0.2000000), wk =   0.0012346
        k(  105) = (   0.0000000  -0.5000000   0.2500000), wk =   0.0012346
        k(  106) = (   0.0000000  -0.5000000   0.3000000), wk =   0.0012346
        k(  107) = (   0.0000000  -0.5000000   0.3500000), wk =   0.0012346
        k(  108) = (   0.0000000  -0.5000000   0.4000000), wk =   0.0012346
        k(  109) = (   0.0000000  -0.5000000   0.4500000), wk =   0.0012346
        k(  110) = (   0.0000000  -0.5000000  -0.5000000), wk =   0.0006173
        k(  111) = (   0.0555556   0.0555556   0.0000000), wk =   0.0012346
        k(  112) = (   0.0555556   0.0555556   0.0500000), wk =   0.0024691
        k(  113) = (   0.0555556   0.0555556   0.1000000), wk =   0.0024691
        k(  114) = (   0.0555556   0.0555556   0.1500000), wk =   0.0024691
        k(  115) = (   0.0555556   0.0555556   0.2000000), wk =   0.0024691
        k(  116) = (   0.0555556   0.0555556   0.2500000), wk =   0.0024691
        k(  117) = (   0.0555556   0.0555556   0.3000000), wk =   0.0024691
        k(  118) = (   0.0555556   0.0555556   0.3500000), wk =   0.0024691
        k(  119) = (   0.0555556   0.0555556   0.4000000), wk =   0.0024691
        k(  120) = (   0.0555556   0.0555556   0.4500000), wk =   0.0024691
        k(  121) = (   0.0555556   0.0555556  -0.5000000), wk =   0.0012346
        k(  122) = (   0.0555556   0.1111111   0.0000000), wk =   0.0024691
        k(  123) = (   0.0555556   0.1111111   0.0500000), wk =   0.0049383
        k(  124) = (   0.0555556   0.1111111   0.1000000), wk =   0.0049383
        k(  125) = (   0.0555556   0.1111111   0.1500000), wk =   0.0049383
        k(  126) = (   0.0555556   0.1111111   0.2000000), wk =   0.0049383
        k(  127) = (   0.0555556   0.1111111   0.2500000), wk =   0.0049383
        k(  128) = (   0.0555556   0.1111111   0.3000000), wk =   0.0049383
        k(  129) = (   0.0555556   0.1111111   0.3500000), wk =   0.0049383
        k(  130) = (   0.0555556   0.1111111   0.4000000), wk =   0.0049383
        k(  131) = (   0.0555556   0.1111111   0.4500000), wk =   0.0049383
        k(  132) = (   0.0555556   0.1111111  -0.5000000), wk =   0.0024691
        k(  133) = (   0.0555556   0.1666667   0.0000000), wk =   0.0024691
        k(  134) = (   0.0555556   0.1666667   0.0500000), wk =   0.0049383
        k(  135) = (   0.0555556   0.1666667   0.1000000), wk =   0.0049383
        k(  136) = (   0.0555556   0.1666667   0.1500000), wk =   0.0049383
        k(  137) = (   0.0555556   0.1666667   0.2000000), wk =   0.0049383
        k(  138) = (   0.0555556   0.1666667   0.2500000), wk =   0.0049383
        k(  139) = (   0.0555556   0.1666667   0.3000000), wk =   0.0049383
        k(  140) = (   0.0555556   0.1666667   0.3500000), wk =   0.0049383
        k(  141) = (   0.0555556   0.1666667   0.4000000), wk =   0.0049383
        k(  142) = (   0.0555556   0.1666667   0.4500000), wk =   0.0049383
        k(  143) = (   0.0555556   0.1666667  -0.5000000), wk =   0.0024691
        k(  144) = (   0.0555556   0.2222222   0.0000000), wk =   0.0024691
        k(  145) = (   0.0555556   0.2222222   0.0500000), wk =   0.0049383
        k(  146) = (   0.0555556   0.2222222   0.1000000), wk =   0.0049383
        k(  147) = (   0.0555556   0.2222222   0.1500000), wk =   0.0049383
        k(  148) = (   0.0555556   0.2222222   0.2000000), wk =   0.0049383
        k(  149) = (   0.0555556   0.2222222   0.2500000), wk =   0.0049383
        k(  150) = (   0.0555556   0.2222222   0.3000000), wk =   0.0049383
        k(  151) = (   0.0555556   0.2222222   0.3500000), wk =   0.0049383
        k(  152) = (   0.0555556   0.2222222   0.4000000), wk =   0.0049383
        k(  153) = (   0.0555556   0.2222222   0.4500000), wk =   0.0049383
        k(  154) = (   0.0555556   0.2222222  -0.5000000), wk =   0.0024691
        k(  155) = (   0.0555556   0.2777778   0.0000000), wk =   0.0024691
        k(  156) = (   0.0555556   0.2777778   0.0500000), wk =   0.0049383
        k(  157) = (   0.0555556   0.2777778   0.1000000), wk =   0.0049383
        k(  158) = (   0.0555556   0.2777778   0.1500000), wk =   0.0049383
        k(  159) = (   0.0555556   0.2777778   0.2000000), wk =   0.0049383
        k(  160) = (   0.0555556   0.2777778   0.2500000), wk =   0.0049383
        k(  161) = (   0.0555556   0.2777778   0.3000000), wk =   0.0049383
        k(  162) = (   0.0555556   0.2777778   0.3500000), wk =   0.0049383
        k(  163) = (   0.0555556   0.2777778   0.4000000), wk =   0.0049383
        k(  164) = (   0.0555556   0.2777778   0.4500000), wk =   0.0049383
        k(  165) = (   0.0555556   0.2777778  -0.5000000), wk =   0.0024691
        k(  166) = (   0.0555556   0.3333333   0.0000000), wk =   0.0024691
        k(  167) = (   0.0555556   0.3333333   0.0500000), wk =   0.0049383
        k(  168) = (   0.0555556   0.3333333   0.1000000), wk =   0.0049383
        k(  169) = (   0.0555556   0.3333333   0.1500000), wk =   0.0049383
        k(  170) = (   0.0555556   0.3333333   0.2000000), wk =   0.0049383
        k(  171) = (   0.0555556   0.3333333   0.2500000), wk =   0.0049383
        k(  172) = (   0.0555556   0.3333333   0.3000000), wk =   0.0049383
        k(  173) = (   0.0555556   0.3333333   0.3500000), wk =   0.0049383
        k(  174) = (   0.0555556   0.3333333   0.4000000), wk =   0.0049383
        k(  175) = (   0.0555556   0.3333333   0.4500000), wk =   0.0049383
        k(  176) = (   0.0555556   0.3333333  -0.5000000), wk =   0.0024691
        k(  177) = (   0.0555556   0.3888889   0.0000000), wk =   0.0024691
        k(  178) = (   0.0555556   0.3888889   0.0500000), wk =   0.0049383
        k(  179) = (   0.0555556   0.3888889   0.1000000), wk =   0.0049383
        k(  180) = (   0.0555556   0.3888889   0.1500000), wk =   0.0049383
        k(  181) = (   0.0555556   0.3888889   0.2000000), wk =   0.0049383
        k(  182) = (   0.0555556   0.3888889   0.2500000), wk =   0.0049383
        k(  183) = (   0.0555556   0.3888889   0.3000000), wk =   0.0049383
        k(  184) = (   0.0555556   0.3888889   0.3500000), wk =   0.0049383
        k(  185) = (   0.0555556   0.3888889   0.4000000), wk =   0.0049383
        k(  186) = (   0.0555556   0.3888889   0.4500000), wk =   0.0049383
        k(  187) = (   0.0555556   0.3888889  -0.5000000), wk =   0.0024691
        k(  188) = (   0.0555556   0.4444444   0.0000000), wk =   0.0024691
        k(  189) = (   0.0555556   0.4444444   0.0500000), wk =   0.0049383
        k(  190) = (   0.0555556   0.4444444   0.1000000), wk =   0.0049383
        k(  191) = (   0.0555556   0.4444444   0.1500000), wk =   0.0049383
        k(  192) = (   0.0555556   0.4444444   0.2000000), wk =   0.0049383
        k(  193) = (   0.0555556   0.4444444   0.2500000), wk =   0.0049383
        k(  194) = (   0.0555556   0.4444444   0.3000000), wk =   0.0049383
        k(  195) = (   0.0555556   0.4444444   0.3500000), wk =   0.0049383
        k(  196) = (   0.0555556   0.4444444   0.4000000), wk =   0.0049383
        k(  197) = (   0.0555556   0.4444444   0.4500000), wk =   0.0049383
        k(  198) = (   0.0555556   0.4444444  -0.5000000), wk =   0.0024691
        k(  199) = (   0.0555556  -0.5000000   0.0000000), wk =   0.0012346
        k(  200) = (   0.0555556  -0.5000000   0.0500000), wk =   0.0024691
        k(  201) = (   0.0555556  -0.5000000   0.1000000), wk =   0.0024691
        k(  202) = (   0.0555556  -0.5000000   0.1500000), wk =   0.0024691
        k(  203) = (   0.0555556  -0.5000000   0.2000000), wk =   0.0024691
        k(  204) = (   0.0555556  -0.5000000   0.2500000), wk =   0.0024691
        k(  205) = (   0.0555556  -0.5000000   0.3000000), wk =   0.0024691
        k(  206) = (   0.0555556  -0.5000000   0.3500000), wk =   0.0024691
        k(  207) = (   0.0555556  -0.5000000   0.4000000), wk =   0.0024691
        k(  208) = (   0.0555556  -0.5000000   0.4500000), wk =   0.0024691
        k(  209) = (   0.0555556  -0.5000000  -0.5000000), wk =   0.0012346
        k(  210) = (   0.1111111   0.1111111   0.0000000), wk =   0.0012346
        k(  211) = (   0.1111111   0.1111111   0.0500000), wk =   0.0024691
        k(  212) = (   0.1111111   0.1111111   0.1000000), wk =   0.0024691
        k(  213) = (   0.1111111   0.1111111   0.1500000), wk =   0.0024691
        k(  214) = (   0.1111111   0.1111111   0.2000000), wk =   0.0024691
        k(  215) = (   0.1111111   0.1111111   0.2500000), wk =   0.0024691
        k(  216) = (   0.1111111   0.1111111   0.3000000), wk =   0.0024691
        k(  217) = (   0.1111111   0.1111111   0.3500000), wk =   0.0024691
        k(  218) = (   0.1111111   0.1111111   0.4000000), wk =   0.0024691
        k(  219) = (   0.1111111   0.1111111   0.4500000), wk =   0.0024691
        k(  220) = (   0.1111111   0.1111111  -0.5000000), wk =   0.0012346
        k(  221) = (   0.1111111   0.1666667   0.0000000), wk =   0.0024691
        k(  222) = (   0.1111111   0.1666667   0.0500000), wk =   0.0049383
        k(  223) = (   0.1111111   0.1666667   0.1000000), wk =   0.0049383
        k(  224) = (   0.1111111   0.1666667   0.1500000), wk =   0.0049383
        k(  225) = (   0.1111111   0.1666667   0.2000000), wk =   0.0049383
        k(  226) = (   0.1111111   0.1666667   0.2500000), wk =   0.0049383
        k(  227) = (   0.1111111   0.1666667   0.3000000), wk =   0.0049383
        k(  228) = (   0.1111111   0.1666667   0.3500000), wk =   0.0049383
        k(  229) = (   0.1111111   0.1666667   0.4000000), wk =   0.0049383
        k(  230) = (   0.1111111   0.1666667   0.4500000), wk =   0.0049383
        k(  231) = (   0.1111111   0.1666667  -0.5000000), wk =   0.0024691
        k(  232) = (   0.1111111   0.2222222   0.0000000), wk =   0.0024691
        k(  233) = (   0.1111111   0.2222222   0.0500000), wk =   0.0049383
        k(  234) = (   0.1111111   0.2222222   0.1000000), wk =   0.0049383
        k(  235) = (   0.1111111   0.2222222   0.1500000), wk =   0.0049383
        k(  236) = (   0.1111111   0.2222222   0.2000000), wk =   0.0049383
        k(  237) = (   0.1111111   0.2222222   0.2500000), wk =   0.0049383
        k(  238) = (   0.1111111   0.2222222   0.3000000), wk =   0.0049383
        k(  239) = (   0.1111111   0.2222222   0.3500000), wk =   0.0049383
        k(  240) = (   0.1111111   0.2222222   0.4000000), wk =   0.0049383
        k(  241) = (   0.1111111   0.2222222   0.4500000), wk =   0.0049383
        k(  242) = (   0.1111111   0.2222222  -0.5000000), wk =   0.0024691
        k(  243) = (   0.1111111   0.2777778   0.0000000), wk =   0.0024691
        k(  244) = (   0.1111111   0.2777778   0.0500000), wk =   0.0049383
        k(  245) = (   0.1111111   0.2777778   0.1000000), wk =   0.0049383
        k(  246) = (   0.1111111   0.2777778   0.1500000), wk =   0.0049383
        k(  247) = (   0.1111111   0.2777778   0.2000000), wk =   0.0049383
        k(  248) = (   0.1111111   0.2777778   0.2500000), wk =   0.0049383
        k(  249) = (   0.1111111   0.2777778   0.3000000), wk =   0.0049383
        k(  250) = (   0.1111111   0.2777778   0.3500000), wk =   0.0049383
        k(  251) = (   0.1111111   0.2777778   0.4000000), wk =   0.0049383
        k(  252) = (   0.1111111   0.2777778   0.4500000), wk =   0.0049383
        k(  253) = (   0.1111111   0.2777778  -0.5000000), wk =   0.0024691
        k(  254) = (   0.1111111   0.3333333   0.0000000), wk =   0.0024691
        k(  255) = (   0.1111111   0.3333333   0.0500000), wk =   0.0049383
        k(  256) = (   0.1111111   0.3333333   0.1000000), wk =   0.0049383
        k(  257) = (   0.1111111   0.3333333   0.1500000), wk =   0.0049383
        k(  258) = (   0.1111111   0.3333333   0.2000000), wk =   0.0049383
        k(  259) = (   0.1111111   0.3333333   0.2500000), wk =   0.0049383
        k(  260) = (   0.1111111   0.3333333   0.3000000), wk =   0.0049383
        k(  261) = (   0.1111111   0.3333333   0.3500000), wk =   0.0049383
        k(  262) = (   0.1111111   0.3333333   0.4000000), wk =   0.0049383
        k(  263) = (   0.1111111   0.3333333   0.4500000), wk =   0.0049383
        k(  264) = (   0.1111111   0.3333333  -0.5000000), wk =   0.0024691
        k(  265) = (   0.1111111   0.3888889   0.0000000), wk =   0.0024691
        k(  266) = (   0.1111111   0.3888889   0.0500000), wk =   0.0049383
        k(  267) = (   0.1111111   0.3888889   0.1000000), wk =   0.0049383
        k(  268) = (   0.1111111   0.3888889   0.1500000), wk =   0.0049383
        k(  269) = (   0.1111111   0.3888889   0.2000000), wk =   0.0049383
        k(  270) = (   0.1111111   0.3888889   0.2500000), wk =   0.0049383
        k(  271) = (   0.1111111   0.3888889   0.3000000), wk =   0.0049383
        k(  272) = (   0.1111111   0.3888889   0.3500000), wk =   0.0049383
        k(  273) = (   0.1111111   0.3888889   0.4000000), wk =   0.0049383
        k(  274) = (   0.1111111   0.3888889   0.4500000), wk =   0.0049383
        k(  275) = (   0.1111111   0.3888889  -0.5000000), wk =   0.0024691
        k(  276) = (   0.1111111   0.4444444   0.0000000), wk =   0.0024691
        k(  277) = (   0.1111111   0.4444444   0.0500000), wk =   0.0049383
        k(  278) = (   0.1111111   0.4444444   0.1000000), wk =   0.0049383
        k(  279) = (   0.1111111   0.4444444   0.1500000), wk =   0.0049383
        k(  280) = (   0.1111111   0.4444444   0.2000000), wk =   0.0049383
        k(  281) = (   0.1111111   0.4444444   0.2500000), wk =   0.0049383
        k(  282) = (   0.1111111   0.4444444   0.3000000), wk =   0.0049383
        k(  283) = (   0.1111111   0.4444444   0.3500000), wk =   0.0049383
        k(  284) = (   0.1111111   0.4444444   0.4000000), wk =   0.0049383
        k(  285) = (   0.1111111   0.4444444   0.4500000), wk =   0.0049383
        k(  286) = (   0.1111111   0.4444444  -0.5000000), wk =   0.0024691
        k(  287) = (   0.1111111  -0.5000000   0.0000000), wk =   0.0012346
        k(  288) = (   0.1111111  -0.5000000   0.0500000), wk =   0.0024691
        k(  289) = (   0.1111111  -0.5000000   0.1000000), wk =   0.0024691
        k(  290) = (   0.1111111  -0.5000000   0.1500000), wk =   0.0024691
        k(  291) = (   0.1111111  -0.5000000   0.2000000), wk =   0.0024691
        k(  292) = (   0.1111111  -0.5000000   0.2500000), wk =   0.0024691
        k(  293) = (   0.1111111  -0.5000000   0.3000000), wk =   0.0024691
        k(  294) = (   0.1111111  -0.5000000   0.3500000), wk =   0.0024691
        k(  295) = (   0.1111111  -0.5000000   0.4000000), wk =   0.0024691
        k(  296) = (   0.1111111  -0.5000000   0.4500000), wk =   0.0024691
        k(  297) = (   0.1111111  -0.5000000  -0.5000000), wk =   0.0012346
        k(  298) = (   0.1666667   0.1666667   0.0000000), wk =   0.0012346
        k(  299) = (   0.1666667   0.1666667   0.0500000), wk =   0.0024691
        k(  300) = (   0.1666667   0.1666667   0.1000000), wk =   0.0024691
        k(  301) = (   0.1666667   0.1666667   0.1500000), wk =   0.0024691
        k(  302) = (   0.1666667   0.1666667   0.2000000), wk =   0.0024691
        k(  303) = (   0.1666667   0.1666667   0.2500000), wk =   0.0024691
[...]
    16.0540  16.0541

     occupation numbers 
     1.0000   1.0000   1.0000   1.0000   1.0000   1.0000   1.0000   0.8420
     0.0000   0.0000

          k = 0.3889 0.3889 0.3923 (   841 PWs)   bands (ev):

     1.2357   3.1717   3.1718   4.4124   5.2548   6.4777   6.4777   8.3543
    16.3784  16.3785

     occupation numbers 
     1.0000   1.0000   1.0000   1.0000   1.0000   1.0000   1.0000   1.0000
     0.0000   0.0000

          k = 0.3889 0.3889 0.4484 (   839 PWs)   bands (ev):

     1.6498   3.5698   3.5698   3.8098   5.5859   5.8214   5.8214   7.6943
    16.7366  16.7366

     occupation numbers 
     1.0000   1.0000   1.0000   1.0000   1.0000   1.0000   1.0000   1.0000
     0.0000   0.0000

          k = 0.3889 0.3889 0.5044 (   833 PWs)   bands (ev):

     2.1169   3.2024   3.9977   3.9977   5.2381   5.2382   6.0248   7.0845
    17.1051  17.1051

     occupation numbers 
     1.0000   1.0000   1.0000   1.0000   1.0000   1.0000   1.0000   1.0000
     0.0000   0.0000

          k = 0.3889 0.3889-0.5605 (   826 PWs)   bands (ev):

     2.6354   2.6354   4.2924   4.2924   4.8916   4.8916   6.5270   6.5270
    17.3291  17.3291

     occupation numbers 
     1.0000   1.0000   1.0000   1.0000   1.0000   1.0000   1.0000   1.0000
     0.0000   0.0000

          k = 0.3889 0.4444 0.0000 (   847 PWs)   bands (ev):

     0.2840   1.2670   2.2424   3.2104  10.1539  11.0618  11.9690  12.3089
    12.8749  13.1916

     occupation numbers 
     1.0000   1.0000   1.0000   1.0000   0.0000   0.0000   0.0000   0.0000
     0.0000   0.0000

          k = 0.3889 0.4444 0.0560 (   846 PWs)   bands (ev):

     0.3119   1.2947   2.2698   3.2375   9.7505  10.6639  11.5777  12.4913
    12.7554  13.6212

     occupation numbers 
     1.0000   1.0000   1.0000   1.0000   0.0000   0.0000   0.0000   0.0000
     0.0000   0.0000

          k = 0.3889 0.4444 0.1121 (   848 PWs)   bands (ev):

     0.3955   1.3776   2.3520   3.3184   8.9647   9.8859  10.8076  11.7293
    13.6694  14.4754

     occupation numbers 
     1.0000   1.0000   1.0000   1.0000   1.0814   0.0000   0.0000   0.0000
     0.0000   0.0000

          k = 0.3889 0.4444 0.1681 (   847 PWs)   bands (ev):

     0.5348   1.5158   2.4887   3.4529   8.1136   9.0408   9.9682  10.8955
    14.7281  15.3128

     occupation numbers 
     1.0000   1.0000   1.0000   1.0000   1.0000   0.9331   0.0000   0.0000
     0.0000   0.0000

          k = 0.3889 0.4444 0.2242 (   849 PWs)   bands (ev):

     0.7295   1.7088   2.6795   3.6397   7.2746   8.2053   9.1372  10.0688
    15.7872  15.8281

     occupation numbers 
     1.0000   1.0000   1.0000   1.0000   1.0000   1.0000   0.4437   0.0000
     0.0000   0.0000

          k = 0.3889 0.4444 0.2802 (   844 PWs)   bands (ev):

     0.9794   1.9564   2.9238   3.8762   6.4728   7.4028   8.3379   9.2731
    16.0874  16.6601

     occupation numbers 
     1.0000   1.0000   1.0000   1.0000   1.0000   1.0000   1.0000   0.0368
     0.0000   0.0000

          k = 0.3889 0.4444 0.3363 (   845 PWs)   bands (ev):

     1.2840   2.2579   3.2201   4.1526   5.7266   6.6435   7.5798   8.5178
    16.3868  17.0139

     occupation numbers 
     1.0000   1.0000   1.0000   1.0000   1.0000   1.0000   1.0000   1.0000
     0.0000   0.0000

          k = 0.3889 0.4444 0.3923 (   845 PWs)   bands (ev):

     1.6428   2.6124   3.5647   4.3998   5.1092   5.9354   6.8682   7.8080
    16.7182  17.3461

     occupation numbers 
     1.0000   1.0000   1.0000   1.0000   1.0000   1.0000   1.0000   1.0000
     0.0000   0.0000

          k = 0.3889 0.4444 0.4484 (   837 PWs)   bands (ev):

     2.0551   3.0180   3.9435   4.1549   5.0857   5.2948   6.2073   7.1467
    17.0877  17.7148

     occupation numbers 
     1.0000   1.0000   1.0000   1.0000   1.0000   1.0000   1.0000   1.0000
     0.0000   0.0000

          k = 0.3889 0.4444 0.5044 (   835 PWs)   bands (ev):

     2.5194   3.4698   3.5901   4.2342   4.8453   5.4851   5.6032   6.5363
    17.4914  18.1265

     occupation numbers 
     1.0000   1.0000   1.0000   1.0000   1.0000   1.0000   1.0000   1.0000
     0.0000   0.0000

          k = 0.3889 0.4444-0.5605 (   834 PWs)   bands (ev):

     3.0334   3.0334   3.9462   3.9462   5.0781   5.0782   5.9801   5.9802
    17.9051  17.9051

     occupation numbers 
     1.0000   1.0000   1.0000   1.0000   1.0000   1.0000   1.0000   1.0000
     0.0000   0.0000

          k = 0.3889-0.5000 0.0000 (   848 PWs)   bands (ev):

     0.7492   0.7492   2.7006   2.7006  10.5827  10.5828  12.3969  12.3970
    12.7361  12.7362

     occupation numbers 
     1.0000   1.0000   1.0000   1.0000   0.0000   0.0000   0.0000   0.0000
     0.0000   0.0000

          k = 0.3889-0.5000 0.0560 (   840 PWs)   bands (ev):

     0.7770   0.7770   2.7279   2.7279  10.1823  10.1824  12.0098  12.0099
    13.1766  13.1766

     occupation numbers 
     1.0000   1.0000   1.0000   1.0000   0.0000   0.0000   0.0000   0.0000
     0.0000   0.0000

          k = 0.3889-0.5000 0.1121 (   848 PWs)   bands (ev):

     0.8603   0.8603   2.8095   2.8096   9.4004   9.4004  11.2439  11.2439
    14.0741  14.0742

     occupation numbers 
     1.0000   1.0000   1.0000   1.0000   0.0006   0.0006   0.0000   0.0000
     0.0000   0.0000

          k = 0.3889-0.5000 0.1681 (   846 PWs)   bands (ev):

     0.9991   0.9991   2.9453   2.9453   8.5518   8.5519  10.4071  10.4072
    15.0872  15.0873

     occupation numbers 
     1.0000   1.0000   1.0000   1.0000   1.0000   1.0000   0.0000   0.0000
     0.0000   0.0000

          k = 0.3889-0.5000 0.2242 (   844 PWs)   bands (ev):

     1.1930   1.1930   3.1346   3.1346   7.7140   7.7140   9.5780   9.5781
    15.9672  15.9674

     occupation numbers 
     1.0000   1.0000   1.0000   1.0000   1.0000   1.0000   0.0000   0.0000
     0.0000   0.0000

          k = 0.3889-0.5000 0.2802 (   844 PWs)   bands (ev):

     1.4419   1.4419   3.3762   3.3762   6.9105   6.9105   8.7802   8.7803
    16.4072  16.4072

     occupation numbers 
     1.0000   1.0000   1.0000   1.0000   1.0000   1.0000   1.0054   1.0054
     0.0000   0.0000

          k = 0.3889-0.5000 0.3363 (   844 PWs)   bands (ev):

     1.7451   1.7451   3.6669   3.6669   6.1532   6.1533   8.0233   8.0233
    16.7260  16.7261

     occupation numbers 
     1.0000   1.0000   1.0000   1.0000   1.0000   1.0000   1.0000   1.0000
     0.0000   0.0000

          k = 0.3889-0.5000 0.3923 (   842 PWs)   bands (ev):

     2.1021   2.1022   3.9951   3.9951   5.4581   5.4582   7.3121   7.3122
    17.0618  17.0619

     occupation numbers 
     1.0000   1.0000   1.0000   1.0000   1.0000   1.0000   1.0000   1.0000
     0.0000   0.0000

          k = 0.3889-0.5000 0.4484 (   838 PWs)   bands (ev):

     2.5118   2.5118   4.2691   4.2693   4.9188   4.9189   6.6503   6.6503
    17.4346  17.4347

     occupation numbers 
     1.0000   1.0000   1.0000   1.0000   1.0000   1.0000   1.0000   1.0000
     0.0000   0.0000

          k = 0.3889-0.5000 0.5044 (   838 PWs)   bands (ev):

     2.9718   2.9719   3.9989   3.9990   5.0269   5.0270   6.0410   6.0411
    17.8472  17.8473

     occupation numbers 
     1.0000   1.0000   1.0000   1.0000   1.0000   1.0000   1.0000   1.0000
     0.0000   0.0000

          k = 0.3889-0.5000-0.5605 (   828 PWs)   bands (ev):

     3.4765   3.4766   3.4767   3.4767   5.4908   5.4908   5.4909   5.4910
    18.2953  18.2954

     occupation numbers 
     1.0000   1.0000   1.0000   1.0000   1.0000   1.0000   1.0000   1.0000
     0.0000   0.0000

          k = 0.4444 0.4444 0.0000 (   842 PWs)   bands (ev):

     0.6947   1.6747   1.6747   2.6473  10.5323  11.4399  11.4399  12.3466
    12.7092  13.6229

     occupation numbers 
     1.0000   1.0000   1.0000   1.0000   0.0000   0.0000   0.0000   0.0000
     0.0000   0.0000

          k = 0.4444 0.4444 0.0560 (   839 PWs)   bands (ev):

     0.7225   1.7022   1.7023   2.6745  10.1325  11.0465  11.0465  11.9603
    13.1525  14.0560

     occupation numbers 
     1.0000   1.0000   1.0000   1.0000   0.0000   0.0000   0.0000   0.0000
     0.0000   0.0000

          k = 0.4444 0.4444 0.1121 (   842 PWs)   bands (ev):

     0.8058   1.7849   1.7849   2.7562   9.3505  10.2725  10.2726  11.1946
    14.0648  14.9449

     occupation numbers 
     1.0000   1.0000   1.0000   1.0000   0.0039   0.0000   0.0000   0.0000
     0.0000   0.0000

          k = 0.4444 0.4444 0.1681 (   845 PWs)   bands (ev):

     0.9446   1.9224   1.9225   2.8921   8.5014   9.4296   9.4296  10.3575
    15.1283  15.9532

     occupation numbers 
     1.0000   1.0000   1.0000   1.0000   1.0000   0.0002   0.0002   0.0000
     0.0000   0.0000

          k = 0.4444 0.4444 0.2242 (   847 PWs)   bands (ev):

     1.1387   2.1146   2.1146   3.0815   7.6629   8.5954   8.5954   9.5280
    16.2605  16.8306

     occupation numbers 
     1.0000   1.0000   1.0000   1.0000   1.0000   1.0000   1.0000   0.0000
     0.0000   0.0000

          k = 0.4444 0.4444 0.2802 (   846 PWs)   bands (ev):

     1.3876   2.3610   2.3610   3.3232   6.8588   7.7936   7.7936   8.7297
    17.2513  17.4619

     occupation numbers 
     1.0000   1.0000   1.0000   1.0000   1.0000   1.0000   1.0000   1.0012
     0.0000   0.0000

          k = 0.4444 0.4444 0.3363 (   848 PWs)   bands (ev):

     1.6910   2.6606   2.6606   3.6141   6.1010   7.0337   7.0337   7.9723
    17.5593  17.7245

     occupation numbers 
     1.0000   1.0000   1.0000   1.0000   1.0000   1.0000   1.0000   1.0000
     0.0000   0.0000

          k = 0.4444 0.4444 0.3923 (   852 PWs)   bands (ev):

     2.0482   3.0119   3.0119   3.9425   5.4054   6.3218   6.3218   7.2608
    17.8863  17.8863

     occupation numbers 
     1.0000   1.0000   1.0000   1.0000   1.0000   1.0000   1.0000   1.0000
     0.0000   0.0000

          k = 0.4444 0.4444 0.4484 (   839 PWs)   bands (ev):

     2.4581   3.4106   3.4106   4.2171   4.8655   5.6643   5.6643   6.5986
    18.2459  18.2460

     occupation numbers 
     1.0000   1.0000   1.0000   1.0000   1.0000   1.0000   1.0000   1.0000
     0.0000   0.0000

          k = 0.4444 0.4444 0.5044 (   833 PWs)   bands (ev):

     2.9184   3.8396   3.8396   3.9463   4.9741   5.0796   5.0797   5.9890
    18.6245  18.6245

     occupation numbers 
     1.0000   1.0000   1.0000   1.0000   1.0000   1.0000   1.0000   1.0000
     0.0000   0.0000

          k = 0.4444 0.4444-0.5605 (   832 PWs)   bands (ev):

     3.4234   3.4234   4.1359   4.1359   4.7314   4.7314   5.4385   5.4385
    18.8766  18.8766

     occupation numbers 
     1.0000   1.0000   1.0000   1.0000   1.0000   1.0000   1.0000   1.0000
     0.0000   0.0000

          k = 0.4444-0.5000 0.0000 (   830 PWs)   bands (ev):

     1.1585   1.1585   2.1350   2.1350  10.9610  10.9610  11.8681  11.8682
    13.1480  13.1481

     occupation numbers 
     1.0000   1.0000   1.0000   1.0000   0.0000   0.0000   0.0000   0.0000
     0.0000   0.0000

          k = 0.4444-0.5000 0.0560 (   834 PWs)   bands (ev):

     1.1862   1.1862   2.1624   2.1625  10.5646  10.5647  11.4786  11.4787
    13.5870  13.5871

     occupation numbers 
     1.0000   1.0000   1.0000   1.0000   0.0000   0.0000   0.0000   0.0000
     0.0000   0.0000

          k = 0.4444-0.5000 0.1121 (   842 PWs)   bands (ev):

     1.2692   1.2692   2.2447   2.2447   9.7866   9.7866  10.7088  10.7089
    14.4917  14.4919

     occupation numbers 
     1.0000   1.0000   1.0000   1.0000   0.0000   0.0000   0.0000   0.0000
     0.0000   0.0000

          k = 0.4444-0.5000 0.1681 (   848 PWs)   bands (ev):

     1.4074   1.4075   2.3815   2.3815   8.9403   8.9403   9.8686   9.8687
    15.5429  15.5430

     occupation numbers 
     1.0000   1.0000   1.0000   1.0000   1.0813   1.0813   0.0000   0.0000
     0.0000   0.0000

          k = 0.4444-0.5000 0.2242 (   850 PWs)   bands (ev):

     1.6006   1.6007   2.5725   2.5726   8.1036   8.1036   9.0366   9.0366
    16.6370  16.6371

     occupation numbers 
     1.0000   1.0000   1.0000   1.0000   1.0000   1.0000   0.9485   0.9484
     0.0000   0.0000

          k = 0.4444-0.5000 0.2802 (   848 PWs)   bands (ev):

     1.8485   1.8485   2.8171   2.8171   7.2999   7.3000   8.2362   8.2362
    17.4507  17.4508

     occupation numbers 
     1.0000   1.0000   1.0000   1.0000   1.0000   1.0000   1.0000   1.0000
     0.0000   0.0000

          k = 0.4444-0.5000 0.3363 (   850 PWs)   bands (ev):

     2.1503   2.1503   3.1137   3.1137   6.5397   6.5397   7.4772   7.4772
    17.7884  17.7884

     occupation numbers 
     1.0000   1.0000   1.0000   1.0000   1.0000   1.0000   1.0000   1.0000
     0.0000   0.0000

          k = 0.4444-0.5000 0.3923 (   850 PWs)   bands (ev):

     2.5051   2.5052   3.4587   3.4587   5.8307   5.8307   6.7648   6.7648
    18.1147  18.1150

     occupation numbers 
     1.0000   1.0000   1.0000   1.0000   1.0000   1.0000   1.0000   1.0000
     0.0000   0.0000

          k = 0.4444-0.5000 0.4484 (   842 PWs)   bands (ev):

     2.9112   2.9112   3.8382   3.8382   5.1891   5.1892   6.1031   6.1031
    18.4780  18.4782

     occupation numbers 
     1.0000   1.0000   1.0000   1.0000   1.0000   1.0000   1.0000   1.0000
     0.0000   0.0000

          k = 0.4444-0.5000 0.5044 (   832 PWs)   bands (ev):

     3.3635   3.3635   4.1298   4.1300   4.7384   4.7385   5.4983   5.4984
    18.8803  18.8804

     occupation numbers 
     1.0000   1.0000   1.0000   1.0000   1.0000   1.0000   1.0000   1.0000
     0.0000   0.0000

          k = 0.4444-0.5000-0.5605 (   832 PWs)   bands (ev):

     3.8406   3.8407   3.8408   3.8409   4.9722   4.9723   4.9724   4.9725
    19.3060  19.3062

     occupation numbers 
     1.0000   1.0000   1.0000   1.0000   1.0000   1.0000   1.0000   1.0000
     0.0000   0.0000

          k =-0.5000-0.5000 0.0000 (   832 PWs)   bands (ev):

     1.6206   1.6206   1.6206   1.6207  11.3894  11.3895  11.3895  11.3896
    13.5956  13.5956

     occupation numbers 
     1.0000   1.0000   1.0000   1.0000   0.0000   0.0000   0.0000   0.0000
     0.0000   0.0000

          k =-0.5000-0.5000 0.0560 (   832 PWs)   bands (ev):

     1.6482   1.6482   1.6482   1.6483  10.9967  10.9968  10.9968  10.9969
    14.0313  14.0314

     occupation numbers 
     1.0000   1.0000   1.0000   1.0000   0.0000   0.0000   0.0000   0.0000
     0.0000   0.0000

          k =-0.5000-0.5000 0.1121 (   836 PWs)   bands (ev):

     1.7309   1.7309   1.7309   1.7309  10.2228  10.2229  10.2229  10.2230
    14.9334  14.9335

     occupation numbers 
     1.0000   1.0000   1.0000   1.0000   0.0000   0.0000   0.0000   0.0000
     0.0000   0.0000

          k =-0.5000-0.5000 0.1681 (   856 PWs)   bands (ev):

     1.8685   1.8685   1.8685   1.8685   9.3794   9.3794   9.3794   9.3795
    15.9874  15.9874

     occupation numbers 
     1.0000   1.0000   1.0000   1.0000   0.0014   0.0014   0.0014   0.0014
     0.0000   0.0000

          k =-0.5000-0.5000 0.2242 (   864 PWs)   bands (ev):

     2.0608   2.0608   2.0608   2.0608   8.5447   8.5447   8.5447   8.5448
    17.1086  17.1086

     occupation numbers 
     1.0000   1.0000   1.0000   1.0000   1.0000   1.0000   1.0000   1.0000
     0.0000   0.0000

          k =-0.5000-0.5000 0.2802 (   856 PWs)   bands (ev):

     2.3072   2.3072   2.3072   2.3073   7.7423   7.7424   7.7424   7.7424
    18.2680  18.2681

     occupation numbers 
     1.0000   1.0000   1.0000   1.0000   1.0000   1.0000   1.0000   1.0000
     0.0000   0.0000

          k =-0.5000-0.5000 0.3363 (   848 PWs)   bands (ev):

     2.6070   2.6070   2.6070   2.6071   6.9820   6.9821   6.9821   6.9821
    18.5308  18.5310

     occupation numbers 
     1.0000   1.0000   1.0000   1.0000   1.0000   1.0000   1.0000   1.0000
     0.0000   0.0000

          k =-0.5000-0.5000 0.3923 (   848 PWs)   bands (ev):

     2.9585   2.9585   2.9585   2.9585   6.2697   6.2698   6.2698   6.2698
    18.8401  18.8402

     occupation numbers 
     1.0000   1.0000   1.0000   1.0000   1.0000   1.0000   1.0000   1.0000
     0.0000   0.0000

          k =-0.5000-0.5000 0.4484 (   844 PWs)   bands (ev):

     3.3575   3.3575   3.3575   3.3575   5.6118   5.6118   5.6118   5.6119
    19.1936  19.1938

     occupation numbers 
     1.0000   1.0000   1.0000   1.0000   1.0000   1.0000   1.0000   1.0000
     0.0000   0.0000

          k =-0.5000-0.5000 0.5044 (   840 PWs)   bands (ev):

     3.7868   3.7869   3.7869   3.7870   5.0266   5.0267   5.0267   5.0268
    19.5803  19.5804

     occupation numbers 
     1.0000   1.0000   1.0000   1.0000   1.0000   1.0000   1.0000   1.0000
     0.0000   0.0000

          k =-0.5000-0.5000-0.5605 (   840 PWs)   bands (ev):

     4.0836   4.0838   4.0838   4.0839   4.6777   4.6778   4.6778   4.6780
    20.3046  20.3048

     occupation numbers 
     1.0000   1.0000   1.0000   1.0000   1.0000   1.0000   1.0000   1.0000
     0.0000   0.0000

     the Fermi energy is     9.1456 ev

!    total energy              =     -26.80445943 Ry
     Harris-Foulkes estimate   =     -26.80445946 Ry
     estimated scf accuracy    <       0.00000006 Ry

     The total energy is the sum of the following terms:

     one-electron contribution =      13.05834172 Ry
     hartree contribution      =       0.03705792 Ry
     xc contribution           =     -17.43738631 Ry
     ewald contribution        =     -22.46245578 Ry
     smearing contrib. (-TS)   =      -0.00001698 Ry

     convergence has been achieved in   5 iterations
 
     init_run     :    320.13s CPU     42.79s WALL (       1 calls)
     electrons    :   2595.10s CPU    534.91s WALL (       1 calls)

     Called by init_run:
     wfcinit      :    319.53s CPU     42.44s WALL (       1 calls)
     wfcinit:atom :      1.07s CPU      0.13s WALL (     605 calls)
     wfcinit:wfcr :    313.70s CPU     41.74s WALL (     605 calls)
     potinit      :      0.13s CPU      0.03s WALL (       1 calls)

     Called by electrons:
     c_bands      :   2386.33s CPU    491.08s WALL (       6 calls)
     sum_band     :    206.65s CPU     43.37s WALL (       6 calls)
     v_of_rho     :      0.76s CPU      0.16s WALL (       6 calls)
     v_h          :      0.01s CPU      0.00s WALL (       6 calls)
     v_xc         :      0.75s CPU      0.16s WALL (       6 calls)
     newd         :      0.99s CPU      0.21s WALL (       6 calls)
     mix_rho      :      0.21s CPU      0.05s WALL (       6 calls)

     Called by c_bands:
     init_us_2    :     13.34s CPU      2.39s WALL (    7865 calls)
     cegterg      :   2355.06s CPU    485.60s WALL (    3630 calls)

     Called by sum_band:
     sum_band:bec :      0.68s CPU      0.14s WALL (    3630 calls)
     addusdens    :      0.56s CPU      0.13s WALL (       6 calls)

     Called by *egterg:
     h_psi        :   1955.72s CPU    387.05s WALL (   12721 calls)
     s_psi        :    149.04s CPU     28.28s WALL (   12721 calls)
     g_psi        :      2.43s CPU      0.41s WALL (    8486 calls)
     cdiaghg      :     64.00s CPU     12.02s WALL (   11511 calls)
     cegterg:over :    128.15s CPU     30.90s WALL (    8486 calls)
     cegterg:upda :    177.10s CPU     35.53s WALL (    8486 calls)
     cegterg:last :     48.63s CPU      9.82s WALL (    3633 calls)

     Called by h_psi:
     h_psi:pot    :   1952.20s CPU    386.46s WALL (   12721 calls)
     h_psi:calbec :    225.00s CPU     44.85s WALL (   12721 calls)
     vloc_psi     :   1553.69s CPU    308.16s WALL (   12721 calls)
     add_vuspsi   :    171.37s CPU     33.10s WALL (   12721 calls)

     General routines
     calbec       :    374.69s CPU     77.25s WALL (   16351 calls)
     fft          :      0.88s CPU      0.22s WALL (      80 calls)
     fftw         :   1544.31s CPU    307.48s WALL (  238030 calls)
 
     Parallel routines
 
     PWSCF        : 48m35.62s CPU     9m37.81s WALL

 
   This run was terminated on:  17:11:14  24Jan2019            

=------------------------------------------------------------------------------=
   JOB DONE.
=------------------------------------------------------------------------------=
