
     Program PWSCF v.6.2 (svn rev. 14038) starts on 30Jan2019 at 22:11:10 

     This program is part of the open-source Quantum ESPRESSO suite
     for quantum simulation of materials; please cite
         "P. Giannozzi et al., J. Phys.:Condens. Matter 21 395502 (2009);
         "P. Giannozzi et al., J. Phys.:Condens. Matter 29 465901 (2017);
          URL http://www.quantum-espresso.org", 
     in publications or presentations arising from this work. More details at
     http://www.quantum-espresso.org/quote

     Parallel version (MPI), running on     2 processors

     MPI processes distributed on     1 nodes
     R & G space division:  proc/nbgrp/npool/nimage =       2
     Reading input from ./Alecut50.in
Warning: card &IONS ignored
Warning: card / ignored
Warning: card &CELL ignored
Warning: card / ignored

     Current dimensions of program PWSCF are:
     Max number of different atomic species (ntypx) = 10
     Max number of k-points (npk) =  40000
     Max angular momentum in pseudopotentials (lmaxx) =  3
     Message from routine iosys:
     minimal I/O required, wf_collect reset to FALSE

     Subspace diagonalization in iterative solution of the eigenvalue problem:
     a serial algorithm will be used

 
     Parallelization info
     --------------------
     sticks:   dense  smooth     PW     G-vecs:    dense   smooth      PW
     Min         205     205     82                 2711     2711     644
     Max         206     206     83                 2714     2714     645
     Sum         411     411    165                 5425     5425    1289
 


     bravais-lattice index     =            0
     lattice parameter (alat)  =       5.2705  a.u.
     unit-cell volume          =     112.7033 (a.u.)^3
     number of atoms/cell      =            1
     number of atomic types    =            1
     number of electrons       =         3.00
     number of Kohn-Sham states=            6
     kinetic-energy cutoff     =      50.0000  Ry
     charge density cutoff     =     200.0000  Ry
     convergence threshold     =      1.0E-06
     mixing beta               =       0.7000
     number of iterations used =            8  plain     mixing
     Exchange-correlation      = SLA  PW   PBE  PBE ( 1  4  3  4 0 0)

     celldm(1)=   5.270512  celldm(2)=   0.000000  celldm(3)=   0.000000
     celldm(4)=   0.000000  celldm(5)=   0.000000  celldm(6)=   0.000000

     crystal axes: (cart. coord. in units of alat)
               a(1) = (   0.577350   0.577350   0.577350 )  
               a(2) = (   0.577350  -0.577350  -0.577350 )  
               a(3) = (  -0.577350   0.577350  -0.577350 )  

     reciprocal axes: (cart. coord. in units 2 pi/alat)
               b(1) = (  0.866025  0.866025  0.000000 )  
               b(2) = (  0.866025  0.000000 -0.866025 )  
               b(3) = (  0.000000  0.866025 -0.866025 )  


     PseudoPot. # 1 for Al read from file:
     ./al_pbe_v1.uspp.F.UPF
     MD5 check sum: 0a6289f5291fc8f409219462bc851e1f
     Pseudo is Ultrasoft + core correction, Zval =  3.0
     Generated by new atomic code, or converted to UPF format
     Using radial grid of  893 points,  3 beta functions with: 
                l(1) =   0
                l(2) =   1
                l(3) =   2
     Q(r) pseudized with  8 coefficients,  rinner =    0.900   0.900   0.900
                                                       0.900   0.900

     atomic species   valence    mass     pseudopotential
        Al             3.00    26.98150     Al( 1.00)

     48 Sym. Ops., with inversion, found


                                    s                        frac. trans.

      isym =  1     identity                                     

 cryst.   s( 1) = (     1          0          0      )
                  (     0          1          0      )
                  (     0          0          1      )

 cart.    s( 1) = (  1.0000000  0.0000000  0.0000000 )
                  (  0.0000000  1.0000000  0.0000000 )
                  (  0.0000000  0.0000000  1.0000000 )


      isym =  2     180 deg rotation - cart. axis [0,0,1]        

 cryst.   s( 2) = (    -1         -1         -1      )
                  (     0          0          1      )
                  (     0          1          0      )

 cart.    s( 2) = ( -1.0000000  0.0000000  0.0000000 )
                  (  0.0000000 -1.0000000  0.0000000 )
                  (  0.0000000  0.0000000  1.0000000 )


      isym =  3     180 deg rotation - cart. axis [0,1,0]        

 cryst.   s( 3) = (     0          0          1      )
                  (    -1         -1         -1      )
                  (     1          0          0      )

 cart.    s( 3) = ( -1.0000000  0.0000000  0.0000000 )
                  (  0.0000000  1.0000000  0.0000000 )
                  (  0.0000000  0.0000000 -1.0000000 )


      isym =  4     180 deg rotation - cart. axis [1,0,0]        

 cryst.   s( 4) = (     0          1          0      )
                  (     1          0          0      )
                  (    -1         -1         -1      )

 cart.    s( 4) = (  1.0000000  0.0000000  0.0000000 )
                  (  0.0000000 -1.0000000  0.0000000 )
                  (  0.0000000  0.0000000 -1.0000000 )


      isym =  5     180 deg rotation - cart. axis [1,1,0]        

 cryst.   s( 5) = (     1          1          1      )
                  (     0         -1          0      )
                  (     0          0         -1      )

 cart.    s( 5) = (  0.0000000  1.0000000  0.0000000 )
                  (  1.0000000  0.0000000  0.0000000 )
                  (  0.0000000  0.0000000 -1.0000000 )


      isym =  6     180 deg rotation - cart. axis [1,-1,0]       

 cryst.   s( 6) = (    -1          0          0      )
                  (     0          0         -1      )
                  (     0         -1          0      )

 cart.    s( 6) = (  0.0000000 -1.0000000  0.0000000 )
                  ( -1.0000000  0.0000000  0.0000000 )
                  (  0.0000000  0.0000000 -1.0000000 )


      isym =  7      90 deg rotation - cart. axis [0,0,-1]       

 cryst.   s( 7) = (     0          0         -1      )
                  (    -1          0          0      )
                  (     1          1          1      )

 cart.    s( 7) = (  0.0000000  1.0000000  0.0000000 )
                  ( -1.0000000  0.0000000  0.0000000 )
                  (  0.0000000  0.0000000  1.0000000 )


      isym =  8      90 deg rotation - cart. axis [0,0,1]        

 cryst.   s( 8) = (     0         -1          0      )
                  (     1          1          1      )
                  (    -1          0          0      )

 cart.    s( 8) = (  0.0000000 -1.0000000  0.0000000 )
                  (  1.0000000  0.0000000  0.0000000 )
                  (  0.0000000  0.0000000  1.0000000 )


      isym =  9     180 deg rotation - cart. axis [1,0,1]        

 cryst.   s( 9) = (     0          0         -1      )
                  (     0         -1          0      )
                  (    -1          0          0      )

 cart.    s( 9) = (  0.0000000  0.0000000  1.0000000 )
                  (  0.0000000 -1.0000000  0.0000000 )
                  (  1.0000000  0.0000000  0.0000000 )


      isym = 10     180 deg rotation - cart. axis [-1,0,1]       

 cryst.   s(10) = (    -1          0          0      )
                  (     1          1          1      )
                  (     0          0         -1      )

 cart.    s(10) = (  0.0000000  0.0000000 -1.0000000 )
                  (  0.0000000 -1.0000000  0.0000000 )
                  ( -1.0000000  0.0000000  0.0000000 )


      isym = 11      90 deg rotation - cart. axis [0,1,0]        

 cryst.   s(11) = (     1          1          1      )
                  (    -1          0          0      )
                  (     0         -1          0      )

 cart.    s(11) = (  0.0000000  0.0000000  1.0000000 )
                  (  0.0000000  1.0000000  0.0000000 )
                  ( -1.0000000  0.0000000  0.0000000 )


      isym = 12      90 deg rotation - cart. axis [0,-1,0]       

 cryst.   s(12) = (     0         -1          0      )
                  (     0          0         -1      )
                  (     1          1          1      )

 cart.    s(12) = (  0.0000000  0.0000000 -1.0000000 )
                  (  0.0000000  1.0000000  0.0000000 )
                  (  1.0000000  0.0000000  0.0000000 )


      isym = 13     180 deg rotation - cart. axis [0,1,1]        

 cryst.   s(13) = (     0         -1          0      )
                  (    -1          0          0      )
                  (     0          0         -1      )

 cart.    s(13) = ( -1.0000000  0.0000000  0.0000000 )
                  (  0.0000000  0.0000000  1.0000000 )
                  (  0.0000000  1.0000000  0.0000000 )


      isym = 14     180 deg rotation - cart. axis [0,1,-1]       

 cryst.   s(14) = (    -1          0          0      )
                  (     0         -1          0      )
                  (     1          1          1      )

 cart.    s(14) = ( -1.0000000  0.0000000  0.0000000 )
                  (  0.0000000  0.0000000 -1.0000000 )
                  (  0.0000000 -1.0000000  0.0000000 )


      isym = 15      90 deg rotation - cart. axis [-1,0,0]       

 cryst.   s(15) = (     1          1          1      )
                  (     0          0         -1      )
                  (    -1          0          0      )

 cart.    s(15) = (  1.0000000  0.0000000  0.0000000 )
                  (  0.0000000  0.0000000  1.0000000 )
                  (  0.0000000 -1.0000000  0.0000000 )


      isym = 16      90 deg rotation - cart. axis [1,0,0]        

 cryst.   s(16) = (     0          0         -1      )
                  (     1          1          1      )
                  (     0         -1          0      )

 cart.    s(16) = (  1.0000000  0.0000000  0.0000000 )
                  (  0.0000000  0.0000000 -1.0000000 )
                  (  0.0000000  1.0000000  0.0000000 )


      isym = 17     120 deg rotation - cart. axis [-1,-1,-1]     

 cryst.   s(17) = (     1          0          0      )
                  (    -1         -1         -1      )
                  (     0          1          0      )

 cart.    s(17) = (  0.0000000  1.0000000  0.0000000 )
                  (  0.0000000  0.0000000  1.0000000 )
                  (  1.0000000  0.0000000  0.0000000 )


      isym = 18     120 deg rotation - cart. axis [-1,1,1]       

 cryst.   s(18) = (     0          0          1      )
                  (     0          1          0      )
                  (    -1         -1         -1      )

 cart.    s(18) = (  0.0000000 -1.0000000  0.0000000 )
                  (  0.0000000  0.0000000  1.0000000 )
                  ( -1.0000000  0.0000000  0.0000000 )


      isym = 19     120 deg rotation - cart. axis [1,1,-1]       

 cryst.   s(19) = (     0          1          0      )
                  (     0          0          1      )
                  (     1          0          0      )

 cart.    s(19) = (  0.0000000  1.0000000  0.0000000 )
                  (  0.0000000  0.0000000 -1.0000000 )
                  ( -1.0000000  0.0000000  0.0000000 )


      isym = 20     120 deg rotation - cart. axis [1,-1,1]       

 cryst.   s(20) = (    -1         -1         -1      )
                  (     1          0          0      )
                  (     0          0          1      )

 cart.    s(20) = (  0.0000000 -1.0000000  0.0000000 )
                  (  0.0000000  0.0000000 -1.0000000 )
                  (  1.0000000  0.0000000  0.0000000 )


      isym = 21     120 deg rotation - cart. axis [1,1,1]        

 cryst.   s(21) = (     1          0          0      )
                  (     0          0          1      )
                  (    -1         -1         -1      )

 cart.    s(21) = (  0.0000000  0.0000000  1.0000000 )
                  (  1.0000000  0.0000000  0.0000000 )
                  (  0.0000000  1.0000000  0.0000000 )


      isym = 22     120 deg rotation - cart. axis [-1,1,-1]      

 cryst.   s(22) = (     0          1          0      )
                  (    -1         -1         -1      )
                  (     0          0          1      )

 cart.    s(22) = (  0.0000000  0.0000000  1.0000000 )
                  ( -1.0000000  0.0000000  0.0000000 )
                  (  0.0000000 -1.0000000  0.0000000 )


      isym = 23     120 deg rotation - cart. axis [1,-1,-1]      

 cryst.   s(23) = (    -1         -1         -1      )
                  (     0          1          0      )
                  (     1          0          0      )

 cart.    s(23) = (  0.0000000  0.0000000 -1.0000000 )
                  ( -1.0000000  0.0000000  0.0000000 )
                  (  0.0000000  1.0000000  0.0000000 )


      isym = 24     120 deg rotation - cart. axis [-1,-1,1]      

 cryst.   s(24) = (     0          0          1      )
                  (     1          0          0      )
                  (     0          1          0      )

 cart.    s(24) = (  0.0000000  0.0000000 -1.0000000 )
                  (  1.0000000  0.0000000  0.0000000 )
                  (  0.0000000 -1.0000000  0.0000000 )


      isym = 25     inversion                                    

 cryst.   s(25) = (    -1          0          0      )
                  (     0         -1          0      )
                  (     0          0         -1      )

 cart.    s(25) = ( -1.0000000  0.0000000  0.0000000 )
                  (  0.0000000 -1.0000000  0.0000000 )
                  (  0.0000000  0.0000000 -1.0000000 )


      isym = 26     inv. 180 deg rotation - cart. axis [0,0,1]   

 cryst.   s(26) = (     1          1          1      )
                  (     0          0         -1      )
                  (     0         -1          0      )

 cart.    s(26) = (  1.0000000  0.0000000  0.0000000 )
                  (  0.0000000  1.0000000  0.0000000 )
                  (  0.0000000  0.0000000 -1.0000000 )


      isym = 27     inv. 180 deg rotation - cart. axis [0,1,0]   

 cryst.   s(27) = (     0          0         -1      )
                  (     1          1          1      )
                  (    -1          0          0      )

 cart.    s(27) = (  1.0000000  0.0000000  0.0000000 )
                  (  0.0000000 -1.0000000  0.0000000 )
                  (  0.0000000  0.0000000  1.0000000 )


      isym = 28     inv. 180 deg rotation - cart. axis [1,0,0]   

 cryst.   s(28) = (     0         -1          0      )
                  (    -1          0          0      )
                  (     1          1          1      )

 cart.    s(28) = ( -1.0000000  0.0000000  0.0000000 )
                  (  0.0000000  1.0000000  0.0000000 )
                  (  0.0000000  0.0000000  1.0000000 )


      isym = 29     inv. 180 deg rotation - cart. axis [1,1,0]   

 cryst.   s(29) = (    -1         -1         -1      )
                  (     0          1          0      )
                  (     0          0          1      )

 cart.    s(29) = (  0.0000000 -1.0000000  0.0000000 )
                  ( -1.0000000  0.0000000  0.0000000 )
                  (  0.0000000  0.0000000  1.0000000 )


      isym = 30     inv. 180 deg rotation - cart. axis [1,-1,0]  

 cryst.   s(30) = (     1          0          0      )
                  (     0          0          1      )
                  (     0          1          0      )

 cart.    s(30) = (  0.0000000  1.0000000  0.0000000 )
                  (  1.0000000  0.0000000  0.0000000 )
                  (  0.0000000  0.0000000  1.0000000 )


      isym = 31     inv.  90 deg rotation - cart. axis [0,0,-1]  

 cryst.   s(31) = (     0          0          1      )
                  (     1          0          0      )
                  (    -1         -1         -1      )

 cart.    s(31) = (  0.0000000 -1.0000000  0.0000000 )
                  (  1.0000000  0.0000000  0.0000000 )
                  (  0.0000000  0.0000000 -1.0000000 )


      isym = 32     inv.  90 deg rotation - cart. axis [0,0,1]   

 cryst.   s(32) = (     0          1          0      )
                  (    -1         -1         -1      )
                  (     1          0          0      )

 cart.    s(32) = (  0.0000000  1.0000000  0.0000000 )
                  ( -1.0000000  0.0000000  0.0000000 )
                  (  0.0000000  0.0000000 -1.0000000 )


      isym = 33     inv. 180 deg rotation - cart. axis [1,0,1]   

 cryst.   s(33) = (     0          0          1      )
                  (     0          1          0      )
                  (     1          0          0      )

 cart.    s(33) = (  0.0000000  0.0000000 -1.0000000 )
                  (  0.0000000  1.0000000  0.0000000 )
                  ( -1.0000000  0.0000000  0.0000000 )


      isym = 34     inv. 180 deg rotation - cart. axis [-1,0,1]  

 cryst.   s(34) = (     1          0          0      )
                  (    -1         -1         -1      )
                  (     0          0          1      )

 cart.    s(34) = (  0.0000000  0.0000000  1.0000000 )
                  (  0.0000000  1.0000000  0.0000000 )
                  (  1.0000000  0.0000000  0.0000000 )


      isym = 35     inv.  90 deg rotation - cart. axis [0,1,0]   

 cryst.   s(35) = (    -1         -1         -1      )
                  (     1          0          0      )
                  (     0          1          0      )

 cart.    s(35) = (  0.0000000  0.0000000 -1.0000000 )
                  (  0.0000000 -1.0000000  0.0000000 )
                  (  1.0000000  0.0000000  0.0000000 )


      isym = 36     inv.  90 deg rotation - cart. axis [0,-1,0]  

 cryst.   s(36) = (     0          1          0      )
                  (     0          0          1      )
                  (    -1         -1         -1      )

 cart.    s(36) = (  0.0000000  0.0000000  1.0000000 )
                  (  0.0000000 -1.0000000  0.0000000 )
                  ( -1.0000000  0.0000000  0.0000000 )


      isym = 37     inv. 180 deg rotation - cart. axis [0,1,1]   

 cryst.   s(37) = (     0          1          0      )
                  (     1          0          0      )
                  (     0          0          1      )

 cart.    s(37) = (  1.0000000  0.0000000  0.0000000 )
                  (  0.0000000  0.0000000 -1.0000000 )
                  (  0.0000000 -1.0000000  0.0000000 )


      isym = 38     inv. 180 deg rotation - cart. axis [0,1,-1]  

 cryst.   s(38) = (     1          0          0      )
                  (     0          1          0      )
                  (    -1         -1         -1      )

 cart.    s(38) = (  1.0000000  0.0000000  0.0000000 )
                  (  0.0000000  0.0000000  1.0000000 )
                  (  0.0000000  1.0000000  0.0000000 )


      isym = 39     inv.  90 deg rotation - cart. axis [-1,0,0]  

 cryst.   s(39) = (    -1         -1         -1      )
                  (     0          0          1      )
                  (     1          0          0      )

 cart.    s(39) = ( -1.0000000  0.0000000  0.0000000 )
                  (  0.0000000  0.0000000 -1.0000000 )
                  (  0.0000000  1.0000000  0.0000000 )


      isym = 40     inv.  90 deg rotation - cart. axis [1,0,0]   

 cryst.   s(40) = (     0          0          1      )
                  (    -1         -1         -1      )
                  (     0          1          0      )

 cart.    s(40) = ( -1.0000000  0.0000000  0.0000000 )
                  (  0.0000000  0.0000000  1.0000000 )
                  (  0.0000000 -1.0000000  0.0000000 )


      isym = 41     inv. 120 deg rotation - cart. axis [-1,-1,-1]

 cryst.   s(41) = (    -1          0          0      )
                  (     1          1          1      )
                  (     0         -1          0      )

 cart.    s(41) = (  0.0000000 -1.0000000  0.0000000 )
                  (  0.0000000  0.0000000 -1.0000000 )
                  ( -1.0000000  0.0000000  0.0000000 )


      isym = 42     inv. 120 deg rotation - cart. axis [-1,1,1]  

 cryst.   s(42) = (     0          0         -1      )
                  (     0         -1          0      )
                  (     1          1          1      )

 cart.    s(42) = (  0.0000000  1.0000000  0.0000000 )
                  (  0.0000000  0.0000000 -1.0000000 )
                  (  1.0000000  0.0000000  0.0000000 )


      isym = 43     inv. 120 deg rotation - cart. axis [1,1,-1]  

 cryst.   s(43) = (     0         -1          0      )
                  (     0          0         -1      )
                  (    -1          0          0      )

 cart.    s(43) = (  0.0000000 -1.0000000  0.0000000 )
                  (  0.0000000  0.0000000  1.0000000 )
                  (  1.0000000  0.0000000  0.0000000 )


      isym = 44     inv. 120 deg rotation - cart. axis [1,-1,1]  

 cryst.   s(44) = (     1          1          1      )
                  (    -1          0          0      )
                  (     0          0         -1      )

 cart.    s(44) = (  0.0000000  1.0000000  0.0000000 )
                  (  0.0000000  0.0000000  1.0000000 )
                  ( -1.0000000  0.0000000  0.0000000 )


      isym = 45     inv. 120 deg rotation - cart. axis [1,1,1]   

 cryst.   s(45) = (    -1          0          0      )
                  (     0          0         -1      )
                  (     1          1          1      )

 cart.    s(45) = (  0.0000000  0.0000000 -1.0000000 )
                  ( -1.0000000  0.0000000  0.0000000 )
                  (  0.0000000 -1.0000000  0.0000000 )


      isym = 46     inv. 120 deg rotation - cart. axis [-1,1,-1] 

 cryst.   s(46) = (     0         -1          0      )
                  (     1          1          1      )
                  (     0          0         -1      )

 cart.    s(46) = (  0.0000000  0.0000000 -1.0000000 )
                  (  1.0000000  0.0000000  0.0000000 )
                  (  0.0000000  1.0000000  0.0000000 )


      isym = 47     inv. 120 deg rotation - cart. axis [1,-1,-1] 

 cryst.   s(47) = (     1          1          1      )
                  (     0         -1          0      )
                  (    -1          0          0      )

 cart.    s(47) = (  0.0000000  0.0000000  1.0000000 )
                  (  1.0000000  0.0000000  0.0000000 )
                  (  0.0000000 -1.0000000  0.0000000 )


      isym = 48     inv. 120 deg rotation - cart. axis [-1,-1,1] 

 cryst.   s(48) = (     0          0         -1      )
                  (    -1          0          0      )
                  (     0         -1          0      )

 cart.    s(48) = (  0.0000000  0.0000000  1.0000000 )
                  ( -1.0000000  0.0000000  0.0000000 )
                  (  0.0000000  1.0000000  0.0000000 )


   Cartesian axes

     site n.     atom                  positions (alat units)
         1           Al  tau(   1) = (   0.0000000   0.0000000   0.0000000  )

   Crystallographic axes

     site n.     atom                  positions (cryst. coord.)
         1           Al  tau(   1) = (  0.0000000  0.0000000  0.0000000  )

     number of k points=   195  Marzari-Vanderbilt smearing, width (Ry)=  0.0100
                       cart. coord. in units 2pi/alat
        k(    1) = (   0.0000000   0.0000000   0.0000000), wk =   0.0003429
        k(    2) = (   0.0000000   0.0481125  -0.0481125), wk =   0.0041152
        k(    3) = (   0.0000000   0.0962250  -0.0962250), wk =   0.0041152
        k(    4) = (   0.0000000   0.1443376  -0.1443376), wk =   0.0041152
        k(    5) = (   0.0000000   0.1924501  -0.1924501), wk =   0.0041152
        k(    6) = (   0.0000000   0.2405626  -0.2405626), wk =   0.0041152
        k(    7) = (   0.0000000   0.2886751  -0.2886751), wk =   0.0041152
        k(    8) = (   0.0000000   0.3367877  -0.3367877), wk =   0.0041152
        k(    9) = (   0.0000000   0.3849002  -0.3849002), wk =   0.0041152
        k(   10) = (   0.0000000  -0.4330127   0.4330127), wk =   0.0020576
        k(   11) = (   0.0481125   0.0481125  -0.0962250), wk =   0.0082305
        k(   12) = (   0.0481125   0.0962250  -0.1443376), wk =   0.0164609
        k(   13) = (   0.0481125   0.1443376  -0.1924501), wk =   0.0164609
        k(   14) = (   0.0481125   0.1924501  -0.2405626), wk =   0.0164609
        k(   15) = (   0.0481125   0.2405626  -0.2886751), wk =   0.0164609
        k(   16) = (   0.0481125   0.2886751  -0.3367877), wk =   0.0164609
        k(   17) = (   0.0481125   0.3367877  -0.3849002), wk =   0.0164609
        k(   18) = (   0.0481125   0.3849002  -0.4330127), wk =   0.0164609
        k(   19) = (   0.0962250   0.0962250  -0.1924501), wk =   0.0082305
        k(   20) = (   0.0962250   0.1443376  -0.2405626), wk =   0.0164609
        k(   21) = (   0.0962250   0.1924501  -0.2886751), wk =   0.0164609
        k(   22) = (   0.0962250   0.2405626  -0.3367877), wk =   0.0164609
        k(   23) = (   0.0962250   0.2886751  -0.3849002), wk =   0.0164609
        k(   24) = (   0.0962250   0.3367877  -0.4330127), wk =   0.0164609
        k(   25) = (   0.0962250   0.3849002  -0.4811252), wk =   0.0082305
        k(   26) = (   0.1443376   0.1443376  -0.2886751), wk =   0.0082305
        k(   27) = (   0.1443376   0.1924501  -0.3367877), wk =   0.0164609
        k(   28) = (   0.1443376   0.2405626  -0.3849002), wk =   0.0164609
        k(   29) = (   0.1443376   0.2886751  -0.4330127), wk =   0.0164609
        k(   30) = (   0.1443376   0.3367877  -0.4811252), wk =   0.0164609
        k(   31) = (   0.1924501   0.1924501  -0.3849002), wk =   0.0082305
        k(   32) = (   0.1924501   0.2405626  -0.4330127), wk =   0.0164609
        k(   33) = (   0.1924501   0.2886751  -0.4811252), wk =   0.0164609
        k(   34) = (   0.1924501   0.3367877  -0.5292377), wk =   0.0082305
        k(   35) = (   0.2405626   0.2405626  -0.4811252), wk =   0.0082305
        k(   36) = (   0.2405626   0.2886751  -0.5292377), wk =   0.0164609
        k(   37) = (   0.2886751   0.2886751  -0.5773503), wk =   0.0027435
        k(   38) = (   0.0962250   0.0962250  -0.0962250), wk =   0.0027435
        k(   39) = (   0.0962250   0.1443376  -0.1443376), wk =   0.0082305
        k(   40) = (   0.0962250   0.1924501  -0.1924501), wk =   0.0082305
        k(   41) = (   0.0962250   0.2405626  -0.2405626), wk =   0.0082305
        k(   42) = (   0.0962250   0.2886751  -0.2886751), wk =   0.0082305
        k(   43) = (   0.0962250   0.3367877  -0.3367877), wk =   0.0082305
        k(   44) = (   0.0962250   0.3849002  -0.3849002), wk =   0.0082305
        k(   45) = (   0.0962250   0.4330127  -0.4330127), wk =   0.0041152
        k(   46) = (   0.0962250  -0.0000000   0.0000000), wk =   0.0020576
        k(   47) = (   0.1443376   0.1443376  -0.1924501), wk =   0.0082305
        k(   48) = (   0.1443376   0.1924501  -0.2405626), wk =   0.0164609
        k(   49) = (   0.1443376   0.2405626  -0.2886751), wk =   0.0164609
        k(   50) = (   0.1443376   0.2886751  -0.3367877), wk =   0.0164609
        k(   51) = (   0.1443376   0.3367877  -0.3849002), wk =   0.0164609
        k(   52) = (   0.1443376   0.3849002  -0.4330127), wk =   0.0164609
        k(   53) = (   0.1443376  -0.0481125   0.0000000), wk =   0.0082305
        k(   54) = (   0.1924501   0.1924501  -0.2886751), wk =   0.0082305
        k(   55) = (   0.1924501   0.2405626  -0.3367877), wk =   0.0164609
        k(   56) = (   0.1924501   0.2886751  -0.3849002), wk =   0.0164609
        k(   57) = (   0.1924501   0.3367877  -0.4330127), wk =   0.0164609
        k(   58) = (   0.1924501   0.3849002  -0.4811252), wk =   0.0082305
        k(   59) = (   0.1924501  -0.0962250   0.0000000), wk =   0.0082305
        k(   60) = (   0.1924501  -0.0481125  -0.0481125), wk =   0.0082305
        k(   61) = (   0.2405626   0.2405626  -0.3849002), wk =   0.0082305
        k(   62) = (   0.2405626   0.2886751  -0.4330127), wk =   0.0164609
        k(   63) = (   0.2405626   0.3367877  -0.4811252), wk =   0.0164609
        k(   64) = (   0.2405626  -0.1443376   0.0000000), wk =   0.0082305
        k(   65) = (   0.2405626  -0.0962250  -0.0481125), wk =   0.0164609
        k(   66) = (   0.2886751   0.2886751  -0.4811252), wk =   0.0082305
        k(   67) = (   0.2886751   0.3367877  -0.5292377), wk =   0.0082305
        k(   68) = (   0.2886751  -0.1924501   0.0000000), wk =   0.0082305
        k(   69) = (   0.2886751  -0.1443376  -0.0481125), wk =   0.0164609
        k(   70) = (   0.2886751  -0.0962250  -0.0962250), wk =   0.0082305
        k(   71) = (   0.3367877  -0.2405626   0.0000000), wk =   0.0082305
        k(   72) = (   0.3367877  -0.1924501  -0.0481125), wk =   0.0164609
        k(   73) = (   0.3367877  -0.1443376  -0.0962250), wk =   0.0164609
        k(   74) = (   0.3849002  -0.2886751  -0.0000000), wk =   0.0082305
        k(   75) = (   0.3849002  -0.2405626  -0.0481125), wk =   0.0164609
        k(   76) = (   0.3849002  -0.1924501  -0.0962250), wk =   0.0164609
        k(   77) = (   0.3849002  -0.1443376  -0.1443376), wk =   0.0082305
        k(   78) = (   0.4330127  -0.3367877   0.0000000), wk =   0.0082305
        k(   79) = (   0.4330127  -0.2886751  -0.0481125), wk =   0.0164609
        k(   80) = (   0.4330127  -0.2405626  -0.0962250), wk =   0.0164609
        k(   81) = (   0.4330127  -0.1924501  -0.1443376), wk =   0.0164609
        k(   82) = (  -0.3849002  -0.3849002   0.8660254), wk =   0.0041152
        k(   83) = (  -0.3849002  -0.3367877   0.8179129), wk =   0.0164609
        k(   84) = (  -0.3849002  -0.2886751   0.7698004), wk =   0.0164609
        k(   85) = (  -0.3849002  -0.2405626   0.7216878), wk =   0.0164609
        k(   86) = (  -0.3849002  -0.1924501   0.6735753), wk =   0.0082305
        k(   87) = (  -0.3367877  -0.3367877   0.7698004), wk =   0.0082305
        k(   88) = (  -0.3367877  -0.2886751   0.7216878), wk =   0.0164609
        k(   89) = (  -0.3367877  -0.2405626   0.6735753), wk =   0.0164609
        k(   90) = (  -0.2886751  -0.2886751   0.6735753), wk =   0.0082305
        k(   91) = (  -0.2886751  -0.2405626   0.6254628), wk =   0.0082305
        k(   92) = (   0.1924501   0.1924501  -0.1924501), wk =   0.0027435
        k(   93) = (   0.1924501   0.2405626  -0.2405626), wk =   0.0082305
        k(   94) = (   0.1924501   0.2886751  -0.2886751), wk =   0.0082305
        k(   95) = (   0.1924501   0.3367877  -0.3367877), wk =   0.0082305
        k(   96) = (   0.1924501   0.3849002  -0.3849002), wk =   0.0082305
        k(   97) = (   0.1924501   0.4330127  -0.4330127), wk =   0.0041152
        k(   98) = (   0.1924501  -0.0000000   0.0000000), wk =   0.0020576
        k(   99) = (   0.2405626   0.2405626  -0.2886751), wk =   0.0082305
        k(  100) = (   0.2405626   0.2886751  -0.3367877), wk =   0.0164609
        k(  101) = (   0.2405626   0.3367877  -0.3849002), wk =   0.0164609
        k(  102) = (   0.2405626   0.3849002  -0.4330127), wk =   0.0164609
        k(  103) = (   0.2405626  -0.0481125   0.0000000), wk =   0.0082305
        k(  104) = (   0.2886751   0.2886751  -0.3849002), wk =   0.0082305
        k(  105) = (   0.2886751   0.3367877  -0.4330127), wk =   0.0164609
        k(  106) = (   0.2886751   0.3849002  -0.4811252), wk =   0.0082305
        k(  107) = (   0.2886751  -0.0962250   0.0000000), wk =   0.0082305
        k(  108) = (   0.2886751  -0.0481125  -0.0481125), wk =   0.0082305
        k(  109) = (   0.3367877   0.3367877  -0.4811252), wk =   0.0082305
        k(  110) = (   0.3367877  -0.1443376   0.0000000), wk =   0.0082305
        k(  111) = (   0.3367877  -0.0962250  -0.0481125), wk =   0.0164609
        k(  112) = (   0.3849002  -0.1924501   0.0000000), wk =   0.0082305
        k(  113) = (   0.3849002  -0.1443376  -0.0481125), wk =   0.0164609
        k(  114) = (   0.3849002  -0.0962250  -0.0962250), wk =   0.0082305
        k(  115) = (   0.4330127  -0.2405626  -0.0000000), wk =   0.0082305
        k(  116) = (   0.4330127  -0.1924501  -0.0481125), wk =   0.0164609
        k(  117) = (   0.4330127  -0.1443376  -0.0962250), wk =   0.0164609
        k(  118) = (   0.4811252  -0.2886751   0.0000000), wk =   0.0082305
        k(  119) = (   0.4811252  -0.2405626  -0.0481125), wk =   0.0164609
        k(  120) = (   0.4811252  -0.1924501  -0.0962250), wk =   0.0164609
        k(  121) = (   0.4811252  -0.1443376  -0.1443376), wk =   0.0082305
        k(  122) = (  -0.3367877  -0.3367877   0.8660254), wk =   0.0041152
        k(  123) = (  -0.3367877  -0.2886751   0.8179129), wk =   0.0164609
        k(  124) = (  -0.3367877  -0.2405626   0.7698004), wk =   0.0164609
        k(  125) = (  -0.3367877  -0.1924501   0.7216878), wk =   0.0164609
        k(  126) = (  -0.2886751  -0.2886751   0.7698004), wk =   0.0082305
        k(  127) = (  -0.2886751  -0.2405626   0.7216878), wk =   0.0164609
        k(  128) = (  -0.2886751  -0.1924501   0.6735753), wk =   0.0082305
        k(  129) = (  -0.2405626  -0.2405626   0.6735753), wk =   0.0082305
        k(  130) = (   0.2886751   0.2886751  -0.2886751), wk =   0.0027435
        k(  131) = (   0.2886751   0.3367877  -0.3367877), wk =   0.0082305
        k(  132) = (   0.2886751   0.3849002  -0.3849002), wk =   0.0082305
        k(  133) = (   0.2886751   0.4330127  -0.4330127), wk =   0.0041152
        k(  134) = (   0.2886751   0.0000000   0.0000000), wk =   0.0020576
        k(  135) = (   0.3367877   0.3367877  -0.3849002), wk =   0.0082305
        k(  136) = (   0.3367877   0.3849002  -0.4330127), wk =   0.0164609
        k(  137) = (   0.3367877  -0.0481125   0.0000000), wk =   0.0082305
        k(  138) = (   0.3849002   0.3849002  -0.4811252), wk =   0.0027435
        k(  139) = (   0.3849002  -0.0962250   0.0000000), wk =   0.0082305
        k(  140) = (   0.3849002  -0.0481125  -0.0481125), wk =   0.0082305
        k(  141) = (   0.4330127  -0.1443376   0.0000000), wk =   0.0082305
        k(  142) = (   0.4330127  -0.0962250  -0.0481125), wk =   0.0164609
        k(  143) = (   0.4811252  -0.1924501  -0.0000000), wk =   0.0082305
        k(  144) = (   0.4811252  -0.1443376  -0.0481125), wk =   0.0164609
        k(  145) = (   0.4811252  -0.0962250  -0.0962250), wk =   0.0082305
        k(  146) = (   0.5292377  -0.2405626   0.0000000), wk =   0.0082305
        k(  147) = (   0.5292377  -0.1924501  -0.0481125), wk =   0.0164609
        k(  148) = (   0.5292377  -0.1443376  -0.0962250), wk =   0.0164609
        k(  149) = (  -0.2886751  -0.2886751   0.8660254), wk =   0.0041152
        k(  150) = (  -0.2886751  -0.2405626   0.8179129), wk =   0.0164609
        k(  151) = (  -0.2886751  -0.1924501   0.7698004), wk =   0.0164609
        k(  152) = (  -0.2886751  -0.1443376   0.7216878), wk =   0.0082305
        k(  153) = (  -0.2405626  -0.2405626   0.7698004), wk =   0.0082305
        k(  154) = (  -0.2405626  -0.1924501   0.7216878), wk =   0.0164609
        k(  155) = (  -0.1924501  -0.1924501   0.6735753), wk =   0.0027435
        k(  156) = (   0.3849002   0.3849002  -0.3849002), wk =   0.0027435
        k(  157) = (   0.3849002   0.4330127  -0.4330127), wk =   0.0041152
        k(  158) = (   0.3849002   0.0000000   0.0000000), wk =   0.0020576
        k(  159) = (   0.4330127  -0.0481125   0.0000000), wk =   0.0082305
        k(  160) = (   0.4811252  -0.0962250   0.0000000), wk =   0.0082305
        k(  161) = (   0.4811252  -0.0481125  -0.0481125), wk =   0.0082305
        k(  162) = (   0.5292377  -0.1443376  -0.0000000), wk =   0.0082305
        k(  163) = (   0.5292377  -0.0962250  -0.0481125), wk =   0.0164609
        k(  164) = (   0.5773503  -0.1924501   0.0000000), wk =   0.0082305
        k(  165) = (   0.5773503  -0.1443376  -0.0481125), wk =   0.0164609
        k(  166) = (   0.5773503  -0.0962250  -0.0962250), wk =   0.0082305
        k(  167) = (  -0.2405626  -0.2405626   0.8660254), wk =   0.0041152
        k(  168) = (  -0.2405626  -0.1924501   0.8179129), wk =   0.0164609
        k(  169) = (  -0.2405626  -0.1443376   0.7698004), wk =   0.0164609
        k(  170) = (  -0.1924501  -0.1924501   0.7698004), wk =   0.0082305
        k(  171) = (  -0.1924501  -0.1443376   0.7216878), wk =   0.0082305
        k(  172) = (   0.4811252   0.0000000   0.0000000), wk =   0.0020576
        k(  173) = (   0.5292377  -0.0481125   0.0000000), wk =   0.0082305
        k(  174) = (   0.5773503  -0.0962250  -0.0000000), wk =   0.0082305
        k(  175) = (   0.5773503  -0.0481125  -0.0481125), wk =   0.0082305
        k(  176) = (   0.6254628  -0.1443376   0.0000000), wk =   0.0082305
        k(  177) = (   0.6254628  -0.0962250  -0.0481125), wk =   0.0164609
        k(  178) = (  -0.1924501  -0.1924501   0.8660254), wk =   0.0041152
        k(  179) = (  -0.1924501  -0.1443376   0.8179129), wk =   0.0164609
        k(  180) = (  -0.1924501  -0.0962250   0.7698004), wk =   0.0082305
        k(  181) = (  -0.1443376  -0.1443376   0.7698004), wk =   0.0082305
        k(  182) = (   0.5773503  -0.0000000   0.0000000), wk =   0.0020576
        k(  183) = (   0.6254628  -0.0481125  -0.0000000), wk =   0.0082305
        k(  184) = (   0.6735753  -0.0962250   0.0000000), wk =   0.0082305
        k(  185) = (   0.6735753  -0.0481125  -0.0481125), wk =   0.0082305
        k(  186) = (  -0.1443376  -0.1443376   0.8660254), wk =   0.0041152
        k(  187) = (  -0.1443376  -0.0962250   0.8179129), wk =   0.0164609
        k(  188) = (  -0.0962250  -0.0962250   0.7698004), wk =   0.0027435
        k(  189) = (   0.6735753   0.0000000  -0.0000000), wk =   0.0020576
        k(  190) = (   0.7216878  -0.0481125   0.0000000), wk =   0.0082305
        k(  191) = (  -0.0962250  -0.0962250   0.8660254), wk =   0.0041152
        k(  192) = (  -0.0962250  -0.0481125   0.8179129), wk =   0.0082305
        k(  193) = (   0.7698004   0.0000000   0.0000000), wk =   0.0020576
        k(  194) = (  -0.0481125  -0.0481125   0.8660254), wk =   0.0041152
        k(  195) = (  -0.8660254  -0.8660254   0.8660254), wk =   0.0003429

                       cryst. coord.
        k(    1) = (   0.0000000   0.0000000   0.0000000), wk =   0.0003429
        k(    2) = (   0.0000000   0.0000000   0.0555556), wk =   0.0041152
        k(    3) = (   0.0000000   0.0000000   0.1111111), wk =   0.0041152
        k(    4) = (   0.0000000   0.0000000   0.1666667), wk =   0.0041152
        k(    5) = (   0.0000000   0.0000000   0.2222222), wk =   0.0041152
        k(    6) = (   0.0000000   0.0000000   0.2777778), wk =   0.0041152
        k(    7) = (   0.0000000   0.0000000   0.3333333), wk =   0.0041152
        k(    8) = (   0.0000000   0.0000000   0.3888889), wk =   0.0041152
        k(    9) = (   0.0000000   0.0000000   0.4444444), wk =   0.0041152
        k(   10) = (   0.0000000   0.0000000  -0.5000000), wk =   0.0020576
        k(   11) = (   0.0000000   0.0555556   0.0555556), wk =   0.0082305
        k(   12) = (   0.0000000   0.0555556   0.1111111), wk =   0.0164609
        k(   13) = (   0.0000000   0.0555556   0.1666667), wk =   0.0164609
        k(   14) = (   0.0000000   0.0555556   0.2222222), wk =   0.0164609
        k(   15) = (   0.0000000   0.0555556   0.2777778), wk =   0.0164609
        k(   16) = (   0.0000000   0.0555556   0.3333333), wk =   0.0164609
        k(   17) = (   0.0000000   0.0555556   0.3888889), wk =   0.0164609
        k(   18) = (   0.0000000   0.0555556   0.4444444), wk =   0.0164609
        k(   19) = (   0.0000000   0.1111111   0.1111111), wk =   0.0082305
        k(   20) = (   0.0000000   0.1111111   0.1666667), wk =   0.0164609
        k(   21) = (   0.0000000   0.1111111   0.2222222), wk =   0.0164609
        k(   22) = (  -0.0000000   0.1111111   0.2777778), wk =   0.0164609
        k(   23) = (   0.0000000   0.1111111   0.3333333), wk =   0.0164609
        k(   24) = (  -0.0000000   0.1111111   0.3888889), wk =   0.0164609
        k(   25) = (   0.0000000   0.1111111   0.4444444), wk =   0.0082305
        k(   26) = (   0.0000000   0.1666667   0.1666667), wk =   0.0082305
        k(   27) = (   0.0000000   0.1666667   0.2222222), wk =   0.0164609
        k(   28) = (   0.0000000   0.1666667   0.2777778), wk =   0.0164609
        k(   29) = (   0.0000000   0.1666667   0.3333333), wk =   0.0164609
        k(   30) = (   0.0000000   0.1666667   0.3888889), wk =   0.0164609
        k(   31) = (   0.0000000   0.2222222   0.2222222), wk =   0.0082305
        k(   32) = (   0.0000000   0.2222222   0.2777778), wk =   0.0164609
        k(   33) = (   0.0000000   0.2222222   0.3333333), wk =   0.0164609
        k(   34) = (   0.0000000   0.2222222   0.3888889), wk =   0.0082305
        k(   35) = (   0.0000000   0.2777778   0.2777778), wk =   0.0082305
        k(   36) = (   0.0000000   0.2777778   0.3333333), wk =   0.0164609
        k(   37) = (   0.0000000   0.3333333   0.3333333), wk =   0.0027435
        k(   38) = (   0.0555556   0.0555556   0.0555556), wk =   0.0027435
        k(   39) = (   0.0555556   0.0555556   0.1111111), wk =   0.0082305
        k(   40) = (   0.0555556   0.0555556   0.1666667), wk =   0.0082305
        k(   41) = (   0.0555556   0.0555556   0.2222222), wk =   0.0082305
        k(   42) = (   0.0555556   0.0555556   0.2777778), wk =   0.0082305
        k(   43) = (   0.0555556   0.0555556   0.3333333), wk =   0.0082305
        k(   44) = (   0.0555556   0.0555556   0.3888889), wk =   0.0082305
        k(   45) = (   0.0555556   0.0555556   0.4444444), wk =   0.0041152
        k(   46) = (   0.0555556   0.0555556  -0.0555556), wk =   0.0020576
        k(   47) = (   0.0555556   0.1111111   0.1111111), wk =   0.0082305
        k(   48) = (   0.0555556   0.1111111   0.1666667), wk =   0.0164609
        k(   49) = (   0.0555556   0.1111111   0.2222222), wk =   0.0164609
        k(   50) = (   0.0555556   0.1111111   0.2777778), wk =   0.0164609
        k(   51) = (   0.0555556   0.1111111   0.3333333), wk =   0.0164609
        k(   52) = (   0.0555556   0.1111111   0.3888889), wk =   0.0164609
        k(   53) = (   0.0555556   0.1111111  -0.1111111), wk =   0.0082305
        k(   54) = (   0.0555556   0.1666667   0.1666667), wk =   0.0082305
        k(   55) = (   0.0555556   0.1666667   0.2222222), wk =   0.0164609
        k(   56) = (   0.0555556   0.1666667   0.2777778), wk =   0.0164609
        k(   57) = (   0.0555556   0.1666667   0.3333333), wk =   0.0164609
        k(   58) = (   0.0555556   0.1666667   0.3888889), wk =   0.0082305
        k(   59) = (   0.0555556   0.1666667  -0.1666667), wk =   0.0082305
        k(   60) = (   0.0555556   0.1666667  -0.1111111), wk =   0.0082305
        k(   61) = (   0.0555556   0.2222222   0.2222222), wk =   0.0082305
        k(   62) = (   0.0555556   0.2222222   0.2777778), wk =   0.0164609
        k(   63) = (   0.0555556   0.2222222   0.3333333), wk =   0.0164609
        k(   64) = (   0.0555556   0.2222222  -0.2222222), wk =   0.0082305
        k(   65) = (   0.0555556   0.2222222  -0.1666667), wk =   0.0164609
        k(   66) = (   0.0555556   0.2777778   0.2777778), wk =   0.0082305
        k(   67) = (   0.0555556   0.2777778   0.3333333), wk =   0.0082305
        k(   68) = (   0.0555556   0.2777778  -0.2777778), wk =   0.0082305
        k(   69) = (   0.0555556   0.2777778  -0.2222222), wk =   0.0164609
        k(   70) = (   0.0555556   0.2777778  -0.1666667), wk =   0.0082305
        k(   71) = (   0.0555556   0.3333333  -0.3333333), wk =   0.0082305
        k(   72) = (   0.0555556   0.3333333  -0.2777778), wk =   0.0164609
        k(   73) = (   0.0555556   0.3333333  -0.2222222), wk =   0.0164609
        k(   74) = (   0.0555556   0.3888889  -0.3888889), wk =   0.0082305
        k(   75) = (   0.0555556   0.3888889  -0.3333333), wk =   0.0164609
        k(   76) = (   0.0555556   0.3888889  -0.2777778), wk =   0.0164609
        k(   77) = (   0.0555556   0.3888889  -0.2222222), wk =   0.0082305
        k(   78) = (   0.0555556   0.4444444  -0.4444444), wk =   0.0082305
        k(   79) = (   0.0555556   0.4444444  -0.3888889), wk =   0.0164609
        k(   80) = (   0.0555556   0.4444444  -0.3333333), wk =   0.0164609
        k(   81) = (   0.0555556   0.4444444  -0.2777778), wk =   0.0164609
        k(   82) = (   0.0555556  -0.5000000  -0.5000000), wk =   0.0041152
        k(   83) = (   0.0555556  -0.5000000  -0.4444444), wk =   0.0164609
        k(   84) = (   0.0555556  -0.5000000  -0.3888889), wk =   0.0164609
        k(   85) = (   0.0555556  -0.5000000  -0.3333333), wk =   0.0164609
        k(   86) = (   0.0555556  -0.5000000  -0.2777778), wk =   0.0082305
        k(   87) = (   0.0555556  -0.4444444  -0.4444444), wk =   0.0082305
        k(   88) = (   0.0555556  -0.4444444  -0.3888889), wk =   0.0164609
        k(   89) = (   0.0555556  -0.4444444  -0.3333333), wk =   0.0164609
        k(   90) = (   0.0555556  -0.3888889  -0.3888889), wk =   0.0082305
        k(   91) = (   0.0555556  -0.3888889  -0.3333333), wk =   0.0082305
        k(   92) = (   0.1111111   0.1111111   0.1111111), wk =   0.0027435
        k(   93) = (   0.1111111   0.1111111   0.1666667), wk =   0.0082305
        k(   94) = (   0.1111111   0.1111111   0.2222222), wk =   0.0082305
        k(   95) = (   0.1111111   0.1111111   0.2777778), wk =   0.0082305
        k(   96) = (   0.1111111   0.1111111   0.3333333), wk =   0.0082305
        k(   97) = (   0.1111111   0.1111111   0.3888889), wk =   0.0041152
        k(   98) = (   0.1111111   0.1111111  -0.1111111), wk =   0.0020576
        k(   99) = (   0.1111111   0.1666667   0.1666667), wk =   0.0082305
        k(  100) = (   0.1111111   0.1666667   0.2222222), wk =   0.0164609
        k(  101) = (   0.1111111   0.1666667   0.2777778), wk =   0.0164609
        k(  102) = (   0.1111111   0.1666667   0.3333333), wk =   0.0164609
        k(  103) = (   0.1111111   0.1666667  -0.1666667), wk =   0.0082305
        k(  104) = (   0.1111111   0.2222222   0.2222222), wk =   0.0082305
        k(  105) = (   0.1111111   0.2222222   0.2777778), wk =   0.0164609
        k(  106) = (   0.1111111   0.2222222   0.3333333), wk =   0.0082305
        k(  107) = (   0.1111111   0.2222222  -0.2222222), wk =   0.0082305
        k(  108) = (   0.1111111   0.2222222  -0.1666667), wk =   0.0082305
        k(  109) = (   0.1111111   0.2777778   0.2777778), wk =   0.0082305
        k(  110) = (   0.1111111   0.2777778  -0.2777778), wk =   0.0082305
        k(  111) = (   0.1111111   0.2777778  -0.2222222), wk =   0.0164609
        k(  112) = (   0.1111111   0.3333333  -0.3333333), wk =   0.0082305
        k(  113) = (   0.1111111   0.3333333  -0.2777778), wk =   0.0164609
        k(  114) = (   0.1111111   0.3333333  -0.2222222), wk =   0.0082305
        k(  115) = (   0.1111111   0.3888889  -0.3888889), wk =   0.0082305
        k(  116) = (   0.1111111   0.3888889  -0.3333333), wk =   0.0164609
        k(  117) = (   0.1111111   0.3888889  -0.2777778), wk =   0.0164609
        k(  118) = (   0.1111111   0.4444444  -0.4444444), wk =   0.0082305
        k(  119) = (   0.1111111   0.4444444  -0.3888889), wk =   0.0164609
        k(  120) = (   0.1111111   0.4444444  -0.3333333), wk =   0.0164609
        k(  121) = (   0.1111111   0.4444444  -0.2777778), wk =   0.0082305
        k(  122) = (   0.1111111  -0.5000000  -0.5000000), wk =   0.0041152
        k(  123) = (   0.1111111  -0.5000000  -0.4444444), wk =   0.0164609
        k(  124) = (   0.1111111  -0.5000000  -0.3888889), wk =   0.0164609
        k(  125) = (   0.1111111  -0.5000000  -0.3333333), wk =   0.0164609
        k(  126) = (   0.1111111  -0.4444444  -0.4444444), wk =   0.0082305
        k(  127) = (   0.1111111  -0.4444444  -0.3888889), wk =   0.0164609
        k(  128) = (   0.1111111  -0.4444444  -0.3333333), wk =   0.0082305
        k(  129) = (   0.1111111  -0.3888889  -0.3888889), wk =   0.0082305
        k(  130) = (   0.1666667   0.1666667   0.1666667), wk =   0.0027435
        k(  131) = (   0.1666667   0.1666667   0.2222222), wk =   0.0082305
        k(  132) = (   0.1666667   0.1666667   0.2777778), wk =   0.0082305
        k(  133) = (   0.1666667   0.1666667   0.3333333), wk =   0.0041152
        k(  134) = (   0.1666667   0.1666667  -0.1666667), wk =   0.0020576
        k(  135) = (   0.1666667   0.2222222   0.2222222), wk =   0.0082305
        k(  136) = (   0.1666667   0.2222222   0.2777778), wk =   0.0164609
        k(  137) = (   0.1666667   0.2222222  -0.2222222), wk =   0.0082305
        k(  138) = (   0.1666667   0.2777778   0.2777778), wk =   0.0027435
        k(  139) = (   0.1666667   0.2777778  -0.2777778), wk =   0.0082305
        k(  140) = (   0.1666667   0.2777778  -0.2222222), wk =   0.0082305
        k(  141) = (   0.1666667   0.3333333  -0.3333333), wk =   0.0082305
        k(  142) = (   0.1666667   0.3333333  -0.2777778), wk =   0.0164609
        k(  143) = (   0.1666667   0.3888889  -0.3888889), wk =   0.0082305
        k(  144) = (   0.1666667   0.3888889  -0.3333333), wk =   0.0164609
        k(  145) = (   0.1666667   0.3888889  -0.2777778), wk =   0.0082305
        k(  146) = (   0.1666667   0.4444444  -0.4444444), wk =   0.0082305
        k(  147) = (   0.1666667   0.4444444  -0.3888889), wk =   0.0164609
        k(  148) = (   0.1666667   0.4444444  -0.3333333), wk =   0.0164609
        k(  149) = (   0.1666667  -0.5000000  -0.5000000), wk =   0.0041152
        k(  150) = (   0.1666667  -0.5000000  -0.4444444), wk =   0.0164609
        k(  151) = (   0.1666667  -0.5000000  -0.3888889), wk =   0.0164609
        k(  152) = (   0.1666667  -0.5000000  -0.3333333), wk =   0.0082305
        k(  153) = (   0.1666667  -0.4444444  -0.4444444), wk =   0.0082305
        k(  154) = (   0.1666667  -0.4444444  -0.3888889), wk =   0.0164609
        k(  155) = (   0.1666667  -0.3888889  -0.3888889), wk =   0.0027435
        k(  156) = (   0.2222222   0.2222222   0.2222222), wk =   0.0027435
        k(  157) = (   0.2222222   0.2222222   0.2777778), wk =   0.0041152
        k(  158) = (   0.2222222   0.2222222  -0.2222222), wk =   0.0020576
        k(  159) = (   0.2222222   0.2777778  -0.2777778), wk =   0.0082305
        k(  160) = (   0.2222222   0.3333333  -0.3333333), wk =   0.0082305
        k(  161) = (   0.2222222   0.3333333  -0.2777778), wk =   0.0082305
        k(  162) = (   0.2222222   0.3888889  -0.3888889), wk =   0.0082305
        k(  163) = (   0.2222222   0.3888889  -0.3333333), wk =   0.0164609
        k(  164) = (   0.2222222   0.4444444  -0.4444444), wk =   0.0082305
        k(  165) = (   0.2222222   0.4444444  -0.3888889), wk =   0.0164609
        k(  166) = (   0.2222222   0.4444444  -0.3333333), wk =   0.0082305
        k(  167) = (   0.2222222  -0.5000000  -0.5000000), wk =   0.0041152
        k(  168) = (   0.2222222  -0.5000000  -0.4444444), wk =   0.0164609
        k(  169) = (   0.2222222  -0.5000000  -0.3888889), wk =   0.0164609
        k(  170) = (   0.2222222  -0.4444444  -0.4444444), wk =   0.0082305
        k(  171) = (   0.2222222  -0.4444444  -0.3888889), wk =   0.0082305
        k(  172) = (   0.2777778   0.2777778  -0.2777778), wk =   0.0020576
        k(  173) = (   0.2777778   0.3333333  -0.3333333), wk =   0.0082305
        k(  174) = (   0.2777778   0.3888889  -0.3888889), wk =   0.0082305
        k(  175) = (   0.2777778   0.3888889  -0.3333333), wk =   0.0082305
        k(  176) = (   0.2777778   0.4444444  -0.4444444), wk =   0.0082305
        k(  177) = (   0.2777778   0.4444444  -0.3888889), wk =   0.0164609
        k(  178) = (   0.2777778  -0.5000000  -0.5000000), wk =   0.0041152
        k(  179) = (   0.2777778  -0.5000000  -0.4444444), wk =   0.0164609
        k(  180) = (   0.2777778  -0.5000000  -0.3888889), wk =   0.0082305
        k(  181) = (   0.2777778  -0.4444444  -0.4444444), wk =   0.0082305
        k(  182) = (   0.3333333   0.3333333  -0.3333333), wk =   0.0020576
        k(  183) = (   0.3333333   0.3888889  -0.3888889), wk =   0.0082305
        k(  184) = (   0.3333333   0.4444444  -0.4444444), wk =   0.0082305
        k(  185) = (   0.3333333   0.4444444  -0.3888889), wk =   0.0082305
        k(  186) = (   0.3333333  -0.5000000  -0.5000000), wk =   0.0041152
        k(  187) = (   0.3333333  -0.5000000  -0.4444444), wk =   0.0164609
        k(  188) = (   0.3333333  -0.4444444  -0.4444444), wk =   0.0027435
        k(  189) = (   0.3888889   0.3888889  -0.3888889), wk =   0.0020576
        k(  190) = (   0.3888889   0.4444444  -0.4444444), wk =   0.0082305
        k(  191) = (   0.3888889  -0.5000000  -0.5000000), wk =   0.0041152
        k(  192) = (   0.3888889  -0.5000000  -0.4444444), wk =   0.0082305
        k(  193) = (   0.4444444   0.4444444  -0.4444444), wk =   0.0020576
        k(  194) = (   0.4444444  -0.5000000  -0.5000000), wk =   0.0041152
        k(  195) = (  -0.5000000  -0.5000000  -0.5000000), wk =   0.0003429

     Dense  grid:     5425 G-vectors     FFT dimensions: (  24,  24,  24)

     Dynamical RAM for                 wfc:       0.03 MB

     Dynamical RAM for     wfc (w. buffer):       6.03 MB

     Dynamical RAM for           str. fact:       0.04 MB

     Dynamical RAM for           local pot:       0.00 MB

     Dynamical RAM for          nlocal pot:       0.05 MB

     Dynamical RAM for                qrad:       0.27 MB

     Dynamical RAM for          rho,v,vnew:       0.28 MB

     Dynamical RAM for               rhoin:       0.09 MB

     Dynamical RAM for            rho*nmix:       0.66 MB

     Dynamical RAM for           G-vectors:       0.18 MB

     Dynamical RAM for          h,s,v(r/c):       0.03 MB

     Dynamical RAM for          <psi|beta>:       0.00 MB

     Dynamical RAM for                 psi:       0.12 MB

     Dynamical RAM for                hpsi:       0.12 MB

     Dynamical RAM for                spsi:       0.12 MB

     Dynamical RAM for      wfcinit/wfcrot:       0.06 MB

     Dynamical RAM for           addusdens:       2.52 MB

     Estimated static dynamical RAM per process >       7.95 MB

     Estimated max dynamical RAM per process >      10.47 MB

     Estimated total dynamical RAM >      20.95 MB

     Initial potential from superposition of free atoms

     starting charge    2.99753, renormalised to    3.00000
     Starting wfc are    4 randomized atomic wfcs +    2 random wfc

     total cpu time spent up to now is        0.4 secs

     Self-consistent Calculation

     iteration #  1     ecut=    50.00 Ry     beta= 0.70
     Davidson diagonalization with overlap
     ethr =  1.00E-02,  avg # of iterations =  4.8

     Threshold (ethr) on eigenvalues was too large:
     Diagonalizing with lowered threshold

     Davidson diagonalization with overlap
     ethr =  1.91E-04,  avg # of iterations =  1.6

     total cpu time spent up to now is        2.8 secs

     total energy              =      -6.70064022 Ry
     Harris-Foulkes estimate   =      -6.70270175 Ry
     estimated scf accuracy    <       0.00570943 Ry

     iteration #  2     ecut=    50.00 Ry     beta= 0.70
     Davidson diagonalization with overlap
     ethr =  1.90E-04,  avg # of iterations =  1.0

     total cpu time spent up to now is        3.4 secs

     total energy              =      -6.70067945 Ry
     Harris-Foulkes estimate   =      -6.70078429 Ry
     estimated scf accuracy    <       0.00030471 Ry

     iteration #  3     ecut=    50.00 Ry     beta= 0.70
     Davidson diagonalization with overlap
     ethr =  1.02E-05,  avg # of iterations =  1.7

     total cpu time spent up to now is        4.2 secs

     End of self-consistent calculation

          k = 0.0000 0.0000 0.0000 (   675 PWs)   bands (ev):

    -3.2976  20.9700  20.9703  22.0557  22.0557  22.0557

     occupation numbers 
     1.0000   0.0000   0.0000   0.0000   0.0000   0.0000

          k = 0.0000 0.0481-0.0481 (   671 PWs)   bands (ev):

    -3.2094  19.7487  20.1992  20.6050  21.7439  22.6120

     occupation numbers 
     1.0000   0.0000   0.0000   0.0000   0.0000   0.0000

          k = 0.0000 0.0962-0.0962 (   661 PWs)   bands (ev):

    -2.9451  17.6455  19.1939  19.7992  21.0212  22.1756

     occupation numbers 
     1.0000   0.0000   0.0000   0.0000   0.0000   0.0000

          k = 0.0000 0.1443-0.1443 (   658 PWs)   bands (ev):

    -2.5054  15.3767  18.2972  18.9041  20.2048  21.4116

     occupation numbers 
     1.0000   0.0000   0.0000   0.0000   0.0000   0.0000

          k = 0.0000 0.1925-0.1925 (   660 PWs)   bands (ev):

    -1.8917  13.1365  17.5337  18.0716  19.4459  20.7300

     occupation numbers 
     1.0000   0.0000   0.0000   0.0000   0.0000   0.0000

          k = 0.0000 0.2406-0.2406 (   668 PWs)   bands (ev):

    -1.1060  10.9899  16.9081  17.3599  18.7987  20.1377

     occupation numbers 
     1.0000   0.0000   0.0000   0.0000   0.0000   0.0000

          k = 0.0000 0.2887-0.2887 (   672 PWs)   bands (ev):

    -0.1509   8.9640  16.4215  16.7935  18.2849  19.6532

     occupation numbers 
     1.0000   0.0000   0.0000   0.0000   0.0000   0.0000

          k = 0.0000 0.3368-0.3368 (   664 PWs)   bands (ev):

     0.9698   7.0734  16.0742  16.3836  17.9138  19.2943

     occupation numbers 
     1.0000   1.0000   0.0000   0.0000   0.0000   0.0000

          k = 0.0000 0.3849-0.3849 (   670 PWs)   bands (ev):

     2.2484   5.3311  15.8658  16.1359  17.6899  19.0738

     occupation numbers 
     1.0000   1.0000   0.0000   0.0000   0.0000   0.0000

          k = 0.0000-0.4330 0.4330 (   678 PWs)   bands (ev):

     3.4821   3.9425  15.7964  16.0531  17.6150  18.9994

     occupation numbers 
     1.0000   1.0000   0.0000   0.0000   0.0000   0.0000

          k = 0.0481 0.0481-0.0962 (   664 PWs)   bands (ev):

    -3.0331  18.7268  18.7550  19.9241  21.7274  22.4936

     occupation numbers 
     1.0000   0.0000   0.0000   0.0000   0.0000   0.0000

          k = 0.0481 0.0962-0.1443 (   660 PWs)   bands (ev):

    -2.6811  16.5570  17.7561  19.0472  21.2065  22.0579

     occupation numbers 
     1.0000   0.0000   0.0000   0.0000   0.0000   0.0000

          k = 0.0481 0.1443-0.1925 (   665 PWs)   bands (ev):

    -2.1544  14.2995  16.8799  18.2091  20.4381  21.6485

     occupation numbers 
     1.0000   0.0000   0.0000   0.0000   0.0000   0.0000

          k = 0.0481 0.1925-0.2406 (   669 PWs)   bands (ev):

    -1.4547  12.1057  16.1335  17.4818  19.7309  21.1503

     occupation numbers 
     1.0000   0.0000   0.0000   0.0000   0.0000   0.0000

          k = 0.0481 0.2406-0.2887 (   668 PWs)   bands (ev):

    -0.5843  10.0198  15.5277  16.8896  19.1419  20.6768

     occupation numbers 
     1.0000   0.0000   0.0000   0.0000   0.0000   0.0000

          k = 0.0481 0.2887-0.3368 (   667 PWs)   bands (ev):

     0.4538   8.0617  15.0687  16.4418  18.6901  20.2903

     occupation numbers 
     1.0000   0.0003   0.0000   0.0000   0.0000   0.0000

          k = 0.0481 0.3368-0.3849 (   667 PWs)   bands (ev):

     1.6544   6.2445  14.7607  16.1421  18.3850  20.0204

     occupation numbers 
     1.0000   1.0000   0.0000   0.0000   0.0000   0.0000

          k = 0.0481 0.3849-0.4330 (   674 PWs)   bands (ev):

     2.9986   4.5912  14.6061  15.9920  18.2316  19.8823

     occupation numbers 
     1.0000   1.0000   0.0000   0.0000   0.0000   0.0000

          k = 0.0962 0.0962-0.1925 (   669 PWs)   bands (ev):

    -2.2421  15.4514  15.7107  18.2291  21.4855  21.5891

     occupation numbers 
     1.0000   0.0000   0.0000   0.0000   0.0000   0.0000

          k = 0.0962 0.1443-0.2406 (   669 PWs)   bands (ev):

    -1.6294  13.3445  14.7617  17.4691  20.8492  21.8619

     occupation numbers 
     1.0000   0.0000   0.0000   0.0000   0.0000   0.0000

          k = 0.0962 0.1925-0.2887 (   670 PWs)   bands (ev):

    -0.8449  11.2177  14.0560  16.8207  20.2208  22.0740

     occupation numbers 
     1.0000   0.0000   0.0000   0.0000   0.0000   0.0000

          k = 0.0962 0.2406-0.3368 (   668 PWs)   bands (ev):

     0.1086   9.2021  13.5051  16.3059  19.7096  22.0250

     occupation numbers 
     1.0000   0.0000   0.0000   0.0000   0.0000   0.0000

          k = 0.0962 0.2887-0.3849 (   666 PWs)   bands (ev):

     1.2273   7.3181  13.1098  15.9339  19.3359  21.8536

     occupation numbers 
     1.0000   1.0002   0.0000   0.0000   0.0000   0.0000

          k = 0.0962 0.3368-0.4330 (   675 PWs)   bands (ev):

     2.5033   5.5809  12.8720  15.7092  19.1088  21.7123

     occupation numbers 
     1.0000   1.0000   0.0000   0.0000   0.0000   0.0000

          k = 0.0962 0.3849-0.4811 (   678 PWs)   bands (ev):

     3.7307   4.1994  12.7925  15.6341  19.0326  21.6604

     occupation numbers 
     1.0000   1.0000   0.0000   0.0000   0.0000   0.0000

          k = 0.1443 0.1443-0.2887 (   672 PWs)   bands (ev):

    -0.9319  12.3482  12.8141  16.7830  21.2989  21.4681

     occupation numbers 
     1.0000   0.0000   0.0000   0.0000   0.0000   0.0000

          k = 0.1443 0.1925-0.3368 (   667 PWs)   bands (ev):

    -0.0643  10.4664  11.9930  16.2072  20.8494  22.0413

     occupation numbers 
     1.0000   0.0000   0.0000   0.0000   0.0000   0.0000

          k = 0.1443 0.2406-0.3849 (   670 PWs)   bands (ev):

     0.9702   8.5385  11.4949  15.7648  20.4295  22.7120

     occupation numbers 
     1.0000   0.0000   0.0000   0.0000   0.0000   0.0000

          k = 0.1443 0.2887-0.4330 (   671 PWs)   bands (ev):

     2.1663   6.7363  11.1678  15.4660  20.1394  23.2239

     occupation numbers 
     1.0000   1.0000   0.0000   0.0000   0.0000   0.0000

          k = 0.1443 0.3368-0.4811 (   677 PWs)   bands (ev):

     3.5036   5.0939  11.0046  15.3157  19.9920  23.4292

     occupation numbers 
     1.0000   1.0000   0.0000   0.0000   0.0000   0.0000

          k = 0.1925 0.1925-0.3849 (   674 PWs)   bands (ev):

     0.8843   9.6635  10.2338  15.7037  21.5170  21.7808

     occupation numbers 
     1.0000   0.0000   0.0000   0.0000   0.0000   0.0000

          k = 0.1925 0.2406-0.4330 (   672 PWs)   bands (ev):

     1.9968   8.0186   9.6024  15.3347  21.3059  22.5774

     occupation numbers 
     1.0000   0.0015   0.0000   0.0000   0.0000   0.0000

          k = 0.1925 0.2887-0.4811 (   678 PWs)   bands (ev):

     3.2643   6.3173   9.3342  15.1103  21.1046  23.5608

     occupation numbers 
     1.0000   1.0000   0.0000   0.0000   0.0000   0.0000

          k = 0.1925 0.3368-0.5292 (   678 PWs)   bands (ev):

     4.4758   4.9575   9.2479  15.0351  21.0353  24.3089

     occupation numbers 
     1.0000   1.0000   0.0000   0.0000   0.0000   0.0000

          k = 0.2406 0.2406-0.4811 (   677 PWs)   bands (ev):

     3.1822   7.4473   8.0557  15.0401  22.2235  22.4689

     occupation numbers 
     1.0000   1.0106   0.0004   0.0000   0.0000   0.0000

          k = 0.2406 0.2887-0.5292 (   682 PWs)   bands (ev):

     4.5039   6.0546   7.6584  14.8910  22.2133  23.4986

     occupation numbers 
     1.0000   1.0000   1.0080   0.0000   0.0000   0.0000

          k = 0.2887 0.2887-0.5774 (   676 PWs)   bands (ev):

     5.7158   5.7159   6.5514  14.8171  23.4048  23.5347

     occupation numbers 
     1.0000   1.0000   1.0000   0.0000   0.0000   0.0000

          k = 0.0962 0.0962-0.0962 (   658 PWs)   bands (ev):

    -2.7690  17.7866  17.7866  17.8127  22.7959  22.7960

     occupation numbers 
     1.0000   0.0000   0.0000   0.0000   0.0000   0.0000

          k = 0.0962 0.1443-0.1443 (   664 PWs)   bands (ev):

    -2.3298  15.5219  16.8232  16.9251  22.3142  22.8533

     occupation numbers 
     1.0000   0.0000   0.0000   0.0000   0.0000   0.0000

          k = 0.0962 0.1925-0.1925 (   667 PWs)   bands (ev):

    -1.7168  13.2869  15.9687  16.1511  21.7098  22.2485

     occupation numbers 
     1.0000   0.0000   0.0000   0.0000   0.0000   0.0000

          k = 0.0962 0.2406-0.2406 (   669 PWs)   bands (ev):

    -0.9319  11.1457  15.2540  15.5054  21.1271  21.7108

     occupation numbers 
     1.0000   0.0000   0.0000   0.0000   0.0000   0.0000

          k = 0.0962 0.2887-0.2887 (   667 PWs)   bands (ev):

     0.0222   9.1243  14.6915  14.9971  20.6396  21.2669

     occupation numbers 
     1.0000   0.0000   0.0000   0.0000   0.0000   0.0000

          k = 0.0962 0.3368-0.3368 (   668 PWs)   bands (ev):

     1.1416   7.2372  14.2870  14.6310  20.2786  20.9372

     occupation numbers 
     1.0000   1.0000   0.0000   0.0000   0.0000   0.0000

          k = 0.0962 0.3849-0.3849 (   673 PWs)   bands (ev):

     2.4184   5.4980  14.0434  14.4103  20.0580  20.7343

     occupation numbers 
     1.0000   1.0000   0.0000   0.0000   0.0000   0.0000

          k = 0.0962 0.4330-0.4330 (   670 PWs)   bands (ev):

     3.6479   4.1140  13.9620  14.3365  19.9839  20.6660

     occupation numbers 
     1.0000   1.0000   0.0000   0.0000   0.0000   0.0000

          k = 0.0962-0.0000 0.0000 (   667 PWs)   bands (ev):

    -3.1212  19.2859  19.2860  21.0991  21.1408  21.9230

     occupation numbers 
     1.0000   0.0000   0.0000   0.0000   0.0000   0.0000

          k = 0.1443 0.1443-0.1925 (   666 PWs)   bands (ev):

    -1.8042  14.4497  14.7730  16.0395  22.8396  23.1433

     occupation numbers 
     1.0000   0.0000   0.0000   0.0000   0.0000   0.0000

          k = 0.1443 0.1925-0.2406 (   666 PWs)   bands (ev):

    -1.1060  12.3986  13.8636  15.3024  22.4692  23.1789

     occupation numbers 
     1.0000   0.0000   0.0000   0.0000   0.0000   0.0000

          k = 0.1443 0.2406-0.2887 (   667 PWs)   bands (ev):

    -0.2374  10.3314  13.2232  14.7008  21.9711  23.0266

     occupation numbers 
     1.0000   0.0000   0.0000   0.0000   0.0000   0.0000

          k = 0.1443 0.2887-0.3368 (   666 PWs)   bands (ev):

     0.7983   8.3839  12.7429  14.2442  21.5657  22.7775

     occupation numbers 
     1.0000   0.0000   0.0000   0.0000   0.0000   0.0000

          k = 0.1443 0.3368-0.3849 (   673 PWs)   bands (ev):

     1.9959   6.5741  12.4218  13.9376  21.2859  22.5708

     occupation numbers 
     1.0000   1.0000   0.0000   0.0000   0.0000   0.0000

          k = 0.1443 0.3849-0.4330 (   677 PWs)   bands (ev):

     3.3356   4.9273  12.2610  13.7838  21.1434  22.4584

     occupation numbers 
     1.0000   1.0000   0.0000   0.0000   0.0000   0.0000

          k = 0.1443-0.0481 0.0000 (   661 PWs)   bands (ev):

    -2.8570  17.6058  18.2352  20.4141  20.7913  21.1000

     occupation numbers 
     1.0000   0.0000   0.0000   0.0000   0.0000   0.0000

          k = 0.1925 0.1925-0.2887 (   672 PWs)   bands (ev):

    -0.3240  11.4637  11.9651  14.6310  23.0655  23.1410

     occupation numbers 
     1.0000   0.0000   0.0000   0.0000   0.0000   0.0000

          k = 0.1925 0.2406-0.3368 (   667 PWs)   bands (ev):

     0.6262   9.6559  11.2051  14.0984  22.7225  23.7211

     occupation numbers 
     1.0000   0.0000   0.0000   0.0000   0.0000   0.0000

          k = 0.1925 0.2887-0.3849 (   671 PWs)   bands (ev):

     1.7409   7.8000  10.7818  13.7136  22.4038  24.1695

     occupation numbers 
     1.0000   0.3361   0.0000   0.0000   0.0000   0.0000

          k = 0.1925 0.3368-0.4330 (   678 PWs)   bands (ev):

     3.0114   6.0764  10.5330  13.4811  22.2026  24.3381

     occupation numbers 
     1.0000   1.0000   0.0000   0.0000   0.0000   0.0000

          k = 0.1925 0.3849-0.4811 (   679 PWs)   bands (ev):

     4.2277   4.7083  10.4505  13.4034  22.1346  24.3658

     occupation numbers 
     1.0000   1.0000   0.0000   0.0000   0.0000   0.0000

          k = 0.1925-0.0962 0.0000 (   657 PWs)   bands (ev):

    -2.4176  15.4204  17.2904  19.5356  20.0283  21.0333

     occupation numbers 
     1.0000   0.0000   0.0000   0.0000   0.0000   0.0000

          k = 0.1925-0.0481-0.0481 (   665 PWs)   bands (ev):

    -2.5054  16.5029  16.6306  19.8661  20.1548  20.7298

     occupation numbers 
     1.0000   0.0000   0.0000   0.0000   0.0000   0.0000

          k = 0.2406 0.2406-0.3849 (   672 PWs)   bands (ev):

     1.6557   8.9287   9.5118  13.6388  23.5631  23.5783

     occupation numbers 
     1.0000   0.0000   0.0000   0.0000   0.0000   0.0000

          k = 0.2406 0.2887-0.4330 (   677 PWs)   bands (ev):

     2.8452   7.3618   8.9554  13.3291  23.3586  24.4872

     occupation numbers 
     1.0000   1.0008   0.0000   0.0000   0.0000   0.0000

          k = 0.2406 0.3368-0.4811 (   678 PWs)   bands (ev):

     4.1731   5.7515   8.7690  13.1734  23.2389  25.3279

     occupation numbers 
     1.0000   1.0000   0.0000   0.0000   0.0000   0.0000

          k = 0.2406-0.1443 0.0000 (   668 PWs)   bands (ev):

    -1.8042  13.2026  16.4768  18.7284  19.2692  20.9650

     occupation numbers 
     1.0000   0.0000   0.0000   0.0000   0.0000   0.0000

          k = 0.2406-0.0962-0.0481 (   670 PWs)   bands (ev):

    -1.9792  14.4056  15.6711  19.0933  19.8023  20.5592

     occupation numbers 
     1.0000   0.0000   0.0000   0.0000   0.0000   0.0000

          k = 0.2887 0.2887-0.4811 (   677 PWs)   bands (ev):

     4.1006   6.8717   7.4892  13.0964  24.4122  24.4330

     occupation numbers 
     1.0000   1.0000   1.0265   0.0000   0.0000   0.0000

          k = 0.2887 0.3368-0.5292 (   678 PWs)   bands (ev):

     5.3031   5.7313   7.1929  13.0185  24.3820  25.4242

     occupation numbers 
     1.0000   1.0000   1.0000   0.0000   0.0000   0.0000

          k = 0.2887-0.1925 0.0000 (   669 PWs)   bands (ev):

    -1.0189  11.0646  15.8040  18.0511  18.6132  20.7082

     occupation numbers 
     1.0000   0.0000   0.0000   0.0000   0.0000   0.0000

          k = 0.2887-0.1443-0.0481 (   666 PWs)   bands (ev):

    -1.2802  12.2451  14.9045  18.3611  19.2208  20.8433

     occupation numbers 
     1.0000   0.0000   0.0000   0.0000   0.0000   0.0000

          k = 0.2887-0.0962-0.0962 (   666 PWs)   bands (ev):

    -1.3674  13.3710  13.7499  18.7634  19.5453  20.1993

     occupation numbers 
     1.0000   0.0000   0.0000   0.0000   0.0000   0.0000

          k = 0.3368-0.2406 0.0000 (   667 PWs)   bands (ev):

    -0.0643   9.0430  15.2769  17.5161  18.0910  20.3788

     occupation numbers 
     1.0000   0.0000   0.0000   0.0000   0.0000   0.0000

          k = 0.3368-0.1925-0.0481 (   667 PWs)   bands (ev):

    -0.4107  10.1727  14.2870  17.7665  18.6629  21.1406

     occupation numbers 
     1.0000   0.0000   0.0000   0.0000   0.0000   0.0000

          k = 0.3368-0.1443-0.0962 (   666 PWs)   bands (ev):

    -0.5842  11.4231  12.8908  18.1961  19.2012  20.4593

     occupation numbers 
     1.0000   0.0000   0.0000   0.0000   0.0000   0.0000

          k = 0.3849-0.2887-0.0000 (   667 PWs)   bands (ev):

     1.0557   7.1548  14.8984  17.1301  17.7138  20.0943

     occupation numbers 
     1.0000   1.0000   0.0000   0.0000   0.0000   0.0000

          k = 0.3849-0.2406-0.0481 (   670 PWs)   bands (ev):

     0.6261   8.2218  13.8213  17.3174  18.2204  21.2185

     occupation numbers 
     1.0000   0.0000   0.0000   0.0000   0.0000   0.0000

          k = 0.3849-0.1925-0.0962 (   664 PWs)   bands (ev):

     0.3677   9.4325  12.3238  17.7089  18.7411  21.1090

     occupation numbers 
     1.0000   0.0000   0.0000   0.0000   0.0000   0.0000

          k = 0.3849-0.1443-0.1443 (   664 PWs)   bands (ev):

     0.2814  10.5551  11.0856  17.7594  19.5597  20.1782

     occupation numbers 
     1.0000   0.0000   0.0000   0.0000   0.0000   0.0000

          k = 0.4330-0.3368 0.0000 (   670 PWs)   bands (ev):

     2.3334   5.4144  14.6706  16.8970  17.4864  19.9088

     occupation numbers 
     1.0000   1.0000   0.0000   0.0000   0.0000   0.0000

          k = 0.4330-0.2887-0.0481 (   672 PWs)   bands (ev):

     1.8253   6.4090  13.5097  17.0165  17.9178  21.1465

     occupation numbers 
     1.0000   1.0000   0.0000   0.0000   0.0000   0.0000

          k = 0.4330-0.2406-0.0962 (   673 PWs)   bands (ev):

     1.4843   7.5596  11.9219  17.3525  18.3770  21.8384

     occupation numbers 
     1.0000   1.0713   0.0000   0.0000   0.0000   0.0000

          k = 0.4330-0.1925-0.1443 (   672 PWs)   bands (ev):

     1.3134   8.8341  10.3922  17.3621  19.3780  20.7667

     occupation numbers 
     1.0000   0.0000   0.0000   0.0000   0.0000   0.0000

          k =-0.3849-0.3849 0.8660 (   670 PWs)   bands (ev):

     3.5650   4.0282  14.5945  16.8191  17.4104  19.8450

     occupation numbers 
     1.0000   1.0000   0.0000   0.0000   0.0000   0.0000

          k =-0.3849-0.3368 0.8179 (   674 PWs)   bands (ev):

     3.1672   4.7592  13.3535  16.8656  17.7647  21.0786

     occupation numbers 
     1.0000   1.0000   0.0000   0.0000   0.0000   0.0000

          k =-0.3849-0.2887 0.7698 (   680 PWs)   bands (ev):

     2.7576   5.8289  11.6808  17.1368  18.1503  22.4124

     occupation numbers 
     1.0000   1.0000   0.0000   0.0000   0.0000   0.0000

          k =-0.3849-0.2406 0.7217 (   676 PWs)   bands (ev):

     2.5062   7.0567  10.0465  17.0836  19.1160  21.7134

     occupation numbers 
     1.0000   1.0000   0.0000   0.0000   0.0000   0.0000

          k =-0.3849-0.1925 0.6736 (   676 PWs)   bands (ev):

     2.4220   8.1851   8.7785  17.0421  20.0957  20.6447

     occupation numbers 
     1.0000   0.0000   0.0000   0.0000   0.0000   0.0000

          k =-0.3368-0.3368 0.7698 (   678 PWs)   bands (ev):

     3.9791   4.4545  11.6004  17.0647  18.0736  22.6073

     occupation numbers 
     1.0000   1.0000   0.0000   0.0000   0.0000   0.0000

          k =-0.3368-0.2887 0.7217 (   675 PWs)   bands (ev):

     3.8389   5.4250   9.8785  16.9418  18.9741  22.7685

     occupation numbers 
     1.0000   1.0000   0.0000   0.0000   0.0000   0.0000

          k =-0.3368-0.2406 0.6736 (   679 PWs)   bands (ev):

     3.6841   6.7025   8.3005  16.8374  20.1099  21.5075

     occupation numbers 
     1.0000   1.0000   0.0000   0.0000   0.0000   0.0000

          k =-0.2887-0.2887 0.6736 (   680 PWs)   bands (ev):

     4.8891   5.3643   8.2000  16.7678  20.0562  22.6374

     occupation numbers 
     1.0000   1.0000   0.0000   0.0000   0.0000   0.0000

          k =-0.2887-0.2406 0.6255 (   684 PWs)   bands (ev):

     4.9905   6.2928   6.9389  16.7050  21.1285  21.5088

     occupation numbers 
     1.0000   1.0000   1.0000   0.0000   0.0000   0.0000

          k = 0.1925 0.1925-0.1925 (   667 PWs)   bands (ev):

    -1.1931  13.5762  13.5762  14.2225  24.1853  24.1854

     occupation numbers 
     1.0000   0.0000   0.0000   0.0000   0.0000   0.0000

          k = 0.1925 0.2406-0.2406 (   667 PWs)   bands (ev):

    -0.4107  11.5835  12.8517  13.4163  23.9948  24.2239

     occupation numbers 
     1.0000   0.0000   0.0000   0.0000   0.0000   0.0000

          k = 0.1925 0.2887-0.2887 (   668 PWs)   bands (ev):

     0.5401   9.5940  12.2841  12.8635  23.6957  23.9196

     occupation numbers 
     1.0000   0.0000   0.0000   0.0000   0.0000   0.0000

          k = 0.1925 0.3368-0.3368 (   674 PWs)   bands (ev):

     1.6555   7.7234  11.8769  12.4721  23.4242  23.6661

     occupation numbers 
     1.0000   0.7425   0.0000   0.0000   0.0000   0.0000

          k = 0.1925 0.3849-0.3849 (   678 PWs)   bands (ev):

     2.9270   5.9952  11.6321  12.2371  23.2443  23.5030

     occupation numbers 
     1.0000   1.0000   0.0000   0.0000   0.0000   0.0000

          k = 0.1925 0.4330-0.4330 (   678 PWs)   bands (ev):

     4.1449   4.6247  11.5504  12.1586  23.1822  23.4470

     occupation numbers 
     1.0000   1.0000   0.0000   0.0000   0.0000   0.0000

          k = 0.1925-0.0000 0.0000 (   663 PWs)   bands (ev):

    -2.5932  17.1402  17.1402  19.3835  19.5003  21.6542

     occupation numbers 
     1.0000   0.0000   0.0000   0.0000   0.0000   0.0000

          k = 0.2406 0.2406-0.2887 (   663 PWs)   bands (ev):

     0.4539  10.7330  11.1959  12.5991  24.7093  24.9193

     occupation numbers 
     1.0000   0.0000   0.0000   0.0000   0.0000   0.0000

          k = 0.2406 0.2887-0.3368 (   673 PWs)   bands (ev):

     1.4847   8.9983  10.5300  12.1057  24.6321  25.2386

     occupation numbers 
     1.0000   0.0000   0.0000   0.0000   0.0000   0.0000

          k = 0.2406 0.3368-0.3849 (   675 PWs)   bands (ev):

     2.6761   7.2216  10.1882  11.7827  24.4427  25.3520

     occupation numbers 
     1.0000   1.0000   0.0000   0.0000   0.0000   0.0000

          k = 0.2406 0.3849-0.4330 (   677 PWs)   bands (ev):

     4.0068   5.5921  10.0210  11.6216  24.3353  25.3554

     occupation numbers 
     1.0000   1.0000   0.0000   0.0000   0.0000   0.0000

          k = 0.2406-0.0481 0.0000 (   662 PWs)   bands (ev):

    -2.1544  15.4965  16.1686  18.4463  19.1367  21.4476

     occupation numbers 
     1.0000   0.0000   0.0000   0.0000   0.0000   0.0000

          k = 0.2887 0.2887-0.3849 (   672 PWs)   bands (ev):

     2.5920   8.3549   8.9258  11.6866  25.4291  25.5952

     occupation numbers 
     1.0000   0.0000   0.0000   0.0000   0.0000   0.0000

          k = 0.2887 0.3368-0.4330 (   677 PWs)   bands (ev):

     3.8526   6.8682   8.4569  11.4411  25.4359  26.3328

     occupation numbers 
     1.0000   1.0000   0.0000   0.0000   0.0000   0.0000

          k = 0.2887 0.3849-0.4811 (   682 PWs)   bands (ev):

     5.0553   5.5318   8.3577  11.3597  25.4005  26.7460

     occupation numbers 
     1.0000   1.0000   0.0000   0.0000   0.0000   0.0000

          k = 0.2887-0.0962 0.0000 (   672 PWs)   bands (ev):

    -1.5420  13.3891  15.3376  17.6348  19.4280  20.8201

     occupation numbers 
     1.0000   0.0000   0.0000   0.0000   0.0000   0.0000

          k = 0.2887-0.0481-0.0481 (   669 PWs)   bands (ev):

    -1.6293  14.4694  14.6785  17.9955  18.4305  21.3570

     occupation numbers 
     1.0000   0.0000   0.0000   0.0000   0.0000   0.0000

          k = 0.3368 0.3368-0.4811 (   680 PWs)   bands (ev):

     5.1573   6.4598   7.0984  11.2755  26.3485  26.6195

     occupation numbers 
     1.0000   1.0000   1.0000   0.0000   0.0000   0.0000

          k = 0.3368-0.1443 0.0000 (   669 PWs)   bands (ev):

    -0.7579  11.2849  14.6532  16.9454  19.9289  20.2087

     occupation numbers 
     1.0000   0.0000   0.0000   0.0000   0.0000   0.0000

          k = 0.3368-0.0962-0.0481 (   670 PWs)   bands (ev):

    -0.9318  12.5048  13.8203  17.4164  18.6515  20.8483

     occupation numbers 
     1.0000   0.0000   0.0000   0.0000   0.0000   0.0000

          k = 0.3849-0.1925 0.0000 (   667 PWs)   bands (ev):

     0.1950   9.2782  14.1187  16.3983  19.7066  20.4607

     occupation numbers 
     1.0000   0.0000   0.0000   0.0000   0.0000   0.0000

          k = 0.3849-0.1443-0.0481 (   669 PWs)   bands (ev):

    -0.0642  10.4725  13.1920  16.8206  19.2126  20.4001

     occupation numbers 
     1.0000   0.0000   0.0000   0.0000   0.0000   0.0000

          k = 0.3849-0.0962-0.0962 (   667 PWs)   bands (ev):

    -0.1508  11.5912  12.0366  17.7450  18.1301  20.4488

     occupation numbers 
     1.0000   0.0000   0.0000   0.0000   0.0000   0.0000

          k = 0.4330-0.2406-0.0000 (   676 PWs)   bands (ev):

     1.3131   7.3984  13.7357  16.0026  19.3396  20.8310

     occupation numbers 
     1.0000   1.0028   0.0000   0.0000   0.0000   0.0000

          k = 0.4330-0.1925-0.0481 (   673 PWs)   bands (ev):

     0.9702   8.5391  12.7207  16.3590  19.5452  20.4337

     occupation numbers 
     1.0000   0.0000   0.0000   0.0000   0.0000   0.0000

          k = 0.4330-0.1443-0.0962 (   667 PWs)   bands (ev):

     0.7984   9.8003  11.3023  17.3860  18.6209  20.1077

     occupation numbers 
     1.0000   0.0000   0.0000   0.0000   0.0000   0.0000

          k = 0.4811-0.2887 0.0000 (   671 PWs)   bands (ev):

     2.5881   5.6636  13.5055  15.7634  19.1167  20.9617

     occupation numbers 
     1.0000   1.0000   0.0000   0.0000   0.0000   0.0000

          k = 0.4811-0.2406-0.0481 (   675 PWs)   bands (ev):

     2.1663   6.7364  12.4060  16.0472  19.4124  21.1112

     occupation numbers 
     1.0000   1.0000   0.0000   0.0000   0.0000   0.0000

          k = 0.4811-0.1925-0.0962 (   673 PWs)   bands (ev):

     1.9116   7.9566  10.8851  17.0170  19.0825  20.2190

     occupation numbers 
     1.0000   0.0115   0.0000   0.0000   0.0000   0.0000

          k = 0.4811-0.1443-0.1443 (   672 PWs)   bands (ev):

     1.8265   9.0814   9.6406  18.0960  18.2210  19.8384

     occupation numbers 
     1.0000   0.0000   0.0000   0.0000   0.0000   0.0000

          k =-0.3368-0.3368 0.8660 (   678 PWs)   bands (ev):

     3.8134   4.2845  13.4287  15.6833  19.0422  20.9814

     occupation numbers 
     1.0000   1.0000   0.0000   0.0000   0.0000   0.0000

          k =-0.3368-0.2887 0.8179 (   676 PWs)   bands (ev):

     3.5036   5.0940  12.2484  15.8903  19.2954  21.7311

     occupation numbers 
     1.0000   1.0000   0.0000   0.0000   0.0000   0.0000

          k =-0.3368-0.2406 0.7698 (   679 PWs)   bands (ev):

     3.1802   6.2395  10.6392  16.7899  19.1029  21.0399

     occupation numbers 
     1.0000   1.0000   0.0000   0.0000   0.0000   0.0000

          k =-0.3368-0.1925 0.7217 (   680 PWs)   bands (ev):

     3.0143   7.5198   9.0950  17.8674  18.7685  19.9656

     occupation numbers 
     1.0000   1.0446   0.0000   0.0000   0.0000   0.0000

          k =-0.2887-0.2887 0.7698 (   676 PWs)   bands (ev):

     4.3927   4.8764  10.5575  16.7136  19.0699  22.1189

     occupation numbers 
     1.0000   1.0000   0.0000   0.0000   0.0000   0.0000

          k =-0.2887-0.2406 0.7217 (   679 PWs)   bands (ev):

     4.3397   5.9152   8.9107  17.7190  18.9114  20.8012

     occupation numbers 
     1.0000   1.0000   0.0000   0.0000   0.0000   0.0000

          k =-0.2887-0.1925 0.6736 (   680 PWs)   bands (ev):

     4.2674   7.0325   7.6408  18.3577  18.9651  19.9221

     occupation numbers 
     1.0000   1.0000   1.0464   0.0000   0.0000   0.0000

          k =-0.2406-0.2406 0.6736 (   683 PWs)   bands (ev):

     5.4669   5.8948   7.3479  18.3435  19.2563  20.3292

     occupation numbers 
     1.0000   1.0000   1.0005   0.0000   0.0000   0.0000

          k = 0.2887 0.2887-0.2887 (   673 PWs)   bands (ev):

     1.3992  10.1618  10.1618  11.0879  26.1333  26.1333

     occupation numbers 
     1.0000   0.0000   0.0000   0.0000   0.0000   0.0000

          k = 0.2887 0.3368-0.3368 (   679 PWs)   bands (ev):

     2.5074   8.4877   9.7525  10.4994  26.3877  26.4203

     occupation numbers 
     1.0000   0.0000   0.0000   0.0000   0.0000   0.0000

          k = 0.2887 0.3849-0.3849 (   677 PWs)   bands (ev):

     3.7694   6.8050   9.5066  10.2235  26.4038  26.4097

     occupation numbers 
     1.0000   1.0000   0.0000   0.0000   0.0000   0.0000

          k = 0.2887 0.4330-0.4330 (   676 PWs)   bands (ev):

     4.9726   5.4570   9.4246  10.1354  26.3878  26.4026

     occupation numbers 
     1.0000   1.0000   0.0000   0.0000   0.0000   0.0000

          k = 0.2887 0.0000 0.0000 (   675 PWs)   bands (ev):

    -1.7167  15.1812  15.1812  17.1312  17.8529  22.5077

     occupation numbers 
     1.0000   0.0000   0.0000   0.0000   0.0000   0.0000

          k = 0.3368 0.3368-0.3849 (   681 PWs)   bands (ev):

     3.6878   7.9441   8.4399   9.9191  27.2355  27.3895

     occupation numbers 
     1.0000   0.0165   0.0000   0.0000   0.0000   0.0000

          k = 0.3368 0.3849-0.4330 (   677 PWs)   bands (ev):

     5.0031   6.5446   8.0898   9.7233  27.4193  27.8878

     occupation numbers 
     1.0000   1.0000   0.0001   0.0000   0.0000   0.0000

          k = 0.3368-0.0481 0.0000 (   675 PWs)   bands (ev):

    -1.1059  13.6293  14.3402  16.4709  17.4815  22.4355

     occupation numbers 
     1.0000   0.0000   0.0000   0.0000   0.0000   0.0000

          k = 0.3849 0.3849-0.4811 (   679 PWs)   bands (ev):

     6.2125   6.2125   7.0033   9.6172  28.0764  28.5102

     occupation numbers 
     1.0000   1.0000   1.0000   0.0000   0.0000   0.0000

          k = 0.3849-0.0962 0.0000 (   678 PWs)   bands (ev):

    -0.3240  11.6346  13.6495  15.8749  17.8820  21.9392

     occupation numbers 
     1.0000   0.0000   0.0000   0.0000   0.0000   0.0000

          k = 0.3849-0.0481-0.0481 (   677 PWs)   bands (ev):

    -0.4107  12.7209  12.9826  16.1428  16.9297  22.4544

     occupation numbers 
     1.0000   0.0000   0.0000   0.0000   0.0000   0.0000

          k = 0.4330-0.1443 0.0000 (   669 PWs)   bands (ev):

     0.6263   9.6636  13.1108  15.3441  18.6055  21.4721

     occupation numbers 
     1.0000   0.0000   0.0000   0.0000   0.0000   0.0000

          k = 0.4330-0.0962-0.0481 (   671 PWs)   bands (ev):

     0.4540  10.8976  12.2531  15.8084  17.2336  22.0426

     occupation numbers 
     1.0000   0.0000   0.0000   0.0000   0.0000   0.0000

          k = 0.4811-0.1925-0.0000 (   672 PWs)   bands (ev):

     1.7409   7.8010  12.7254  14.9497  19.4928  21.1191

     occupation numbers 
     1.0000   0.3318   0.0000   0.0000   0.0000   0.0000

          k = 0.4811-0.1443-0.0481 (   675 PWs)   bands (ev):

     1.4848   9.0063  11.7736  15.3857  18.0229  21.6484

     occupation numbers 
     1.0000   0.0000   0.0000   0.0000   0.0000   0.0000

          k = 0.4811-0.0962-0.0962 (   676 PWs)   bands (ev):

     1.3992  10.1266  10.6082  16.2538  16.9275  21.6914

     occupation numbers 
     1.0000   0.0000   0.0000   0.0000   0.0000   0.0000

          k = 0.5292-0.2406 0.0000 (   680 PWs)   bands (ev):

     3.0114   6.0767  12.4939  14.7092  20.4592  20.9023

     occupation numbers 
     1.0000   1.0000   0.0000   0.0000   0.0000   0.0000

          k = 0.5292-0.1925-0.0481 (   678 PWs)   bands (ev):

     2.6761   7.2228  11.4555  15.0812  19.0013  21.3497

     occupation numbers 
     1.0000   1.0000   0.0000   0.0000   0.0000   0.0000

          k = 0.5292-0.1443-0.0962 (   677 PWs)   bands (ev):

     2.5074   8.4923  10.0164  16.1296  17.5883  21.3015

     occupation numbers 
     1.0000   0.0000   0.0000   0.0000   0.0000   0.0000

          k =-0.2887-0.2887 0.8660 (   674 PWs)   bands (ev):

     4.2271   4.7090  12.4167  14.6285  20.8293  21.1531

     occupation numbers 
     1.0000   1.0000   0.0000   0.0000   0.0000   0.0000

          k =-0.2887-0.2406 0.8179 (   678 PWs)   bands (ev):

     4.0066   5.5927  11.2965  14.9256  20.0517  21.0633

     occupation numbers 
     1.0000   1.0000   0.0000   0.0000   0.0000   0.0000

          k =-0.2887-0.1925 0.7698 (   675 PWs)   bands (ev):

     3.7693   6.8063   9.7565  15.9287  18.6308  20.7747

     occupation numbers 
     1.0000   1.0000   0.0000   0.0000   0.0000   0.0000

          k =-0.2887-0.1443 0.7217 (   685 PWs)   bands (ev):

     3.6877   7.9321   8.5052  16.9455  17.4736  20.6890

     occupation numbers 
     1.0000   0.0230   0.0000   0.0000   0.0000   0.0000

          k =-0.2406-0.2406 0.7698 (   673 PWs)   bands (ev):

     4.9710   5.4593   9.6722  15.8566  19.7136  19.8459

     occupation numbers 
     1.0000   1.0000   0.0000   0.0000   0.0000   0.0000

          k =-0.2406-0.1925 0.7217 (   679 PWs)   bands (ev):

     5.0024   6.5452   8.1230  17.0132  18.4023  19.6192

     occupation numbers 
     1.0000   1.0000   0.0000   0.0000   0.0000   0.0000

          k =-0.1925-0.1925 0.6736 (   679 PWs)   bands (ev):

     6.2080   6.2080   7.0298  18.1499  18.1499  18.5862

     occupation numbers 
     1.0000   1.0000   1.0000   0.0000   0.0000   0.0000

          k = 0.3849 0.3849-0.3849 (   673 PWs)   bands (ev):

     4.9312   7.6974   7.6974   8.7193  28.6407  28.6408

     occupation numbers 
     1.0000   0.8694   0.8694   0.0000   0.0000   0.0000

          k = 0.3849 0.4330-0.4330 (   676 PWs)   bands (ev):

     6.1299   6.5134   7.6151   8.4708  28.9257  29.1467

     occupation numbers 
     1.0000   1.0000   1.0769   0.0000   0.0000   0.0000

          k = 0.3849 0.0000 0.0000 (   679 PWs)   bands (ev):

    -0.4974  13.4930  13.4930  15.2125  16.3070  23.6983

     occupation numbers 
     1.0000   0.0000   0.0000   0.0000   0.0000   0.0000

          k = 0.4330-0.0481 0.0000 (   677 PWs)   bands (ev):

     0.2815  12.0497  12.7981  14.7751  16.0173  23.7447

     occupation numbers 
     1.0000   0.0000   0.0000   0.0000   0.0000   0.0000

          k = 0.4811-0.0962 0.0000 (   673 PWs)   bands (ev):

     1.2279  10.1826  12.2569  14.3808  16.5375  23.3723

     occupation numbers 
     1.0000   0.0000   0.0000   0.0000   0.0000   0.0000

          k = 0.4811-0.0481-0.0481 (   675 PWs)   bands (ev):

     1.1422  11.2783  11.5754  14.6210  15.5981  23.6572

     occupation numbers 
     1.0000   0.0000   0.0000   0.0000   0.0000   0.0000

          k = 0.5292-0.1443-0.0000 (   675 PWs)   bands (ev):

     2.3376   8.3557  11.8698  14.0163  17.4291  22.4967

     occupation numbers 
     1.0000   0.0000   0.0000   0.0000   0.0000   0.0000

          k = 0.5292-0.0962-0.0481 (   676 PWs)   bands (ev):

     2.1678   9.6011  10.9871  14.4868  16.0233  22.3846

     occupation numbers 
     1.0000   0.0000   0.0000   0.0000   0.0000   0.0000

          k = 0.5774-0.1925 0.0000 (   675 PWs)   bands (ev):

     3.6017   6.6497  11.6375  13.7829  18.5165  21.0917

     occupation numbers 
     1.0000   1.0000   0.0000   0.0000   0.0000   0.0000

          k = 0.5774-0.1443-0.0481 (   676 PWs)   bands (ev):

     3.3526   7.8598  10.6618  14.2348  16.9703  20.9054

     occupation numbers 
     1.0000   0.1239   0.0000   0.0000   0.0000   0.0000

          k = 0.5774-0.0962-0.0962 (   675 PWs)   bands (ev):

     3.2691   8.9835   9.4846  15.0885  15.8801  20.8375

     occupation numbers 
     1.0000   0.0000   0.0000   0.0000   0.0000   0.0000

          k =-0.2406-0.2406 0.8660 (   680 PWs)   bands (ev):

     4.8056   5.2971  11.5600  13.7036  19.6843  19.8154

     occupation numbers 
     1.0000   1.0000   0.0000   0.0000   0.0000   0.0000

          k =-0.2406-0.1925 0.8179 (   675 PWs)   bands (ev):

     4.6739   6.2502  10.5009  14.0903  18.1241  19.4910

     occupation numbers 
     1.0000   1.0000   0.0000   0.0000   0.0000   0.0000

          k =-0.2406-0.1443 0.7698 (   678 PWs)   bands (ev):

     4.5216   7.5110   9.0470  15.1491  16.6707  19.3453

     occupation numbers 
     1.0000   1.0389   0.0000   0.0000   0.0000   0.0000

          k =-0.1925-0.1925 0.7698 (   674 PWs)   bands (ev):

     5.7129   6.1911   8.9523  15.1028  17.6586  18.1901

     occupation numbers 
     1.0000   1.0000   0.0000   0.0000   0.0000   0.0000

          k =-0.1925-0.1443 0.7217 (   678 PWs)   bands (ev):

     5.8165   7.1098   7.7220  16.1198  16.6434  17.9519

     occupation numbers 
     1.0000   1.0000   0.7498   0.0000   0.0000   0.0000

          k = 0.4811 0.0000 0.0000 (   675 PWs)   bands (ev):

     1.0564  12.1006  12.1006  13.6379  14.9460  24.0192

     occupation numbers 
     1.0000   0.0000   0.0000   0.0000   0.0000   0.0000

          k = 0.5292-0.0481 0.0000 (   672 PWs)   bands (ev):

     1.9976  10.7749  11.5576  13.4051  14.7793  22.3689

     occupation numbers 
     1.0000   0.0000   0.0000   0.0000   0.0000   0.0000

          k = 0.5774-0.0962-0.0000 (   676 PWs)   bands (ev):

     3.1007   9.0457  11.1695  13.1935  15.4423  20.7443

     occupation numbers 
     1.0000   0.0000   0.0000   0.0000   0.0000   0.0000

          k = 0.5774-0.0481-0.0481 (   676 PWs)   bands (ev):

     3.0165  10.1507  10.4711  13.4361  14.4987  20.6812

     occupation numbers 
     1.0000   0.0000   0.0000   0.0000   0.0000   0.0000

          k = 0.6255-0.1443 0.0000 (   681 PWs)   bands (ev):

     4.3561   7.3747  10.9365  12.9945  16.4852  19.2207

     occupation numbers 
     1.0000   1.0013   0.0000   0.0000   0.0000   0.0000

          k = 0.6255-0.0962-0.0481 (   677 PWs)   bands (ev):

     4.1925   8.6248  10.0318  13.4809  15.0631  19.0772

     occupation numbers 
     1.0000   0.0000   0.0000   0.0000   0.0000   0.0000

          k =-0.1925-0.1925 0.8660 (   680 PWs)   bands (ev):

     5.5477   6.0409  10.8589  12.9217  17.4946  18.0591

     occupation numbers 
     1.0000   1.0000   0.0000   0.0000   0.0000   0.0000

          k =-0.1925-0.1443 0.8179 (   677 PWs)   bands (ev):

     5.5020   7.0562   9.8646  13.3894  16.1190  17.6405

     occupation numbers 
     1.0000   1.0000   0.0000   0.0000   0.0000   0.0000

          k =-0.1925-0.0962 0.7698 (   677 PWs)   bands (ev):

     5.4314   8.1652   8.6842  14.2545  15.0360  17.5472

     occupation numbers 
     1.0000   0.0000   0.0000   0.0000   0.0000   0.0000

          k =-0.1443-0.1443 0.7698 (   676 PWs)   bands (ev):

     6.6159   7.0351   8.4230  14.4467  15.6234  16.5221

     occupation numbers 
     1.0000   1.0000   0.0000   0.0000   0.0000   0.0000

          k = 0.5774-0.0000 0.0000 (   671 PWs)   bands (ev):

     2.9322  11.0134  11.0134  12.4114  13.8228  20.6190

     occupation numbers 
     1.0000   0.0000   0.0000   0.0000   0.0000   0.0000

          k = 0.6255-0.0481-0.0000 (   674 PWs)   bands (ev):

     4.0266   9.8136  10.6246  12.3718  13.7972  18.9342

     occupation numbers 
     1.0000   0.0000   0.0000   0.0000   0.0000   0.0000

          k = 0.6736-0.0962 0.0000 (   678 PWs)   bands (ev):

     5.2704   8.2344  10.3912  12.3270  14.5975  17.3885

     occupation numbers 
     1.0000   0.0000   0.0000   0.0000   0.0000   0.0000

          k = 0.6736-0.0481-0.0481 (   673 PWs)   bands (ev):

     5.1905   9.3426   9.6787  12.5898  13.6441  17.3067

     occupation numbers 
     1.0000   0.0000   0.0000   0.0000   0.0000   0.0000

          k =-0.1443-0.1443 0.8660 (   674 PWs)   bands (ev):

     6.4512   6.9270  10.3134  12.2804  15.4578  16.3246

     occupation numbers 
     1.0000   1.0000   0.0000   0.0000   0.0000   0.0000

          k =-0.1443-0.0962 0.8179 (   677 PWs)   bands (ev):

     6.4837   7.9852   9.3952  12.7896  14.2719  15.9139

     occupation numbers 
     1.0000   0.0047   0.0000   0.0000   0.0000   0.0000

          k =-0.0962-0.0962 0.7698 (   676 PWs)   bands (ev):

     7.6736   7.6736   8.3730  13.7537  13.7537  15.1538

     occupation numbers 
     0.9624   0.9624   0.0000   0.0000   0.0000   0.0000

          k = 0.6736 0.0000-0.0000 (   679 PWs)   bands (ev):

     5.1094  10.2353  10.2353  11.5345  12.9539  17.2266

     occupation numbers 
     1.0000   0.0000   0.0000   0.0000   0.0000   0.0000

          k = 0.7217-0.0481 0.0000 (   678 PWs)   bands (ev):

     6.3367   9.1721  10.0016  11.6755  13.0355  15.6994

     occupation numbers 
     1.0000   0.0000   0.0000   0.0000   0.0000   0.0000

          k =-0.0962-0.0962 0.8660 (   676 PWs)   bands (ev):

     7.5096   7.9272   9.9238  11.7512  13.5867  14.7630

     occupation numbers 
     1.0381   0.0263   0.0000   0.0000   0.0000   0.0000

          k =-0.0962-0.0481 0.8179 (   682 PWs)   bands (ev):

     7.6006   8.8568   9.2125  12.0822  12.7988  14.4497

     occupation numbers 
     1.0828   0.0000   0.0000   0.0000   0.0000   0.0000

          k = 0.7698 0.0000 0.0000 (   682 PWs)   bands (ev):

     7.5370   9.7679   9.7679  11.0082  12.1848  14.2733

     occupation numbers 
     1.0564   0.0000   0.0000   0.0000   0.0000   0.0000

          k =-0.0481-0.0481 0.8660 (   682 PWs)   bands (ev):

     8.6947   8.9625   9.6899  11.2425  11.9130  13.5745

     occupation numbers 
     0.0000   0.0000   0.0000   0.0000   0.0000   0.0000

          k =-0.8660-0.8660 0.8660 (   682 PWs)   bands (ev):

     9.6120   9.6120   9.6120  10.8327  10.8327  13.1132

     occupation numbers 
     0.0000   0.0000   0.0000   0.0000   0.0000   0.0000

     the Fermi energy is     7.7867 ev

!    total energy              =      -6.70069390 Ry
     Harris-Foulkes estimate   =      -6.70069387 Ry
     estimated scf accuracy    <       0.00000079 Ry

     The total energy is the sum of the following terms:

     one-electron contribution =       2.96223814 Ry
     hartree contribution      =       0.00558561 Ry
     xc contribution           =      -4.28672080 Ry
     ewald contribution        =      -5.38183347 Ry
     smearing contrib. (-TS)   =       0.00003662 Ry

     convergence has been achieved in   3 iterations
 
     init_run     :      2.37s CPU      0.38s WALL (       1 calls)
     electrons    :     32.15s CPU      3.79s WALL (       1 calls)

     Called by init_run:
     wfcinit      :      2.31s CPU      0.29s WALL (       1 calls)
     wfcinit:atom :      0.07s CPU      0.01s WALL (     195 calls)
     wfcinit:wfcr :      2.08s CPU      0.26s WALL (     195 calls)
     potinit      :      0.00s CPU      0.00s WALL (       1 calls)

     Called by electrons:
     c_bands      :     29.53s CPU      3.34s WALL (       4 calls)
     sum_band     :      2.45s CPU      0.43s WALL (       4 calls)
     v_of_rho     :      0.02s CPU      0.01s WALL (       4 calls)
     v_h          :      0.00s CPU      0.00s WALL (       4 calls)
     v_xc         :      0.02s CPU      0.01s WALL (       4 calls)
     newd         :      0.03s CPU      0.01s WALL (       4 calls)
     mix_rho      :      0.00s CPU      0.00s WALL (       4 calls)

     Called by c_bands:
     init_us_2    :      0.76s CPU      0.11s WALL (    1755 calls)
     cegterg      :     26.40s CPU      2.89s WALL (     780 calls)

     Called by sum_band:
     sum_band:bec :      0.05s CPU      0.01s WALL (     780 calls)
     addusdens    :      0.03s CPU      0.01s WALL (       4 calls)

     Called by *egterg:
     h_psi        :     23.33s CPU      2.62s WALL (    2740 calls)
     s_psi        :      0.25s CPU      0.03s WALL (    2740 calls)
     g_psi        :      0.13s CPU      0.01s WALL (    1765 calls)
     cdiaghg      :      2.20s CPU      0.23s WALL (    2350 calls)
     cegterg:over :      0.53s CPU      0.06s WALL (    1765 calls)
     cegterg:upda :      0.33s CPU      0.03s WALL (    1765 calls)
     cegterg:last :      0.23s CPU      0.03s WALL (     900 calls)

     Called by h_psi:
     h_psi:pot    :     23.10s CPU      2.59s WALL (    2740 calls)
     h_psi:calbec :      0.48s CPU      0.05s WALL (    2740 calls)
     vloc_psi     :     22.02s CPU      2.48s WALL (    2740 calls)
     add_vuspsi   :      0.30s CPU      0.04s WALL (    2740 calls)

     General routines
     calbec       :      0.40s CPU      0.05s WALL (    3520 calls)
     fft          :      0.02s CPU      0.02s WALL (      54 calls)
     fftw         :     21.69s CPU      2.57s WALL (   31610 calls)
 
     Parallel routines
     fft_scatt_xy :      2.48s CPU      0.27s WALL (   31664 calls)
     fft_scatt_yz :      5.00s CPU      0.61s WALL (   31664 calls)
 
     PWSCF        :    34.61s CPU         4.25s WALL

 
   This run was terminated on:  22:11:15  30Jan2019            

=------------------------------------------------------------------------------=
   JOB DONE.
=------------------------------------------------------------------------------=
