
     Program PWSCF v.6.2 (svn rev. 14038) starts on 24Jan2019 at 12:25:19 

     This program is part of the open-source Quantum ESPRESSO suite
     for quantum simulation of materials; please cite
         "P. Giannozzi et al., J. Phys.:Condens. Matter 21 395502 (2009);
         "P. Giannozzi et al., J. Phys.:Condens. Matter 29 465901 (2017);
          URL http://www.quantum-espresso.org", 
     in publications or presentations arising from this work. More details at
     http://www.quantum-espresso.org/quote

     Parallel version (MPI), running on     1 processors

     MPI processes distributed on     1 nodes
     Reading input from ./Al10.in
Warning: card &IONS ignored
Warning: card / ignored
Warning: card &CELL ignored
Warning: card / ignored

     Current dimensions of program PWSCF are:
     Max number of different atomic species (ntypx) = 10
     Max number of k-points (npk) =  40000
     Max angular momentum in pseudopotentials (lmaxx) =  3
     Message from routine iosys:
     minimal I/O required, wf_collect reset to FALSE

     Subspace diagonalization in iterative solution of the eigenvalue problem:
     a serial algorithm will be used

 
     G-vector sticks info
     --------------------
     sticks:   dense  smooth     PW     G-vecs:    dense   smooth      PW
     Sum         283     283     97                 3119     3119     645
 


     bravais-lattice index     =            0
     lattice parameter (alat)  =       5.3970  a.u.
     unit-cell volume          =     111.1567 (a.u.)^3
     number of atoms/cell      =            1
     number of atomic types    =            1
     number of electrons       =         3.00
     number of Kohn-Sham states=            6
     kinetic-energy cutoff     =      35.0000  Ry
     charge density cutoff     =     140.0000  Ry
     convergence threshold     =      1.0E-05
     mixing beta               =       0.7000
     number of iterations used =            8  plain     mixing
     Exchange-correlation      = SLA  PZ   NOGX NOGC ( 1  1  0  0 0 0)

     celldm(1)=   5.396971  celldm(2)=   0.000000  celldm(3)=   0.000000
     celldm(4)=   0.000000  celldm(5)=   0.000000  celldm(6)=   0.000000

     crystal axes: (cart. coord. in units of alat)
               a(1) = (   0.866025   0.000000   0.500000 )  
               a(2) = (   0.288675   0.816497   0.500000 )  
               a(3) = (   0.000000   0.000000   1.000000 )  

     reciprocal axes: (cart. coord. in units 2 pi/alat)
               b(1) = (  1.154701 -0.408248  0.000000 )  
               b(2) = (  0.000000  1.224745  0.000000 )  
               b(3) = ( -0.577350 -0.408248  1.000000 )  


     PseudoPot. # 1 for Al read from file:
     ./al_lda_v1.uspp.F.UPF
     MD5 check sum: 51a9e5980debfdd3404790b200e14add
     Pseudo is Ultrasoft + core correction, Zval =  3.0
     Generated by new atomic code, or converted to UPF format
     Using radial grid of  893 points,  3 beta functions with: 
                l(1) =   0
                l(2) =   1
                l(3) =   2
     Q(r) pseudized with  8 coefficients,  rinner =    0.900   0.900   0.900
                                                       0.900   0.900

     atomic species   valence    mass     pseudopotential
        Al             3.00    26.98150     Al( 1.00)

      4 Sym. Ops., with inversion, found


                                    s                        frac. trans.

      isym =  1     identity                                     

 cryst.   s( 1) = (     1          0          0      )
                  (     0          1          0      )
                  (     0          0          1      )

 cart.    s( 1) = (  1.0000000  0.0000000  0.0000000 )
                  (  0.0000000  1.0000000  0.0000000 )
                  (  0.0000000 -0.0000000  1.0000000 )


      isym =  2     180 deg rotation - cart. axis [0,0,1]        

 cryst.   s( 2) = (    -1          0          1      )
                  (     0         -1          1      )
                  (     0          0          1      )

 cart.    s( 2) = ( -1.0000000  0.0000000  0.0000000 )
                  (  0.0000000 -1.0000000  0.0000000 )
                  (  0.0000004  0.0000003  1.0000000 )


      isym =  3     inversion                                    

 cryst.   s( 3) = (    -1          0          0      )
                  (     0         -1          0      )
                  (     0          0         -1      )

 cart.    s( 3) = ( -1.0000000  0.0000000  0.0000000 )
                  (  0.0000000 -1.0000000  0.0000000 )
                  ( -0.0000000  0.0000000 -1.0000000 )


      isym =  4     inv. 180 deg rotation - cart. axis [0,0,1]   

 cryst.   s( 4) = (     1          0         -1      )
                  (     0          1         -1      )
                  (     0          0         -1      )

 cart.    s( 4) = (  1.0000000  0.0000000  0.0000000 )
                  (  0.0000000  1.0000000  0.0000000 )
                  ( -0.0000004 -0.0000003 -1.0000000 )


   Cartesian axes

     site n.     atom                  positions (alat units)
         1           Al  tau(   1) = (   0.0000000   0.0000000   0.0000000  )

   Crystallographic axes

     site n.     atom                  positions (cryst. coord.)
         1           Al  tau(   1) = (  0.0000000  0.0000000  0.0000000  )

     number of k points=   282  Marzari-Vanderbilt smearing, width (Ry)=  0.0100
                       cart. coord. in units 2pi/alat
        k(    1) = (   0.0000000   0.0000000   0.0000000), wk =   0.0020000
        k(    2) = (  -0.0577350  -0.0408248   0.1000000), wk =   0.0080000
        k(    3) = (  -0.1154700  -0.0816496   0.1999999), wk =   0.0080000
        k(    4) = (  -0.1732050  -0.1224744   0.2999999), wk =   0.0080000
        k(    5) = (  -0.2309400  -0.1632993   0.3999999), wk =   0.0080000
        k(    6) = (   0.2886750   0.2041241  -0.4999999), wk =   0.0040000
        k(    7) = (   0.0000000   0.1224745   0.0000000), wk =   0.0040000
        k(    8) = (  -0.0577350   0.0816497   0.1000000), wk =   0.0080000
        k(    9) = (  -0.1154700   0.0408249   0.1999999), wk =   0.0080000
        k(   10) = (  -0.1732050   0.0000000   0.2999999), wk =   0.0080000
        k(   11) = (  -0.2309400  -0.0408248   0.3999999), wk =   0.0080000
        k(   12) = (   0.2886750   0.3265985  -0.4999999), wk =   0.0080000
        k(   13) = (   0.2309400   0.2857737  -0.3999999), wk =   0.0080000
        k(   14) = (   0.1732050   0.2449489  -0.2999999), wk =   0.0080000
        k(   15) = (   0.1154700   0.2041241  -0.1999999), wk =   0.0080000
        k(   16) = (   0.0577350   0.1632993  -0.1000000), wk =   0.0080000
        k(   17) = (   0.0000000   0.2449490   0.0000000), wk =   0.0040000
        k(   18) = (  -0.0577350   0.2041241   0.1000000), wk =   0.0080000
        k(   19) = (  -0.1154700   0.1632993   0.1999999), wk =   0.0080000
        k(   20) = (  -0.1732050   0.1224745   0.2999999), wk =   0.0080000
        k(   21) = (  -0.2309400   0.0816497   0.3999999), wk =   0.0080000
        k(   22) = (   0.2886750   0.4490730  -0.4999999), wk =   0.0080000
        k(   23) = (   0.2309400   0.4082482  -0.3999999), wk =   0.0080000
        k(   24) = (   0.1732050   0.3674234  -0.2999999), wk =   0.0080000
        k(   25) = (   0.1154700   0.3265986  -0.1999999), wk =   0.0080000
        k(   26) = (   0.0577350   0.2857738  -0.1000000), wk =   0.0080000
        k(   27) = (   0.0000000   0.3674234   0.0000000), wk =   0.0040000
        k(   28) = (  -0.0577350   0.3265986   0.1000000), wk =   0.0080000
        k(   29) = (  -0.1154700   0.2857738   0.1999999), wk =   0.0080000
        k(   30) = (  -0.1732050   0.2449490   0.2999999), wk =   0.0080000
        k(   31) = (  -0.2309400   0.2041242   0.3999999), wk =   0.0080000
        k(   32) = (   0.2886750   0.5715475  -0.4999999), wk =   0.0080000
        k(   33) = (   0.2309400   0.5307227  -0.3999999), wk =   0.0080000
        k(   34) = (   0.1732050   0.4898979  -0.2999999), wk =   0.0080000
        k(   35) = (   0.1154700   0.4490731  -0.1999999), wk =   0.0080000
        k(   36) = (   0.0577350   0.4082483  -0.1000000), wk =   0.0080000
        k(   37) = (   0.0000000   0.4898979   0.0000000), wk =   0.0040000
        k(   38) = (  -0.0577350   0.4490731   0.1000000), wk =   0.0080000
        k(   39) = (  -0.1154700   0.4082483   0.1999999), wk =   0.0080000
        k(   40) = (  -0.1732050   0.3674235   0.2999999), wk =   0.0080000
        k(   41) = (  -0.2309400   0.3265987   0.3999999), wk =   0.0080000
        k(   42) = (   0.2886750   0.6940220  -0.4999999), wk =   0.0080000
        k(   43) = (   0.2309400   0.6531972  -0.3999999), wk =   0.0080000
        k(   44) = (   0.1732050   0.6123724  -0.2999999), wk =   0.0080000
        k(   45) = (   0.1154700   0.5715475  -0.1999999), wk =   0.0080000
        k(   46) = (   0.0577350   0.5307227  -0.1000000), wk =   0.0080000
        k(   47) = (   0.0000000  -0.6123724   0.0000000), wk =   0.0020000
        k(   48) = (  -0.0577350  -0.6531972   0.1000000), wk =   0.0080000
        k(   49) = (  -0.1154700  -0.6940220   0.1999999), wk =   0.0080000
        k(   50) = (  -0.1732050  -0.7348468   0.2999999), wk =   0.0080000
        k(   51) = (  -0.2309400  -0.7756717   0.3999999), wk =   0.0080000
        k(   52) = (   0.2886750  -0.4082483  -0.4999999), wk =   0.0040000
        k(   53) = (   0.1154701  -0.0408248   0.0000000), wk =   0.0040000
        k(   54) = (   0.0000000  -0.1224745   0.1999999), wk =   0.0080000
        k(   55) = (  -0.0577350  -0.1632993   0.2999999), wk =   0.0080000
        k(   56) = (  -0.1154700  -0.2041241   0.3999999), wk =   0.0080000
        k(   57) = (   0.4041451   0.1632992  -0.4999999), wk =   0.0080000
        k(   58) = (   0.3464101   0.1224744  -0.3999999), wk =   0.0080000
        k(   59) = (   0.2886751   0.0816496  -0.2999999), wk =   0.0080000
        k(   60) = (   0.2309401   0.0408248  -0.1999999), wk =   0.0080000
        k(   61) = (   0.1732051  -0.0000000  -0.1000000), wk =   0.0080000
        k(   62) = (   0.1154701   0.0816497   0.0000000), wk =   0.0040000
        k(   63) = (   0.0000000   0.0000000   0.1999999), wk =   0.0040000
        k(   64) = (  -0.0577350  -0.0408248   0.2999999), wk =   0.0080000
        k(   65) = (  -0.1154700  -0.0816496   0.3999999), wk =   0.0080000
        k(   66) = (   0.4041451   0.2857737  -0.4999999), wk =   0.0080000
        k(   67) = (   0.3464101   0.2449489  -0.3999999), wk =   0.0080000
        k(   68) = (   0.2886751   0.2041241  -0.2999999), wk =   0.0080000
        k(   69) = (   0.2309401   0.1632993  -0.1999999), wk =   0.0080000
        k(   70) = (   0.1732051   0.1224745  -0.1000000), wk =   0.0080000
        k(   71) = (   0.1154701   0.2041241   0.0000000), wk =   0.0040000
        k(   72) = (  -0.0577350   0.0816497   0.2999999), wk =   0.0080000
        k(   73) = (  -0.1154700   0.0408249   0.3999999), wk =   0.0080000
        k(   74) = (   0.4041451   0.4082482  -0.4999999), wk =   0.0080000
        k(   75) = (   0.3464101   0.3674234  -0.3999999), wk =   0.0080000
        k(   76) = (   0.2886751   0.3265986  -0.2999999), wk =   0.0080000
        k(   77) = (   0.2309401   0.2857738  -0.1999999), wk =   0.0080000
        k(   78) = (   0.1732051   0.2449489  -0.1000000), wk =   0.0080000
        k(   79) = (   0.1154701   0.3265986   0.0000000), wk =   0.0040000
        k(   80) = (   0.0000000   0.2449490   0.1999999), wk =   0.0080000
        k(   81) = (  -0.0577350   0.2041242   0.2999999), wk =   0.0080000
        k(   82) = (  -0.1154700   0.1632994   0.3999999), wk =   0.0080000
        k(   83) = (   0.4041451   0.5307227  -0.4999999), wk =   0.0080000
        k(   84) = (   0.3464101   0.4898979  -0.3999999), wk =   0.0080000
        k(   85) = (   0.2886751   0.4490731  -0.2999999), wk =   0.0080000
        k(   86) = (   0.2309401   0.4082482  -0.1999999), wk =   0.0080000
        k(   87) = (   0.1732051   0.3674234  -0.1000000), wk =   0.0080000
        k(   88) = (   0.1154701   0.4490731   0.0000000), wk =   0.0040000
        k(   89) = (   0.0000000   0.3674235   0.1999999), wk =   0.0080000
        k(   90) = (  -0.0577350   0.3265987   0.2999999), wk =   0.0080000
        k(   91) = (  -0.1154700   0.2857738   0.3999999), wk =   0.0080000
        k(   92) = (   0.4041451   0.6531972  -0.4999999), wk =   0.0080000
        k(   93) = (   0.3464101   0.6123723  -0.3999999), wk =   0.0080000
        k(   94) = (   0.2886751   0.5715475  -0.2999999), wk =   0.0080000
        k(   95) = (   0.2309401   0.5307227  -0.1999999), wk =   0.0080000
        k(   96) = (   0.1732051   0.4898979  -0.1000000), wk =   0.0080000
        k(   97) = (   0.1154701  -0.6531972   0.0000000), wk =   0.0040000
        k(   98) = (   0.0000000  -0.7348469   0.1999999), wk =   0.0080000
        k(   99) = (  -0.0577350  -0.7756717   0.2999999), wk =   0.0080000
        k(  100) = (  -0.1154700  -0.8164965   0.3999999), wk =   0.0080000
        k(  101) = (   0.4041451  -0.4490732  -0.4999999), wk =   0.0080000
        k(  102) = (   0.3464101  -0.4898980  -0.3999999), wk =   0.0080000
        k(  103) = (   0.2886751  -0.5307228  -0.2999999), wk =   0.0080000
        k(  104) = (   0.2309401  -0.5715476  -0.1999999), wk =   0.0080000
        k(  105) = (   0.1732051  -0.6123724  -0.1000000), wk =   0.0080000
        k(  106) = (   0.1154701  -0.5307227   0.0000000), wk =   0.0040000
        k(  107) = (   0.0000000  -0.6123724   0.1999999), wk =   0.0040000
        k(  108) = (  -0.0577350  -0.6531972   0.2999999), wk =   0.0080000
        k(  109) = (  -0.1154700  -0.6940220   0.3999999), wk =   0.0080000
        k(  110) = (   0.4041451  -0.3265987  -0.4999999), wk =   0.0080000
        k(  111) = (   0.3464101  -0.3674235  -0.3999999), wk =   0.0080000
        k(  112) = (   0.2886751  -0.4082483  -0.2999999), wk =   0.0080000
        k(  113) = (   0.2309401  -0.4490731  -0.1999999), wk =   0.0080000
        k(  114) = (   0.1732051  -0.4898979  -0.1000000), wk =   0.0080000
        k(  115) = (   0.1154701  -0.4082483   0.0000000), wk =   0.0040000
        k(  116) = (  -0.0577350  -0.5307227   0.2999999), wk =   0.0080000
        k(  117) = (  -0.1154700  -0.5715475   0.3999999), wk =   0.0080000
        k(  118) = (   0.4041451  -0.2041242  -0.4999999), wk =   0.0080000
        k(  119) = (   0.3464101  -0.2449490  -0.3999999), wk =   0.0080000
        k(  120) = (   0.2886751  -0.2857738  -0.2999999), wk =   0.0080000
        k(  121) = (   0.2309401  -0.3265986  -0.1999999), wk =   0.0080000
        k(  122) = (   0.1732051  -0.3674235  -0.1000000), wk =   0.0080000
        k(  123) = (   0.1154701  -0.2857738   0.0000000), wk =   0.0040000
        k(  124) = (  -0.0577350  -0.4082482   0.2999999), wk =   0.0080000
        k(  125) = (  -0.1154700  -0.4490730   0.3999999), wk =   0.0080000
        k(  126) = (   0.4041451  -0.0816497  -0.4999999), wk =   0.0080000
        k(  127) = (   0.3464101  -0.1224745  -0.3999999), wk =   0.0080000
        k(  128) = (   0.2886751  -0.1632994  -0.2999999), wk =   0.0080000
        k(  129) = (   0.2309401  -0.2041242  -0.1999999), wk =   0.0080000
        k(  130) = (   0.1732051  -0.2449490  -0.1000000), wk =   0.0080000
        k(  131) = (   0.1154701  -0.1632993   0.0000000), wk =   0.0040000
        k(  132) = (  -0.0577350  -0.2857737   0.2999999), wk =   0.0080000
        k(  133) = (  -0.1154700  -0.3265986   0.3999999), wk =   0.0080000
        k(  134) = (   0.4041451   0.0408248  -0.4999999), wk =   0.0080000
        k(  135) = (   0.3464101  -0.0000001  -0.3999999), wk =   0.0080000
        k(  136) = (   0.2886751  -0.0408249  -0.2999999), wk =   0.0080000
        k(  137) = (   0.2309401  -0.0816497  -0.1999999), wk =   0.0080000
        k(  138) = (   0.1732051  -0.1224745  -0.1000000), wk =   0.0080000
        k(  139) = (   0.2309401  -0.0816497   0.0000000), wk =   0.0040000
        k(  140) = (   0.0000001  -0.2449489   0.3999999), wk =   0.0080000
        k(  141) = (   0.5196151   0.1224744  -0.4999999), wk =   0.0080000
        k(  142) = (   0.4618801   0.0816496  -0.3999999), wk =   0.0080000
        k(  143) = (   0.4041451   0.0408248  -0.2999999), wk =   0.0080000
        k(  144) = (   0.3464101  -0.0000000  -0.1999999), wk =   0.0080000
        k(  145) = (   0.2886751  -0.0408248  -0.1000000), wk =   0.0080000
        k(  146) = (   0.2309401   0.0408248   0.0000000), wk =   0.0040000
        k(  147) = (   0.0000001  -0.1224744   0.3999999), wk =   0.0080000
        k(  148) = (   0.5196151   0.2449489  -0.4999999), wk =   0.0080000
        k(  149) = (   0.4618801   0.2041241  -0.3999999), wk =   0.0080000
        k(  150) = (   0.4041451   0.1632993  -0.2999999), wk =   0.0080000
        k(  151) = (   0.3464101   0.1224745  -0.1999999), wk =   0.0080000
        k(  152) = (   0.2886751   0.0816496  -0.1000000), wk =   0.0080000
        k(  153) = (   0.2309401   0.1632993   0.0000000), wk =   0.0040000
        k(  154) = (   0.0000001   0.0000001   0.3999999), wk =   0.0040000
        k(  155) = (   0.5196151   0.3674234  -0.4999999), wk =   0.0080000
        k(  156) = (   0.4618801   0.3265986  -0.3999999), wk =   0.0080000
        k(  157) = (   0.4041451   0.2857737  -0.2999999), wk =   0.0080000
        k(  158) = (   0.3464101   0.2449489  -0.1999999), wk =   0.0080000
        k(  159) = (   0.2886751   0.2041241  -0.1000000), wk =   0.0080000
        k(  160) = (   0.2309401   0.2857738   0.0000000), wk =   0.0040000
        k(  161) = (   0.5196151   0.4898979  -0.4999999), wk =   0.0080000
        k(  162) = (   0.4618801   0.4490730  -0.3999999), wk =   0.0080000
        k(  163) = (   0.4041451   0.4082482  -0.2999999), wk =   0.0080000
        k(  164) = (   0.3464101   0.3674234  -0.1999999), wk =   0.0080000
        k(  165) = (   0.2886751   0.3265986  -0.1000000), wk =   0.0080000
        k(  166) = (   0.2309401   0.4082483   0.0000000), wk =   0.0040000
        k(  167) = (   0.5196151   0.6123723  -0.4999999), wk =   0.0080000
        k(  168) = (   0.4618801   0.5715475  -0.3999999), wk =   0.0080000
        k(  169) = (   0.4041451   0.5307227  -0.2999999), wk =   0.0080000
        k(  170) = (   0.3464101   0.4898979  -0.1999999), wk =   0.0080000
        k(  171) = (   0.2886751   0.4490731  -0.1000000), wk =   0.0080000
        k(  172) = (   0.2309401  -0.6940221   0.0000000), wk =   0.0040000
        k(  173) = (   0.0000001  -0.8573213   0.3999999), wk =   0.0080000
        k(  174) = (   0.5196151  -0.4898980  -0.4999999), wk =   0.0080000
        k(  175) = (   0.4618801  -0.5307228  -0.3999999), wk =   0.0080000
        k(  176) = (   0.4041451  -0.5715476  -0.2999999), wk =   0.0080000
        k(  177) = (   0.3464101  -0.6123724  -0.1999999), wk =   0.0080000
        k(  178) = (   0.2886751  -0.6531972  -0.1000000), wk =   0.0080000
        k(  179) = (   0.2309401  -0.5715476   0.0000000), wk =   0.0040000
        k(  180) = (   0.0000001  -0.7348468   0.3999999), wk =   0.0080000
        k(  181) = (   0.5196151  -0.3674235  -0.4999999), wk =   0.0080000
        k(  182) = (   0.4618801  -0.4082483  -0.3999999), wk =   0.0080000
        k(  183) = (   0.4041451  -0.4490731  -0.2999999), wk =   0.0080000
        k(  184) = (   0.3464101  -0.4898980  -0.1999999), wk =   0.0080000
        k(  185) = (   0.2886751  -0.5307228  -0.1000000), wk =   0.0080000
        k(  186) = (   0.2309401  -0.4490731   0.0000000), wk =   0.0040000
        k(  187) = (   0.0000001  -0.6123723   0.3999999), wk =   0.0040000
        k(  188) = (   0.5196151  -0.2449490  -0.4999999), wk =   0.0080000
        k(  189) = (   0.4618801  -0.2857738  -0.3999999), wk =   0.0080000
        k(  190) = (   0.4041451  -0.3265987  -0.2999999), wk =   0.0080000
        k(  191) = (   0.3464101  -0.3674235  -0.1999999), wk =   0.0080000
        k(  192) = (   0.2886751  -0.4082483  -0.1000000), wk =   0.0080000
        k(  193) = (   0.2309401  -0.3265986   0.0000000), wk =   0.0040000
        k(  194) = (   0.5196151  -0.1224746  -0.4999999), wk =   0.0080000
        k(  195) = (   0.4618801  -0.1632994  -0.3999999), wk =   0.0080000
        k(  196) = (   0.4041451  -0.2041242  -0.2999999), wk =   0.0080000
        k(  197) = (   0.3464101  -0.2449490  -0.1999999), wk =   0.0080000
        k(  198) = (   0.2886751  -0.2857738  -0.1000000), wk =   0.0080000
        k(  199) = (   0.2309401  -0.2041241   0.0000000), wk =   0.0040000
        k(  200) = (   0.5196151  -0.0000001  -0.4999999), wk =   0.0080000
        k(  201) = (   0.4618801  -0.0408249  -0.3999999), wk =   0.0080000
        k(  202) = (   0.4041451  -0.0816497  -0.2999999), wk =   0.0080000
        k(  203) = (   0.3464101  -0.1224745  -0.1999999), wk =   0.0080000
        k(  204) = (   0.2886751  -0.1632993  -0.1000000), wk =   0.0080000
        k(  205) = (   0.3464102  -0.1224745   0.0000000), wk =   0.0040000
        k(  206) = (   0.5773502   0.0408248  -0.3999999), wk =   0.0080000
        k(  207) = (   0.5196152  -0.0000000  -0.2999999), wk =   0.0080000
        k(  208) = (   0.4618802  -0.0408249  -0.1999999), wk =   0.0080000
        k(  209) = (   0.4041452  -0.0816497  -0.1000000), wk =   0.0080000
        k(  210) = (   0.3464102   0.0000000   0.0000000), wk =   0.0040000
        k(  211) = (   0.5773502   0.1632993  -0.3999999), wk =   0.0080000
        k(  212) = (   0.5196152   0.1224744  -0.2999999), wk =   0.0080000
        k(  213) = (   0.4618802   0.0816496  -0.1999999), wk =   0.0080000
        k(  214) = (   0.4041452   0.0408248  -0.1000000), wk =   0.0080000
        k(  215) = (   0.3464102   0.1224745   0.0000000), wk =   0.0040000
        k(  216) = (   0.5773502   0.2857737  -0.3999999), wk =   0.0080000
        k(  217) = (   0.5196152   0.2449489  -0.2999999), wk =   0.0080000
        k(  218) = (   0.4618802   0.2041241  -0.1999999), wk =   0.0080000
        k(  219) = (   0.4041452   0.1632993  -0.1000000), wk =   0.0080000
        k(  220) = (   0.3464102   0.2449490   0.0000000), wk =   0.0040000
        k(  221) = (   0.5773502   0.4082482  -0.3999999), wk =   0.0040000
        k(  222) = (   0.5196152   0.3674234  -0.2999999), wk =   0.0080000
        k(  223) = (   0.4618802   0.3265986  -0.1999999), wk =   0.0080000
        k(  224) = (   0.4041452   0.2857738  -0.1000000), wk =   0.0080000
        k(  225) = (   0.3464102   0.3674234   0.0000000), wk =   0.0040000
        k(  226) = (   0.5196152   0.4898979  -0.2999999), wk =   0.0080000
        k(  227) = (   0.4618802   0.4490731  -0.1999999), wk =   0.0080000
        k(  228) = (   0.4041452   0.4082483  -0.1000000), wk =   0.0080000
        k(  229) = (   0.3464102  -0.7348469   0.0000000), wk =   0.0040000
        k(  230) = (   0.5196152  -0.6123724  -0.2999999), wk =   0.0080000
        k(  231) = (   0.4618802  -0.6531973  -0.1999999), wk =   0.0080000
        k(  232) = (   0.4041452  -0.6940221  -0.1000000), wk =   0.0080000
        k(  233) = (   0.3464102  -0.6123724   0.0000000), wk =   0.0040000
        k(  234) = (   0.5196152  -0.4898980  -0.2999999), wk =   0.0080000
        k(  235) = (   0.4618802  -0.5307228  -0.1999999), wk =   0.0080000
        k(  236) = (   0.4041452  -0.5715476  -0.1000000), wk =   0.0080000
        k(  237) = (   0.3464102  -0.4898979   0.0000000), wk =   0.0040000
        k(  238) = (   0.5773502  -0.3265987  -0.3999999), wk =   0.0080000
        k(  239) = (   0.5196152  -0.3674235  -0.2999999), wk =   0.0080000
        k(  240) = (   0.4618802  -0.4082483  -0.1999999), wk =   0.0080000
        k(  241) = (   0.4041452  -0.4490731  -0.1000000), wk =   0.0080000
        k(  242) = (   0.3464102  -0.3674234   0.0000000), wk =   0.0040000
        k(  243) = (   0.5773502  -0.2041242  -0.3999999), wk =   0.0040000
        k(  244) = (   0.5196152  -0.2449490  -0.2999999), wk =   0.0080000
        k(  245) = (   0.4618802  -0.2857738  -0.1999999), wk =   0.0080000
        k(  246) = (   0.4041452  -0.3265986  -0.1000000), wk =   0.0080000
        k(  247) = (   0.3464102  -0.2449490   0.0000000), wk =   0.0040000
        k(  248) = (   0.5196152  -0.1224745  -0.2999999), wk =   0.0080000
        k(  249) = (   0.4618802  -0.1632993  -0.1999999), wk =   0.0080000
        k(  250) = (   0.4041452  -0.2041241  -0.1000000), wk =   0.0080000
        k(  251) = (   0.4618802  -0.1632993   0.0000000), wk =   0.0040000
        k(  252) = (   0.5773502  -0.0816497  -0.1999999), wk =   0.0080000
        k(  253) = (   0.5196152  -0.1224745  -0.1000000), wk =   0.0080000
        k(  254) = (   0.4618802  -0.0408248   0.0000000), wk =   0.0040000
        k(  255) = (   0.5773502   0.0408248  -0.1999999), wk =   0.0080000
        k(  256) = (   0.5196152  -0.0000000  -0.1000000), wk =   0.0080000
        k(  257) = (   0.4618802   0.0816497   0.0000000), wk =   0.0040000
        k(  258) = (   0.5773502   0.1632993  -0.1999999), wk =   0.0080000
        k(  259) = (   0.5196152   0.1224745  -0.1000000), wk =   0.0080000
        k(  260) = (   0.4618802   0.2041241   0.0000000), wk =   0.0040000
        k(  261) = (   0.5773502   0.2857738  -0.1999999), wk =   0.0080000
        k(  262) = (   0.5196152   0.2449489  -0.1000000), wk =   0.0080000
        k(  263) = (   0.4618802   0.3265986   0.0000000), wk =   0.0040000
        k(  264) = (   0.5773502   0.4082482  -0.1999999), wk =   0.0040000
        k(  265) = (   0.5196152   0.3674234  -0.1000000), wk =   0.0080000
        k(  266) = (   0.4618802  -0.7756717   0.0000000), wk =   0.0040000
        k(  267) = (   0.5196152  -0.7348469  -0.1000000), wk =   0.0080000
        k(  268) = (   0.4618802  -0.6531972   0.0000000), wk =   0.0040000
        k(  269) = (   0.5196152  -0.6123724  -0.1000000), wk =   0.0080000
        k(  270) = (   0.4618802  -0.5307227   0.0000000), wk =   0.0040000
        k(  271) = (   0.5196152  -0.4898979  -0.1000000), wk =   0.0080000
        k(  272) = (   0.4618802  -0.4082483   0.0000000), wk =   0.0040000
        k(  273) = (   0.5196152  -0.3674235  -0.1000000), wk =   0.0080000
        k(  274) = (   0.4618802  -0.2857738   0.0000000), wk =   0.0040000
        k(  275) = (   0.5773502  -0.2041242  -0.1999999), wk =   0.0040000
        k(  276) = (   0.5196152  -0.2449490  -0.1000000), wk =   0.0080000
        k(  277) = (  -0.5773503   0.2041241   0.0000000), wk =   0.0020000
        k(  278) = (  -0.5773503   0.3265986   0.0000000), wk =   0.0040000
        k(  279) = (  -0.5773503   0.4490731   0.0000000), wk =   0.0040000
        k(  280) = (  -0.5773503   0.5715476   0.0000000), wk =   0.0040000
        k(  281) = (  -0.5773503   0.6940221   0.0000000), wk =   0.0040000
        k(  282) = (  -0.5773503  -0.4082483   0.0000000), wk =   0.0020000

                       cryst. coord.
        k(    1) = (   0.0000000   0.0000000   0.0000000), wk =   0.0020000
        k(    2) = (   0.0000000  -0.0000000   0.1000000), wk =   0.0080000
        k(    3) = (   0.0000000  -0.0000000   0.2000000), wk =   0.0080000
        k(    4) = (   0.0000000  -0.0000000   0.3000000), wk =   0.0080000
        k(    5) = (   0.0000000  -0.0000000   0.4000000), wk =   0.0080000
        k(    6) = (  -0.0000000   0.0000000  -0.5000000), wk =   0.0040000
        k(    7) = (   0.0000000   0.1000000   0.0000000), wk =   0.0040000
        k(    8) = (   0.0000000   0.1000000   0.1000000), wk =   0.0080000
        k(    9) = (   0.0000000   0.1000000   0.2000000), wk =   0.0080000
        k(   10) = (   0.0000000   0.1000000   0.3000000), wk =   0.0080000
        k(   11) = (   0.0000000   0.1000000   0.4000000), wk =   0.0080000
        k(   12) = (  -0.0000000   0.1000000  -0.5000000), wk =   0.0080000
        k(   13) = (  -0.0000000   0.1000000  -0.4000000), wk =   0.0080000
        k(   14) = (   0.0000000   0.1000000  -0.3000000), wk =   0.0080000
        k(   15) = (  -0.0000000   0.1000000  -0.2000000), wk =   0.0080000
        k(   16) = (  -0.0000000   0.1000000  -0.1000000), wk =   0.0080000
        k(   17) = (   0.0000000   0.2000000   0.0000000), wk =   0.0040000
        k(   18) = (   0.0000000   0.2000000   0.1000000), wk =   0.0080000
        k(   19) = (   0.0000000   0.2000000   0.2000000), wk =   0.0080000
        k(   20) = (   0.0000000   0.2000000   0.3000000), wk =   0.0080000
        k(   21) = (   0.0000000   0.2000000   0.4000000), wk =   0.0080000
        k(   22) = (  -0.0000000   0.2000000  -0.5000000), wk =   0.0080000
        k(   23) = (  -0.0000000   0.2000000  -0.4000000), wk =   0.0080000
        k(   24) = (   0.0000000   0.2000000  -0.3000000), wk =   0.0080000
        k(   25) = (  -0.0000000   0.2000000  -0.2000000), wk =   0.0080000
        k(   26) = (  -0.0000000   0.2000000  -0.1000000), wk =   0.0080000
        k(   27) = (   0.0000000   0.3000000   0.0000000), wk =   0.0040000
        k(   28) = (   0.0000000   0.3000000   0.1000000), wk =   0.0080000
        k(   29) = (   0.0000000   0.3000000   0.2000000), wk =   0.0080000
        k(   30) = (   0.0000000   0.3000000   0.3000000), wk =   0.0080000
        k(   31) = (   0.0000000   0.3000000   0.4000000), wk =   0.0080000
        k(   32) = (  -0.0000000   0.3000000  -0.5000000), wk =   0.0080000
        k(   33) = (  -0.0000000   0.3000000  -0.4000000), wk =   0.0080000
        k(   34) = (   0.0000000   0.3000000  -0.3000000), wk =   0.0080000
        k(   35) = (  -0.0000000   0.3000000  -0.2000000), wk =   0.0080000
        k(   36) = (  -0.0000000   0.3000000  -0.1000000), wk =   0.0080000
        k(   37) = (   0.0000000   0.4000000   0.0000000), wk =   0.0040000
        k(   38) = (   0.0000000   0.4000000   0.1000000), wk =   0.0080000
        k(   39) = (   0.0000000   0.4000000   0.2000000), wk =   0.0080000
        k(   40) = (   0.0000000   0.4000000   0.3000000), wk =   0.0080000
        k(   41) = (   0.0000000   0.4000000   0.4000000), wk =   0.0080000
        k(   42) = (  -0.0000000   0.4000000  -0.5000000), wk =   0.0080000
        k(   43) = (  -0.0000000   0.4000000  -0.4000000), wk =   0.0080000
        k(   44) = (   0.0000000   0.4000000  -0.3000000), wk =   0.0080000
        k(   45) = (  -0.0000000   0.4000000  -0.2000000), wk =   0.0080000
        k(   46) = (  -0.0000000   0.4000000  -0.1000000), wk =   0.0080000
        k(   47) = (   0.0000000  -0.5000000   0.0000000), wk =   0.0020000
        k(   48) = (   0.0000000  -0.5000000   0.1000000), wk =   0.0080000
        k(   49) = (   0.0000000  -0.5000000   0.2000000), wk =   0.0080000
        k(   50) = (   0.0000000  -0.5000000   0.3000000), wk =   0.0080000
        k(   51) = (   0.0000000  -0.5000000   0.4000000), wk =   0.0080000
        k(   52) = (  -0.0000000  -0.5000000  -0.5000000), wk =   0.0040000
        k(   53) = (   0.1000000   0.0000000   0.0000000), wk =   0.0040000
        k(   54) = (   0.1000000   0.0000000   0.2000000), wk =   0.0080000
        k(   55) = (   0.1000000   0.0000000   0.3000000), wk =   0.0080000
        k(   56) = (   0.1000000   0.0000000   0.4000000), wk =   0.0080000
        k(   57) = (   0.1000000   0.0000000  -0.5000000), wk =   0.0080000
        k(   58) = (   0.1000000   0.0000000  -0.4000000), wk =   0.0080000
        k(   59) = (   0.1000000   0.0000000  -0.3000000), wk =   0.0080000
        k(   60) = (   0.1000000   0.0000000  -0.2000000), wk =   0.0080000
        k(   61) = (   0.1000000   0.0000000  -0.1000000), wk =   0.0080000
        k(   62) = (   0.1000000   0.1000000   0.0000000), wk =   0.0040000
        k(   63) = (   0.1000000   0.1000000   0.2000000), wk =   0.0040000
        k(   64) = (   0.1000000   0.1000000   0.3000000), wk =   0.0080000
        k(   65) = (   0.1000000   0.1000000   0.4000000), wk =   0.0080000
        k(   66) = (   0.1000000   0.1000000  -0.5000000), wk =   0.0080000
        k(   67) = (   0.1000000   0.1000000  -0.4000000), wk =   0.0080000
        k(   68) = (   0.1000000   0.1000000  -0.3000000), wk =   0.0080000
        k(   69) = (   0.1000000   0.1000000  -0.2000000), wk =   0.0080000
        k(   70) = (   0.1000000   0.1000000  -0.1000000), wk =   0.0080000
        k(   71) = (   0.1000000   0.2000000   0.0000000), wk =   0.0040000
        k(   72) = (   0.1000000   0.2000000   0.3000000), wk =   0.0080000
        k(   73) = (   0.1000000   0.2000000   0.4000000), wk =   0.0080000
        k(   74) = (   0.1000000   0.2000000  -0.5000000), wk =   0.0080000
        k(   75) = (   0.1000000   0.2000000  -0.4000000), wk =   0.0080000
        k(   76) = (   0.1000000   0.2000000  -0.3000000), wk =   0.0080000
        k(   77) = (   0.1000000   0.2000000  -0.2000000), wk =   0.0080000
        k(   78) = (   0.1000000   0.2000000  -0.1000000), wk =   0.0080000
        k(   79) = (   0.1000000   0.3000000   0.0000000), wk =   0.0040000
        k(   80) = (   0.1000000   0.3000000   0.2000000), wk =   0.0080000
        k(   81) = (   0.1000000   0.3000000   0.3000000), wk =   0.0080000
        k(   82) = (   0.1000000   0.3000000   0.4000000), wk =   0.0080000
        k(   83) = (   0.1000000   0.3000000  -0.5000000), wk =   0.0080000
        k(   84) = (   0.1000000   0.3000000  -0.4000000), wk =   0.0080000
        k(   85) = (   0.1000000   0.3000000  -0.3000000), wk =   0.0080000
        k(   86) = (   0.1000000   0.3000000  -0.2000000), wk =   0.0080000
        k(   87) = (   0.1000000   0.3000000  -0.1000000), wk =   0.0080000
        k(   88) = (   0.1000000   0.4000000   0.0000000), wk =   0.0040000
        k(   89) = (   0.1000000   0.4000000   0.2000000), wk =   0.0080000
        k(   90) = (   0.1000000   0.4000000   0.3000000), wk =   0.0080000
        k(   91) = (   0.1000000   0.4000000   0.4000000), wk =   0.0080000
        k(   92) = (   0.1000000   0.4000000  -0.5000000), wk =   0.0080000
        k(   93) = (   0.1000000   0.4000000  -0.4000000), wk =   0.0080000
        k(   94) = (   0.1000000   0.4000000  -0.3000000), wk =   0.0080000
        k(   95) = (   0.1000000   0.4000000  -0.2000000), wk =   0.0080000
        k(   96) = (   0.1000000   0.4000000  -0.1000000), wk =   0.0080000
        k(   97) = (   0.1000000  -0.5000000   0.0000000), wk =   0.0040000
        k(   98) = (   0.1000000  -0.5000000   0.2000000), wk =   0.0080000
        k(   99) = (   0.1000000  -0.5000000   0.3000000), wk =   0.0080000
        k(  100) = (   0.1000000  -0.5000000   0.4000000), wk =   0.0080000
        k(  101) = (   0.1000000  -0.5000000  -0.5000000), wk =   0.0080000
        k(  102) = (   0.1000000  -0.5000000  -0.4000000), wk =   0.0080000
        k(  103) = (   0.1000000  -0.5000000  -0.3000000), wk =   0.0080000
        k(  104) = (   0.1000000  -0.5000000  -0.2000000), wk =   0.0080000
        k(  105) = (   0.1000000  -0.5000000  -0.1000000), wk =   0.0080000
        k(  106) = (   0.1000000  -0.4000000   0.0000000), wk =   0.0040000
        k(  107) = (   0.1000000  -0.4000000   0.2000000), wk =   0.0040000
        k(  108) = (   0.1000000  -0.4000000   0.3000000), wk =   0.0080000
        k(  109) = (   0.1000000  -0.4000000   0.4000000), wk =   0.0080000
        k(  110) = (   0.1000000  -0.4000000  -0.5000000), wk =   0.0080000
        k(  111) = (   0.1000000  -0.4000000  -0.4000000), wk =   0.0080000
        k(  112) = (   0.1000000  -0.4000000  -0.3000000), wk =   0.0080000
        k(  113) = (   0.1000000  -0.4000000  -0.2000000), wk =   0.0080000
        k(  114) = (   0.1000000  -0.4000000  -0.1000000), wk =   0.0080000
        k(  115) = (   0.1000000  -0.3000000   0.0000000), wk =   0.0040000
        k(  116) = (   0.1000000  -0.3000000   0.3000000), wk =   0.0080000
        k(  117) = (   0.1000000  -0.3000000   0.4000000), wk =   0.0080000
        k(  118) = (   0.1000000  -0.3000000  -0.5000000), wk =   0.0080000
        k(  119) = (   0.1000000  -0.3000000  -0.4000000), wk =   0.0080000
        k(  120) = (   0.1000000  -0.3000000  -0.3000000), wk =   0.0080000
        k(  121) = (   0.1000000  -0.3000000  -0.2000000), wk =   0.0080000
        k(  122) = (   0.1000000  -0.3000000  -0.1000000), wk =   0.0080000
        k(  123) = (   0.1000000  -0.2000000   0.0000000), wk =   0.0040000
        k(  124) = (   0.1000000  -0.2000000   0.3000000), wk =   0.0080000
        k(  125) = (   0.1000000  -0.2000000   0.4000000), wk =   0.0080000
        k(  126) = (   0.1000000  -0.2000000  -0.5000000), wk =   0.0080000
        k(  127) = (   0.1000000  -0.2000000  -0.4000000), wk =   0.0080000
        k(  128) = (   0.1000000  -0.2000000  -0.3000000), wk =   0.0080000
        k(  129) = (   0.1000000  -0.2000000  -0.2000000), wk =   0.0080000
        k(  130) = (   0.1000000  -0.2000000  -0.1000000), wk =   0.0080000
        k(  131) = (   0.1000000  -0.1000000   0.0000000), wk =   0.0040000
        k(  132) = (   0.1000000  -0.1000000   0.3000000), wk =   0.0080000
        k(  133) = (   0.1000000  -0.1000000   0.4000000), wk =   0.0080000
        k(  134) = (   0.1000000  -0.1000000  -0.5000000), wk =   0.0080000
        k(  135) = (   0.1000000  -0.1000000  -0.4000000), wk =   0.0080000
        k(  136) = (   0.1000000  -0.1000000  -0.3000000), wk =   0.0080000
        k(  137) = (   0.1000000  -0.1000000  -0.2000000), wk =   0.0080000
        k(  138) = (   0.1000000  -0.1000000  -0.1000000), wk =   0.0080000
        k(  139) = (   0.2000000   0.0000000   0.0000000), wk =   0.0040000
        k(  140) = (   0.2000000   0.0000000   0.4000000), wk =   0.0080000
        k(  141) = (   0.2000000   0.0000000  -0.5000000), wk =   0.0080000
        k(  142) = (   0.2000000   0.0000000  -0.4000000), wk =   0.0080000
        k(  143) = (   0.2000000   0.0000000  -0.3000000), wk =   0.0080000
        k(  144) = (   0.2000000   0.0000000  -0.2000000), wk =   0.0080000
        k(  145) = (   0.2000000   0.0000000  -0.1000000), wk =   0.0080000
        k(  146) = (   0.2000000   0.1000000   0.0000000), wk =   0.0040000
        k(  147) = (   0.2000000   0.1000000   0.4000000), wk =   0.0080000
        k(  148) = (   0.2000000   0.1000000  -0.5000000), wk =   0.0080000
        k(  149) = (   0.2000000   0.1000000  -0.4000000), wk =   0.0080000
        k(  150) = (   0.2000000   0.1000000  -0.3000000), wk =   0.0080000
        k(  151) = (   0.2000000   0.1000000  -0.2000000), wk =   0.0080000
        k(  152) = (   0.2000000   0.1000000  -0.1000000), wk =   0.0080000
        k(  153) = (   0.2000000   0.2000000   0.0000000), wk =   0.0040000
        k(  154) = (   0.2000000   0.2000000   0.4000000), wk =   0.0040000
        k(  155) = (   0.2000000   0.2000000  -0.5000000), wk =   0.0080000
        k(  156) = (   0.2000000   0.2000000  -0.4000000), wk =   0.0080000
        k(  157) = (   0.2000000   0.2000000  -0.3000000), wk =   0.0080000
        k(  158) = (   0.2000000   0.2000000  -0.2000000), wk =   0.0080000
        k(  159) = (   0.2000000   0.2000000  -0.1000000), wk =   0.0080000
        k(  160) = (   0.2000000   0.3000000   0.0000000), wk =   0.0040000
        k(  161) = (   0.2000000   0.3000000  -0.5000000), wk =   0.0080000
        k(  162) = (   0.2000000   0.3000000  -0.4000000), wk =   0.0080000
        k(  163) = (   0.2000000   0.3000000  -0.3000000), wk =   0.0080000
        k(  164) = (   0.2000000   0.3000000  -0.2000000), wk =   0.0080000
        k(  165) = (   0.2000000   0.3000000  -0.1000000), wk =   0.0080000
        k(  166) = (   0.2000000   0.4000000   0.0000000), wk =   0.0040000
        k(  167) = (   0.2000000   0.4000000  -0.5000000), wk =   0.0080000
        k(  168) = (   0.2000000   0.4000000  -0.4000000), wk =   0.0080000
        k(  169) = (   0.2000000   0.4000000  -0.3000000), wk =   0.0080000
        k(  170) = (   0.2000000   0.4000000  -0.2000000), wk =   0.0080000
        k(  171) = (   0.2000000   0.4000000  -0.1000000), wk =   0.0080000
        k(  172) = (   0.2000000  -0.5000000   0.0000000), wk =   0.0040000
        k(  173) = (   0.2000000  -0.5000000   0.4000000), wk =   0.0080000
        k(  174) = (   0.2000000  -0.5000000  -0.5000000), wk =   0.0080000
        k(  175) = (   0.2000000  -0.5000000  -0.4000000), wk =   0.0080000
        k(  176) = (   0.2000000  -0.5000000  -0.3000000), wk =   0.0080000
        k(  177) = (   0.2000000  -0.5000000  -0.2000000), wk =   0.0080000
        k(  178) = (   0.2000000  -0.5000000  -0.1000000), wk =   0.0080000
        k(  179) = (   0.2000000  -0.4000000   0.0000000), wk =   0.0040000
        k(  180) = (   0.2000000  -0.4000000   0.4000000), wk =   0.0080000
        k(  181) = (   0.2000000  -0.4000000  -0.5000000), wk =   0.0080000
        k(  182) = (   0.2000000  -0.4000000  -0.4000000), wk =   0.0080000
        k(  183) = (   0.2000000  -0.4000000  -0.3000000), wk =   0.0080000
        k(  184) = (   0.2000000  -0.4000000  -0.2000000), wk =   0.0080000
        k(  185) = (   0.2000000  -0.4000000  -0.1000000), wk =   0.0080000
        k(  186) = (   0.2000000  -0.3000000   0.0000000), wk =   0.0040000
        k(  187) = (   0.2000000  -0.3000000   0.4000000), wk =   0.0040000
        k(  188) = (   0.2000000  -0.3000000  -0.5000000), wk =   0.0080000
        k(  189) = (   0.2000000  -0.3000000  -0.4000000), wk =   0.0080000
        k(  190) = (   0.2000000  -0.3000000  -0.3000000), wk =   0.0080000
        k(  191) = (   0.2000000  -0.3000000  -0.2000000), wk =   0.0080000
        k(  192) = (   0.2000000  -0.3000000  -0.1000000), wk =   0.0080000
        k(  193) = (   0.2000000  -0.2000000   0.0000000), wk =   0.0040000
        k(  194) = (   0.2000000  -0.2000000  -0.5000000), wk =   0.0080000
        k(  195) = (   0.2000000  -0.2000000  -0.4000000), wk =   0.0080000
        k(  196) = (   0.2000000  -0.2000000  -0.3000000), wk =   0.0080000
        k(  197) = (   0.2000000  -0.2000000  -0.2000000), wk =   0.0080000
        k(  198) = (   0.2000000  -0.2000000  -0.1000000), wk =   0.0080000
        k(  199) = (   0.2000000  -0.1000000   0.0000000), wk =   0.0040000
        k(  200) = (   0.2000000  -0.1000000  -0.5000000), wk =   0.0080000
        k(  201) = (   0.2000000  -0.1000000  -0.4000000), wk =   0.0080000
        k(  202) = (   0.2000000  -0.1000000  -0.3000000), wk =   0.0080000
        k(  203) = (   0.2000000  -0.1000000  -0.2000000), wk =   0.0080000
        k(  204) = (   0.2000000  -0.1000000  -0.1000000), wk =   0.0080000
        k(  205) = (   0.3000000   0.0000000   0.0000000), wk =   0.0040000
        k(  206) = (   0.3000000  -0.0000000  -0.4000000), wk =   0.0080000
        k(  207) = (   0.3000000   0.0000000  -0.3000000), wk =   0.0080000
        k(  208) = (   0.3000000  -0.0000000  -0.2000000), wk =   0.0080000
        k(  209) = (   0.3000000  -0.0000000  -0.1000000), wk =   0.0080000
        k(  210) = (   0.3000000   0.1000000   0.0000000), wk =   0.0040000
        k(  211) = (   0.3000000   0.1000000  -0.4000000), wk =   0.0080000
        k(  212) = (   0.3000000   0.1000000  -0.3000000), wk =   0.0080000
        k(  213) = (   0.3000000   0.1000000  -0.2000000), wk =   0.0080000
        k(  214) = (   0.3000000   0.1000000  -0.1000000), wk =   0.0080000
        k(  215) = (   0.3000000   0.2000000   0.0000000), wk =   0.0040000
        k(  216) = (   0.3000000   0.2000000  -0.4000000), wk =   0.0080000
        k(  217) = (   0.3000000   0.2000000  -0.3000000), wk =   0.0080000
        k(  218) = (   0.3000000   0.2000000  -0.2000000), wk =   0.0080000
        k(  219) = (   0.3000000   0.2000000  -0.1000000), wk =   0.0080000
        k(  220) = (   0.3000000   0.3000000   0.0000000), wk =   0.0040000
        k(  221) = (   0.3000000   0.3000000  -0.4000000), wk =   0.0040000
        k(  222) = (   0.3000000   0.3000000  -0.3000000), wk =   0.0080000
        k(  223) = (   0.3000000   0.3000000  -0.2000000), wk =   0.0080000
        k(  224) = (   0.3000000   0.3000000  -0.1000000), wk =   0.0080000
        k(  225) = (   0.3000000   0.4000000   0.0000000), wk =   0.0040000
        k(  226) = (   0.3000000   0.4000000  -0.3000000), wk =   0.0080000
        k(  227) = (   0.3000000   0.4000000  -0.2000000), wk =   0.0080000
        k(  228) = (   0.3000000   0.4000000  -0.1000000), wk =   0.0080000
        k(  229) = (   0.3000000  -0.5000000   0.0000000), wk =   0.0040000
        k(  230) = (   0.3000000  -0.5000000  -0.3000000), wk =   0.0080000
        k(  231) = (   0.3000000  -0.5000000  -0.2000000), wk =   0.0080000
        k(  232) = (   0.3000000  -0.5000000  -0.1000000), wk =   0.0080000
        k(  233) = (   0.3000000  -0.4000000   0.0000000), wk =   0.0040000
        k(  234) = (   0.3000000  -0.4000000  -0.3000000), wk =   0.0080000
        k(  235) = (   0.3000000  -0.4000000  -0.2000000), wk =   0.0080000
        k(  236) = (   0.3000000  -0.4000000  -0.1000000), wk =   0.0080000
        k(  237) = (   0.3000000  -0.3000000   0.0000000), wk =   0.0040000
        k(  238) = (   0.3000000  -0.3000000  -0.4000000), wk =   0.0080000
        k(  239) = (   0.3000000  -0.3000000  -0.3000000), wk =   0.0080000
        k(  240) = (   0.3000000  -0.3000000  -0.2000000), wk =   0.0080000
        k(  241) = (   0.3000000  -0.3000000  -0.1000000), wk =   0.0080000
        k(  242) = (   0.3000000  -0.2000000   0.0000000), wk =   0.0040000
        k(  243) = (   0.3000000  -0.2000000  -0.4000000), wk =   0.0040000
        k(  244) = (   0.3000000  -0.2000000  -0.3000000), wk =   0.0080000
        k(  245) = (   0.3000000  -0.2000000  -0.2000000), wk =   0.0080000
        k(  246) = (   0.3000000  -0.2000000  -0.1000000), wk =   0.0080000
        k(  247) = (   0.3000000  -0.1000000   0.0000000), wk =   0.0040000
        k(  248) = (   0.3000000  -0.1000000  -0.3000000), wk =   0.0080000
        k(  249) = (   0.3000000  -0.1000000  -0.2000000), wk =   0.0080000
        k(  250) = (   0.3000000  -0.1000000  -0.1000000), wk =   0.0080000
        k(  251) = (   0.4000000   0.0000000   0.0000000), wk =   0.0040000
        k(  252) = (   0.4000000   0.0000000  -0.2000000), wk =   0.0080000
        k(  253) = (   0.4000000  -0.0000000  -0.1000000), wk =   0.0080000
        k(  254) = (   0.4000000   0.1000000   0.0000000), wk =   0.0040000
        k(  255) = (   0.4000000   0.1000000  -0.2000000), wk =   0.0080000
        k(  256) = (   0.4000000   0.1000000  -0.1000000), wk =   0.0080000
        k(  257) = (   0.4000000   0.2000000   0.0000000), wk =   0.0040000
        k(  258) = (   0.4000000   0.2000000  -0.2000000), wk =   0.0080000
        k(  259) = (   0.4000000   0.2000000  -0.1000000), wk =   0.0080000
        k(  260) = (   0.4000000   0.3000000   0.0000000), wk =   0.0040000
        k(  261) = (   0.4000000   0.3000000  -0.2000000), wk =   0.0080000
        k(  262) = (   0.4000000   0.3000000  -0.1000000), wk =   0.0080000
        k(  263) = (   0.4000000   0.4000000   0.0000000), wk =   0.0040000
        k(  264) = (   0.4000000   0.4000000  -0.2000000), wk =   0.0040000
        k(  265) = (   0.4000000   0.4000000  -0.1000000), wk =   0.0080000
        k(  266) = (   0.4000000  -0.5000000   0.0000000), wk =   0.0040000
        k(  267) = (   0.4000000  -0.5000000  -0.1000000), wk =   0.0080000
        k(  268) = (   0.4000000  -0.4000000   0.0000000), wk =   0.0040000
        k(  269) = (   0.4000000  -0.4000000  -0.1000000), wk =   0.0080000
        k(  270) = (   0.4000000  -0.3000000   0.0000000), wk =   0.0040000
        k(  271) = (   0.4000000  -0.3000000  -0.1000000), wk =   0.0080000
        k(  272) = (   0.4000000  -0.2000000   0.0000000), wk =   0.0040000
        k(  273) = (   0.4000000  -0.2000000  -0.1000000), wk =   0.0080000
        k(  274) = (   0.4000000  -0.1000000   0.0000000), wk =   0.0040000
        k(  275) = (   0.4000000  -0.1000000  -0.2000000), wk =   0.0040000
        k(  276) = (   0.4000000  -0.1000000  -0.1000000), wk =   0.0080000
        k(  277) = (  -0.5000000   0.0000000   0.0000000), wk =   0.0020000
        k(  278) = (  -0.5000000   0.1000000   0.0000000), wk =   0.0040000
        k(  279) = (  -0.5000000   0.2000000   0.0000000), wk =   0.0040000
        k(  280) = (  -0.5000000   0.3000000   0.0000000), wk =   0.0040000
        k(  281) = (  -0.5000000   0.4000000   0.0000000), wk =   0.0040000
        k(  282) = (  -0.5000000  -0.5000000   0.0000000), wk =   0.0020000

     Dense  grid:     3119 G-vectors     FFT dimensions: (  24,  24,  24)

     Dynamical RAM for                 wfc:       0.04 MB

     Dynamical RAM for     wfc (w. buffer):      10.08 MB

     Dynamical RAM for           str. fact:       0.05 MB

     Dynamical RAM for           local pot:       0.00 MB

     Dynamical RAM for          nlocal pot:       0.05 MB

     Dynamical RAM for                qrad:       0.23 MB

     Dynamical RAM for          rho,v,vnew:       0.46 MB

     Dynamical RAM for               rhoin:       0.15 MB

     Dynamical RAM for            rho*nmix:       0.76 MB

     Dynamical RAM for           G-vectors:       0.20 MB

     Dynamical RAM for          h,s,v(r/c):       0.03 MB

     Dynamical RAM for          <psi|beta>:       0.00 MB

     Dynamical RAM for                 psi:       0.14 MB

     Dynamical RAM for                hpsi:       0.14 MB

     Dynamical RAM for                spsi:       0.14 MB

     Dynamical RAM for      wfcinit/wfcrot:       0.07 MB

     Dynamical RAM for           addusdens:       2.90 MB

     Estimated static dynamical RAM per process >      12.61 MB

     Estimated max dynamical RAM per process >      15.51 MB

     Initial potential from superposition of free atoms

     starting charge    2.99781, renormalised to    3.00000
     Starting wfc are    4 randomized atomic wfcs +    2 random wfc

     total cpu time spent up to now is        1.1 secs

     Self-consistent Calculation

     iteration #  1     ecut=    35.00 Ry     beta= 0.70
     Davidson diagonalization with overlap
     ethr =  1.00E-02,  avg # of iterations =  4.7

     Threshold (ethr) on eigenvalues was too large:
     Diagonalizing with lowered threshold

     Davidson diagonalization with overlap
     ethr =  2.00E-04,  avg # of iterations =  1.3

     total cpu time spent up to now is        8.0 secs

     total energy              =      -6.64221218 Ry
     Harris-Foulkes estimate   =      -6.64472345 Ry
     estimated scf accuracy    <       0.00600198 Ry

     iteration #  2     ecut=    35.00 Ry     beta= 0.70
     Davidson diagonalization with overlap
     ethr =  2.00E-04,  avg # of iterations =  1.0

     total cpu time spent up to now is       10.3 secs

     total energy              =      -6.64228532 Ry
     Harris-Foulkes estimate   =      -6.64240114 Ry
     estimated scf accuracy    <       0.00030843 Ry

     iteration #  3     ecut=    35.00 Ry     beta= 0.70
     Davidson diagonalization with overlap
     ethr =  1.03E-05,  avg # of iterations =  1.8

     total cpu time spent up to now is       12.8 secs

     End of self-consistent calculation

          k = 0.0000 0.0000 0.0000 (   387 PWs)   bands (ev):

    -3.4456  20.2871  20.2874  21.4073  21.4073  21.4073

     occupation numbers 
     1.0000   0.0000   0.0000   0.0000   0.0000   0.0000

          k =-0.0577-0.0408 0.1000 (   381 PWs)   bands (ev):

    -3.1740  16.9716  19.4798  19.4800  22.2423  22.5895

     occupation numbers 
     1.0000   0.0000   0.0000   0.0000   0.0000   0.0000

          k =-0.1155-0.0816 0.2000 (   386 PWs)   bands (ev):

    -2.3618  13.0146  18.7067  18.7068  22.0157  23.0639

     occupation numbers 
     1.0000   0.0000   0.0000   0.0000   0.0000   0.0000

          k =-0.1732-0.1225 0.3000 (   389 PWs)   bands (ev):

    -1.0171   9.3386  18.3513  18.3513  21.4128  21.4129

     occupation numbers 
     1.0000   0.0000   0.0000   0.0000   0.0000   0.0000

          k =-0.2309-0.1633 0.4000 (   386 PWs)   bands (ev):

     0.8467   6.0559  18.4355  18.4355  20.0053  20.0054

     occupation numbers 
     1.0000   1.0000   0.0000   0.0000   0.0000   0.0000

          k = 0.2887 0.2041-0.5000 (   392 PWs)   bands (ev):

     3.1216   3.3052  18.8319  18.8319  19.1610  19.1610

     occupation numbers 
     1.0000   1.0000   0.0000   0.0000   0.0000   0.0000

          k = 0.0000 0.1225 0.0000 (   381 PWs)   bands (ev):

    -3.1740  16.9716  19.4798  19.4799  22.2420  22.5894

     occupation numbers 
     1.0000   0.0000   0.0000   0.0000   0.0000   0.0000

          k =-0.0577 0.0816 0.1000 (   383 PWs)   bands (ev):

    -3.0836  18.0828  18.0828  18.5061  20.6422  23.5186

     occupation numbers 
     1.0000   0.0000   0.0000   0.0000   0.0000   0.0000

          k =-0.1155 0.0408 0.2000 (   374 PWs)   bands (ev):

    -2.4519  14.4758  17.1120  18.5538  20.7489  21.7269

     occupation numbers 
     1.0000   0.0000   0.0000   0.0000   0.0000   0.0000

          k =-0.1732 0.0000 0.3000 (   384 PWs)   bands (ev):

    -1.2852  10.7288  16.5906  18.2080  18.8872  23.5762

     occupation numbers 
     1.0000   0.0000   0.0000   0.0000   0.0000   0.0000

          k =-0.2309-0.0408 0.4000 (   389 PWs)   bands (ev):

     0.4046   7.3234  16.5235  17.2487  18.1964  22.6423

     occupation numbers 
     1.0000   1.0000   0.0000   0.0000   0.0000   0.0000

          k = 0.2887 0.3266-0.5000 (   389 PWs)   bands (ev):

     2.5972   4.3428  16.0613  16.9116  18.6335  21.5336

     occupation numbers 
     1.0000   1.0000   0.0000   0.0000   0.0000   0.0000

          k = 0.2309 0.2858-0.4000 (   391 PWs)   bands (ev):

     1.8130   5.2839  15.3427  17.7508  19.5369  20.8596

     occupation numbers 
     1.0000   1.0000   0.0000   0.0000   0.0000   0.0000

          k = 0.1732 0.2449-0.3000 (   390 PWs)   bands (ev):

    -0.2157   8.4091  15.1035  19.0154  20.6499  20.8875

     occupation numbers 
     1.0000   0.0000   0.0000   0.0000   0.0000   0.0000

          k = 0.1155 0.2041-0.2000 (   384 PWs)   bands (ev):

    -1.7329  11.9209  15.3594  20.4470  21.0845  22.6224

     occupation numbers 
     1.0000   0.0000   0.0000   0.0000   0.0000   0.0000

          k = 0.0577 0.1633-0.1000 (   379 PWs)   bands (ev):

    -2.7223  15.4113  16.4036  20.9833  21.6574  23.0405

     occupation numbers 
     1.0000   0.0000   0.0000   0.0000   0.0000   0.0000

          k = 0.0000 0.2449 0.0000 (   386 PWs)   bands (ev):

    -2.3618  13.0146  18.7067  18.7068  22.0165  23.0639

     occupation numbers 
     1.0000   0.0000   0.0000   0.0000   0.0000   0.0000

          k =-0.0577 0.2041 0.1000 (   374 PWs)   bands (ev):

    -2.4519  14.4758  17.1120  18.5538  20.7488  21.7268

     occupation numbers 
     1.0000   0.0000   0.0000   0.0000   0.0000   0.0000

          k =-0.1155 0.1633 0.2000 (   379 PWs)   bands (ev):

    -2.0023  15.9693  15.9693  16.2019  18.3325  19.2313

     occupation numbers 
     1.0000   0.0000   0.0000   0.0000   0.0000   0.0000

          k =-0.1732 0.1225 0.3000 (   386 PWs)   bands (ev):

    -1.0176  12.5245  15.2851  16.0567  16.7379  19.9618

     occupation numbers 
     1.0000   0.0000   0.0000   0.0000   0.0000   0.0000

          k =-0.2309 0.0816 0.4000 (   390 PWs)   bands (ev):

     0.4917   9.0609  14.2073  15.0605  16.7410  22.4546

     occupation numbers 
     1.0000   0.0000   0.0000   0.0000   0.0000   0.0000

          k = 0.2887 0.4491-0.5000 (   389 PWs)   bands (ev):

     2.5075   5.9622  12.8256  15.2954  17.0634  24.4916

     occupation numbers 
     1.0000   1.0000   0.0000   0.0000   0.0000   0.0000

          k = 0.2309 0.4082-0.4000 (   389 PWs)   bands (ev):

     3.2904   5.0156  11.9364  15.9889  17.8482  23.6900

     occupation numbers 
     1.0000   1.0000   0.0000   0.0000   0.0000   0.0000

          k = 0.1732 0.3674-0.3000 (   387 PWs)   bands (ev):

     1.1102   7.9298  11.5813  17.1365  19.0979  23.3155

     occupation numbers 
     1.0000   0.1365   0.0000   0.0000   0.0000   0.0000

          k = 0.1155 0.3266-0.2000 (   395 PWs)   bands (ev):

    -0.5715  10.7959  12.1940  18.7207  20.7615  23.0583

     occupation numbers 
     1.0000   0.0000   0.0000   0.0000   0.0000   0.0000

          k = 0.0577 0.2858-0.1000 (   384 PWs)   bands (ev):

    -1.7329  11.9209  15.3594  20.4469  21.0849  22.6224

     occupation numbers 
     1.0000   0.0000   0.0000   0.0000   0.0000   0.0000

          k = 0.0000 0.3674 0.0000 (   389 PWs)   bands (ev):

    -1.0171   9.3386  18.3513  18.3513  21.4128  21.4130

     occupation numbers 
     1.0000   0.0000   0.0000   0.0000   0.0000   0.0000

          k =-0.0577 0.3266 0.1000 (   384 PWs)   bands (ev):

    -1.2852  10.7288  16.5906  18.2080  18.8872  23.5736

     occupation numbers 
     1.0000   0.0000   0.0000   0.0000   0.0000   0.0000

          k =-0.1155 0.2858 0.2000 (   386 PWs)   bands (ev):

    -1.0176  12.5245  15.2851  16.0567  16.7379  19.9619

     occupation numbers 
     1.0000   0.0000   0.0000   0.0000   0.0000   0.0000

          k =-0.1732 0.2449 0.3000 (   391 PWs)   bands (ev):

    -0.2173  13.5595  14.4415  14.4415  14.4652  17.8022

     occupation numbers 
     1.0000   0.0000   0.0000   0.0000   0.0000   0.0000

          k =-0.2309 0.2041 0.4000 (   386 PWs)   bands (ev):

     1.1058  11.1667  11.5475  14.0597  15.4184  18.8091

     occupation numbers 
     1.0000   0.0000   0.0000   0.0000   0.0000   0.0000

          k = 0.2887 0.5715-0.5000 (   387 PWs)   bands (ev):

     2.9314   8.0429   9.9552  14.1395  15.7601  21.6341

     occupation numbers 
     1.0000   0.0082   0.0000   0.0000   0.0000   0.0000

          k = 0.2309 0.5307-0.4000 (   389 PWs)   bands (ev):

     5.1306   5.3511   8.9201  14.6805  16.4253  24.9532

     occupation numbers 
     1.0000   1.0000   0.0000   0.0000   0.0000   0.0000

          k = 0.1732 0.4899-0.3000 (   387 PWs)   bands (ev):

     2.9452   7.4583   8.8946  15.6811  17.5473  26.4190

     occupation numbers 
     1.0000   1.0017   0.0000   0.0000   0.0000   0.0000

          k = 0.1155 0.4491-0.2000 (   387 PWs)   bands (ev):

     1.1102   7.9298  11.5813  17.1365  19.0979  23.3155

     occupation numbers 
     1.0000   0.1365   0.0000   0.0000   0.0000   0.0000

          k = 0.0577 0.4082-0.1000 (   390 PWs)   bands (ev):

    -0.2157   8.4091  15.1035  19.0154  20.6505  20.8875

     occupation numbers 
     1.0000   0.0000   0.0000   0.0000   0.0000   0.0000

          k = 0.0000 0.4899 0.0000 (   386 PWs)   bands (ev):

     0.8467   6.0559  18.4355  18.4355  20.0053  20.0054

     occupation numbers 
     1.0000   1.0000   0.0000   0.0000   0.0000   0.0000

          k =-0.0577 0.4491 0.1000 (   389 PWs)   bands (ev):

     0.4046   7.3234  16.5235  17.2487  18.1964  22.6424

     occupation numbers 
     1.0000   1.0000   0.0000   0.0000   0.0000   0.0000

          k =-0.1155 0.4082 0.2000 (   390 PWs)   bands (ev):

     0.4918   9.0609  14.2073  15.0605  16.7410  22.4546

     occupation numbers 
     1.0000   0.0000   0.0000   0.0000   0.0000   0.0000

          k =-0.1732 0.3674 0.3000 (   386 PWs)   bands (ev):

     1.1058  11.1667  11.5475  14.0597  15.4184  18.8091

     occupation numbers 
     1.0000   0.0000   0.0000   0.0000   0.0000   0.0000

          k =-0.2309 0.3266 0.4000 (   395 PWs)   bands (ev):

     2.2349   9.2613  13.4082  13.5216  13.5216  16.8783

     occupation numbers 
     1.0000   0.0000   0.0000   0.0000   0.0000   0.0000

          k = 0.2887 0.6940-0.5000 (   393 PWs)   bands (ev):

     3.8381   7.5344  10.5516  13.4459  14.7434  18.2046

     occupation numbers 
     1.0000   1.0141   0.0000   0.0000   0.0000   0.0000

          k = 0.2309 0.6532-0.4000 (   385 PWs)   bands (ev):

     5.4488   6.7652   7.7634  13.8323  15.4237  21.3495

     occupation numbers 
     1.0000   1.0000   0.9074   0.0000   0.0000   0.0000

          k = 0.1732 0.6124-0.3000 (   389 PWs)   bands (ev):

     5.1306   5.3511   8.9201  14.6805  16.4253  24.9526

     occupation numbers 
     1.0000   1.0000   0.0000   0.0000   0.0000   0.0000

          k = 0.1155 0.5715-0.2000 (   389 PWs)   bands (ev):

     3.2904   5.0156  11.9364  15.9889  17.8482  23.6901

     occupation numbers 
     1.0000   1.0000   0.0000   0.0000   0.0000   0.0000

          k = 0.0577 0.5307-0.1000 (   391 PWs)   bands (ev):

     1.8131   5.2839  15.3427  17.7508  19.5369  20.8596

     occupation numbers 
     1.0000   1.0000   0.0000   0.0000   0.0000   0.0000

          k = 0.0000-0.6124 0.0000 (   392 PWs)   bands (ev):

     3.1216   3.3052  18.8319  18.8319  19.1610  19.1613

     occupation numbers 
     1.0000   1.0000   0.0000   0.0000   0.0000   0.0000

          k =-0.0577-0.6532 0.1000 (   389 PWs)   bands (ev):

     2.5972   4.3428  16.0613  16.9116  18.6335  21.5336

     occupation numbers 
     1.0000   1.0000   0.0000   0.0000   0.0000   0.0000

          k =-0.1155-0.6940 0.2000 (   389 PWs)   bands (ev):

     2.5075   5.9622  12.8256  15.2954  17.0634  24.4918

     occupation numbers 
     1.0000   1.0000   0.0000   0.0000   0.0000   0.0000

          k =-0.1732-0.7348 0.3000 (   387 PWs)   bands (ev):

     2.9314   8.0429   9.9552  14.1395  15.7601  21.6341

     occupation numbers 
     1.0000   0.0082   0.0000   0.0000   0.0000   0.0000

          k =-0.2309-0.7757 0.4000 (   393 PWs)   bands (ev):

     3.8381   7.5344  10.5516  13.4459  14.7434  18.2046

     occupation numbers 
     1.0000   1.0141   0.0000   0.0000   0.0000   0.0000

          k = 0.2887-0.4082-0.5000 (   388 PWs)   bands (ev):

     4.7781   6.0989  13.0543  13.2147  13.2147  16.5580

     occupation numbers 
     1.0000   1.0000   0.0000   0.0000   0.0000   0.0000

          k = 0.1155-0.0408 0.0000 (   381 PWs)   bands (ev):

    -3.1740  16.9717  19.4798  19.4799  22.2428  22.5895

     occupation numbers 
     1.0000   0.0000   0.0000   0.0000   0.0000   0.0000

          k = 0.0000-0.1225 0.2000 (   374 PWs)   bands (ev):

    -2.4519  14.4758  17.1120  18.5538  20.7489  21.7272

     occupation numbers 
     1.0000   0.0000   0.0000   0.0000   0.0000   0.0000

          k =-0.0577-0.1633 0.3000 (   384 PWs)   bands (ev):

    -1.2852  10.7288  16.5906  18.2080  18.8872  23.5738

     occupation numbers 
     1.0000   0.0000   0.0000   0.0000   0.0000   0.0000

          k =-0.1155-0.2041 0.4000 (   389 PWs)   bands (ev):

     0.4046   7.3234  16.5235  17.2487  18.1964  22.6426

     occupation numbers 
     1.0000   1.0000   0.0000   0.0000   0.0000   0.0000

          k = 0.4041 0.1633-0.5000 (   389 PWs)   bands (ev):

     2.5972   4.3428  16.0613  16.9116  18.6335  21.5338

     occupation numbers 
     1.0000   1.0000   0.0000   0.0000   0.0000   0.0000

          k = 0.3464 0.1225-0.4000 (   391 PWs)   bands (ev):

     1.8130   5.2839  15.3427  17.7508  19.5370  20.8601

     occupation numbers 
     1.0000   1.0000   0.0000   0.0000   0.0000   0.0000

          k = 0.2887 0.0816-0.3000 (   390 PWs)   bands (ev):

    -0.2157   8.4091  15.1035  19.0154  20.6499  20.8874

     occupation numbers 
     1.0000   0.0000   0.0000   0.0000   0.0000   0.0000

          k = 0.2309 0.0408-0.2000 (   384 PWs)   bands (ev):

    -1.7329  11.9209  15.3594  20.4468  21.0845  22.6228

     occupation numbers 
     1.0000   0.0000   0.0000   0.0000   0.0000   0.0000

          k = 0.1732-0.0000-0.1000 (   379 PWs)   bands (ev):

    -2.7223  15.4114  16.4037  20.9838  21.6574  23.0403

     occupation numbers 
     1.0000   0.0000   0.0000   0.0000   0.0000   0.0000

          k = 0.1155 0.0816 0.0000 (   383 PWs)   bands (ev):

    -3.0836  18.0828  18.0828  18.5061  20.6422  23.5185

     occupation numbers 
     1.0000   0.0000   0.0000   0.0000   0.0000   0.0000

          k = 0.0000 0.0000 0.2000 (   379 PWs)   bands (ev):

    -2.7223  15.4113  16.4037  20.9833  21.6573  23.0401

     occupation numbers 
     1.0000   0.0000   0.0000   0.0000   0.0000   0.0000

          k =-0.0577-0.0408 0.3000 (   384 PWs)   bands (ev):

    -1.7329  11.9209  15.3594  20.4468  21.0845  22.6222

     occupation numbers 
     1.0000   0.0000   0.0000   0.0000   0.0000   0.0000

          k =-0.1155-0.0816 0.4000 (   390 PWs)   bands (ev):

    -0.2157   8.4091  15.1035  19.0154  20.6499  20.8874

     occupation numbers 
     1.0000   0.0000   0.0000   0.0000   0.0000   0.0000

          k = 0.4041 0.2858-0.5000 (   391 PWs)   bands (ev):

     1.8130   5.2839  15.3427  17.7508  19.5369  20.8596

     occupation numbers 
     1.0000   1.0000   0.0000   0.0000   0.0000   0.0000

          k = 0.3464 0.2449-0.4000 (   389 PWs)   bands (ev):

     2.5972   4.3428  16.0613  16.9116  18.6336  21.5338

     occupation numbers 
     1.0000   1.0000   0.0000   0.0000   0.0000   0.0000

          k = 0.2887 0.2041-0.3000 (   389 PWs)   bands (ev):

     0.4046   7.3234  16.5235  17.2487  18.1964  22.6423

     occupation numbers 
     1.0000   1.0000   0.0000   0.0000   0.0000   0.0000

          k = 0.2309 0.1633-0.2000 (   384 PWs)   bands (ev):

    -1.2852  10.7288  16.5906  18.2080  18.8872  23.5742

     occupation numbers 
     1.0000   0.0000   0.0000   0.0000   0.0000   0.0000

          k = 0.1732 0.1225-0.1000 (   374 PWs)   bands (ev):

    -2.4519  14.4758  17.1120  18.5538  20.7489  21.7269

     occupation numbers 
     1.0000   0.0000   0.0000   0.0000   0.0000   0.0000

          k = 0.1155 0.2041 0.0000 (   374 PWs)   bands (ev):

    -2.4519  14.4758  17.1120  18.5538  20.7488  21.7269

     occupation numbers 
     1.0000   0.0000   0.0000   0.0000   0.0000   0.0000

          k =-0.0577 0.0816 0.3000 (   381 PWs)   bands (ev):

    -1.6434  13.1189  14.3231  18.6011  19.6366  21.2528

     occupation numbers 
     1.0000   0.0000   0.0000   0.0000   0.0000   0.0000

          k =-0.1155 0.0408 0.4000 (   388 PWs)   bands (ev):

    -0.3049   9.9362  13.4904  16.6613  19.9056  22.8175

     occupation numbers 
     1.0000   0.0000   0.0000   0.0000   0.0000   0.0000

          k = 0.4041 0.4082-0.5000 (   389 PWs)   bands (ev):

     1.5490   6.7188  13.5289  15.1542  20.0723  21.7300

     occupation numbers 
     1.0000   1.0000   0.0000   0.0000   0.0000   0.0000

          k = 0.3464 0.3674-0.4000 (   388 PWs)   bands (ev):

     3.7981   4.0051  13.9665  14.2305  20.4635  20.9114

     occupation numbers 
     1.0000   1.0000   0.0000   0.0000   0.0000   0.0000

          k = 0.2887 0.3266-0.3000 (   389 PWs)   bands (ev):

     1.5490   6.7188  13.5289  15.1542  20.0723  21.7299

     occupation numbers 
     1.0000   1.0000   0.0000   0.0000   0.0000   0.0000

          k = 0.2309 0.2858-0.2000 (   388 PWs)   bands (ev):

    -0.3049   9.9362  13.4904  16.6614  19.9056  22.8176

     occupation numbers 
     1.0000   0.0000   0.0000   0.0000   0.0000   0.0000

          k = 0.1732 0.2449-0.1000 (   381 PWs)   bands (ev):

    -1.6434  13.1189  14.3231  18.6011  19.6366  21.2525

     occupation numbers 
     1.0000   0.0000   0.0000   0.0000   0.0000   0.0000

          k = 0.1155 0.3266 0.0000 (   384 PWs)   bands (ev):

    -1.2852  10.7288  16.5906  18.2080  18.8872  23.5737

     occupation numbers 
     1.0000   0.0000   0.0000   0.0000   0.0000   0.0000

          k = 0.0000 0.2449 0.2000 (   381 PWs)   bands (ev):

    -1.6434  13.1189  14.3231  18.6011  19.6367  21.2525

     occupation numbers 
     1.0000   0.0000   0.0000   0.0000   0.0000   0.0000

          k =-0.0577 0.2041 0.3000 (   386 PWs)   bands (ev):

    -1.0176  12.5245  15.2851  16.0567  16.7379  19.9618

     occupation numbers 
     1.0000   0.0000   0.0000   0.0000   0.0000   0.0000

          k =-0.1155 0.1633 0.4000 (   393 PWs)   bands (ev):

     0.1376  11.4641  12.7239  13.9197  18.0772  19.9506

     occupation numbers 
     1.0000   0.0000   0.0000   0.0000   0.0000   0.0000

          k = 0.4041 0.5307-0.5000 (   396 PWs)   bands (ev):

     1.8085   8.5948  12.0052  12.3847  18.7226  22.1428

     occupation numbers 
     1.0000   0.0000   0.0000   0.0000   0.0000   0.0000

          k = 0.3464 0.4899-0.4000 (   392 PWs)   bands (ev):

     3.9671   5.6980  10.9335  12.5961  19.2395  23.7289

     occupation numbers 
     1.0000   1.0000   0.0000   0.0000   0.0000   0.0000

          k = 0.2887 0.4491-0.3000 (   392 PWs)   bands (ev):

     3.2028   6.5778  10.2539  13.4717  20.1380  23.0725

     occupation numbers 
     1.0000   1.0000   0.0000   0.0000   0.0000   0.0000

          k = 0.2309 0.4082-0.2000 (   390 PWs)   bands (ev):

     1.1974   9.1297  10.5599  14.8379  21.4114  22.2763

     occupation numbers 
     1.0000   0.0000   0.0000   0.0000   0.0000   0.0000

          k = 0.1732 0.3674-0.1000 (   388 PWs)   bands (ev):

    -0.3049   9.9362  13.4904  16.6614  19.9056  22.8188

     occupation numbers 
     1.0000   0.0000   0.0000   0.0000   0.0000   0.0000

          k = 0.1155 0.4491 0.0000 (   389 PWs)   bands (ev):

     0.4046   7.3234  16.5234  17.2487  18.1965  22.6430

     occupation numbers 
     1.0000   1.0000   0.0000   0.0000   0.0000   0.0000

          k = 0.0000 0.3674 0.2000 (   388 PWs)   bands (ev):

    -0.3049   9.9362  13.4904  16.6614  19.9056  22.8173

     occupation numbers 
     1.0000   0.0000   0.0000   0.0000   0.0000   0.0000

          k =-0.0577 0.3266 0.3000 (   393 PWs)   bands (ev):

     0.1376  11.4641  12.7239  13.9197  18.0771  19.9506

     occupation numbers 
     1.0000   0.0000   0.0000   0.0000   0.0000   0.0000

          k =-0.1155 0.2858 0.4000 (   386 PWs)   bands (ev):

     1.1058  11.1667  11.5475  14.0597  15.4184  18.8091

     occupation numbers 
     1.0000   0.0000   0.0000   0.0000   0.0000   0.0000

          k = 0.4041 0.6532-0.5000 (   393 PWs)   bands (ev):

     2.5836   9.5841  10.4664  11.8174  17.1094  19.0960

     occupation numbers 
     1.0000   0.0000   0.0000   0.0000   0.0000   0.0000

          k = 0.3464 0.6124-0.4000 (   386 PWs)   bands (ev):

     4.5237   7.8573   8.2931  11.5739  18.0960  21.6124

     occupation numbers 
     1.0000   0.4232   0.0000   0.0000   0.0000   0.0000

          k = 0.2887 0.5715-0.3000 (   389 PWs)   bands (ev):

     5.3363   6.4542   7.8692  12.2619  18.9386  24.9264

     occupation numbers 
     1.0000   1.0000   0.3636   0.0000   0.0000   0.0000

          k = 0.2309 0.5307-0.2000 (   392 PWs)   bands (ev):

     3.2028   6.5778  10.2539  13.4717  20.1380  23.0726

     occupation numbers 
     1.0000   1.0000   0.0000   0.0000   0.0000   0.0000

          k = 0.1732 0.4899-0.1000 (   389 PWs)   bands (ev):

     1.5490   6.7188  13.5289  15.1542  20.0723  21.7300

     occupation numbers 
     1.0000   1.0000   0.0000   0.0000   0.0000   0.0000

          k = 0.1155-0.6532 0.0000 (   389 PWs)   bands (ev):

     2.5972   4.3428  16.0613  16.9116  18.6335  21.5336

     occupation numbers 
     1.0000   1.0000   0.0000   0.0000   0.0000   0.0000

          k = 0.0000-0.7348 0.2000 (   389 PWs)   bands (ev):

     1.5490   6.7188  13.5289  15.1542  20.0723  21.7299

     occupation numbers 
     1.0000   1.0000   0.0000   0.0000   0.0000   0.0000

          k =-0.0577-0.7757 0.3000 (   396 PWs)   bands (ev):

     1.8085   8.5948  12.0052  12.3847  18.7226  22.1428

     occupation numbers 
     1.0000   0.0000   0.0000   0.0000   0.0000   0.0000

          k =-0.1155-0.8165 0.4000 (   393 PWs)   bands (ev):

     2.5836   9.5841  10.4664  11.8174  17.1094  19.0960

     occupation numbers 
     1.0000   0.0000   0.0000   0.0000   0.0000   0.0000

          k = 0.4041-0.4491-0.5000 (   393 PWs)   bands (ev):

     3.8381   7.5344  10.5516  13.4459  14.7434  18.2046

     occupation numbers 
     1.0000   1.0141   0.0000   0.0000   0.0000   0.0000

          k = 0.3464-0.4899-0.4000 (   392 PWs)   bands (ev):

     5.1135   6.4466  10.1332  11.4838  16.7843  18.8000

     occupation numbers 
     1.0000   1.0000   0.0000   0.0000   0.0000   0.0000

          k = 0.2887-0.5307-0.3000 (   386 PWs)   bands (ev):

     4.5237   7.8573   8.2931  11.5739  18.0960  21.6124

     occupation numbers 
     1.0000   0.4231   0.0000   0.0000   0.0000   0.0000

          k = 0.2309-0.5715-0.2000 (   392 PWs)   bands (ev):

     3.9671   5.6980  10.9335  12.5961  19.2395  23.7283

     occupation numbers 
     1.0000   1.0000   0.0000   0.0000   0.0000   0.0000

          k = 0.1732-0.6124-0.1000 (   388 PWs)   bands (ev):

     3.7981   4.0051  13.9664  14.2305  20.4635  20.9113

     occupation numbers 
     1.0000   1.0000   0.0000   0.0000   0.0000   0.0000

          k = 0.1155-0.5307 0.0000 (   391 PWs)   bands (ev):

     1.8131   5.2839  15.3427  17.7508  19.5369  20.8597

     occupation numbers 
     1.0000   1.0000   0.0000   0.0000   0.0000   0.0000

          k = 0.0000-0.6124 0.2000 (   388 PWs)   bands (ev):

     3.7981   4.0051  13.9664  14.2305  20.4635  20.9113

     occupation numbers 
     1.0000   1.0000   0.0000   0.0000   0.0000   0.0000

          k =-0.0577-0.6532 0.3000 (   392 PWs)   bands (ev):

     3.9671   5.6980  10.9335  12.5961  19.2395  23.7285

     occupation numbers 
     1.0000   1.0000   0.0000   0.0000   0.0000   0.0000

          k =-0.1155-0.6940 0.4000 (   386 PWs)   bands (ev):

     4.5237   7.8573   8.2931  11.5739  18.0960  21.6124

     occupation numbers 
     1.0000   0.4232   0.0000   0.0000   0.0000   0.0000

          k = 0.4041-0.3266-0.5000 (   392 PWs)   bands (ev):

     5.1135   6.4466  10.1332  11.4838  16.7843  18.8000

     occupation numbers 
     1.0000   1.0000   0.0000   0.0000   0.0000   0.0000

          k = 0.3464-0.3674-0.4000 (   393 PWs)   bands (ev):

     3.8381   7.5344  10.5516  13.4459  14.7434  18.2046

     occupation numbers 
     1.0000   1.0141   0.0000   0.0000   0.0000   0.0000

          k = 0.2887-0.4082-0.3000 (   393 PWs)   bands (ev):

     2.5836   9.5841  10.4664  11.8174  17.1094  19.0960

     occupation numbers 
     1.0000   0.0000   0.0000   0.0000   0.0000   0.0000

          k = 0.2309-0.4491-0.2000 (   396 PWs)   bands (ev):

     1.8085   8.5948  12.0052  12.3847  18.7226  22.1428

     occupation numbers 
     1.0000   0.0000   0.0000   0.0000   0.0000   0.0000

          k = 0.1732-0.4899-0.1000 (   389 PWs)   bands (ev):

     1.5490   6.7188  13.5289  15.1542  20.0723  21.7299

     occupation numbers 
     1.0000   1.0000   0.0000   0.0000   0.0000   0.0000

          k = 0.1155-0.4082 0.0000 (   390 PWs)   bands (ev):

    -0.2157   8.4091  15.1035  19.0154  20.6499  20.8874

     occupation numbers 
     1.0000   0.0000   0.0000   0.0000   0.0000   0.0000

          k =-0.0577-0.5307 0.3000 (   392 PWs)   bands (ev):

     3.2028   6.5778  10.2539  13.4717  20.1380  23.0724

     occupation numbers 
     1.0000   1.0000   0.0000   0.0000   0.0000   0.0000

          k =-0.1155-0.5715 0.4000 (   389 PWs)   bands (ev):

     5.3363   6.4542   7.8692  12.2619  18.9386  24.9265

     occupation numbers 
     1.0000   1.0000   0.3636   0.0000   0.0000   0.0000

          k = 0.4041-0.2041-0.5000 (   386 PWs)   bands (ev):

     4.5237   7.8573   8.2931  11.5739  18.0960  21.6124

     occupation numbers 
     1.0000   0.4232   0.0000   0.0000   0.0000   0.0000

          k = 0.3464-0.2449-0.4000 (   393 PWs)   bands (ev):

     2.5836   9.5841  10.4664  11.8174  17.1094  19.0960

     occupation numbers 
     1.0000   0.0000   0.0000   0.0000   0.0000   0.0000

          k = 0.2887-0.2858-0.3000 (   386 PWs)   bands (ev):

     1.1058  11.1667  11.5475  14.0597  15.4184  18.8091

     occupation numbers 
     1.0000   0.0000   0.0000   0.0000   0.0000   0.0000

          k = 0.2309-0.3266-0.2000 (   393 PWs)   bands (ev):

     0.1376  11.4641  12.7239  13.9197  18.0772  19.9506

     occupation numbers 
     1.0000   0.0000   0.0000   0.0000   0.0000   0.0000

          k = 0.1732-0.3674-0.1000 (   388 PWs)   bands (ev):

    -0.3049   9.9362  13.4904  16.6614  19.9057  22.8177

     occupation numbers 
     1.0000   0.0000   0.0000   0.0000   0.0000   0.0000

          k = 0.1155-0.2858 0.0000 (   384 PWs)   bands (ev):

    -1.7329  11.9209  15.3594  20.4470  21.0846  22.6222

     occupation numbers 
     1.0000   0.0000   0.0000   0.0000   0.0000   0.0000

          k =-0.0577-0.4082 0.3000 (   390 PWs)   bands (ev):

     1.1974   9.1297  10.5599  14.8379  21.4114  22.2764

     occupation numbers 
     1.0000   0.0000   0.0000   0.0000   0.0000   0.0000

          k =-0.1155-0.4491 0.4000 (   392 PWs)   bands (ev):

     3.2028   6.5778  10.2539  13.4717  20.1380  23.0724

     occupation numbers 
     1.0000   1.0000   0.0000   0.0000   0.0000   0.0000

          k = 0.4041-0.0816-0.5000 (   392 PWs)   bands (ev):

     3.9671   5.6980  10.9335  12.5961  19.2395  23.7285

     occupation numbers 
     1.0000   1.0000   0.0000   0.0000   0.0000   0.0000

          k = 0.3464-0.1225-0.4000 (   396 PWs)   bands (ev):

     1.8085   8.5948  12.0052  12.3847  18.7226  22.1428

     occupation numbers 
     1.0000   0.0000   0.0000   0.0000   0.0000   0.0000

          k = 0.2887-0.1633-0.3000 (   393 PWs)   bands (ev):

     0.1376  11.4641  12.7239  13.9197  18.0772  19.9506

     occupation numbers 
     1.0000   0.0000   0.0000   0.0000   0.0000   0.0000

          k = 0.2309-0.2041-0.2000 (   386 PWs)   bands (ev):

    -1.0176  12.5246  15.2851  16.0567  16.7380  19.9618

     occupation numbers 
     1.0000   0.0000   0.0000   0.0000   0.0000   0.0000

          k = 0.1732-0.2449-0.1000 (   381 PWs)   bands (ev):

    -1.6434  13.1189  14.3231  18.6011  19.6366  21.2528

     occupation numbers 
     1.0000   0.0000   0.0000   0.0000   0.0000   0.0000

          k = 0.1155-0.1633 0.0000 (   379 PWs)   bands (ev):

    -2.7223  15.4114  16.4037  20.9834  21.6574  23.0404

     occupation numbers 
     1.0000   0.0000   0.0000   0.0000   0.0000   0.0000

          k =-0.0577-0.2858 0.3000 (   388 PWs)   bands (ev):

    -0.3049   9.9362  13.4904  16.6613  19.9056  22.8173

     occupation numbers 
     1.0000   0.0000   0.0000   0.0000   0.0000   0.0000

          k =-0.1155-0.3266 0.4000 (   389 PWs)   bands (ev):

     1.5490   6.7188  13.5289  15.1542  20.0723  21.7299

     occupation numbers 
     1.0000   1.0000   0.0000   0.0000   0.0000   0.0000

          k = 0.4041 0.0408-0.5000 (   388 PWs)   bands (ev):

     3.7981   4.0051  13.9665  14.2305  20.4635  20.9114

     occupation numbers 
     1.0000   1.0000   0.0000   0.0000   0.0000   0.0000

          k = 0.3464-0.0000-0.4000 (   389 PWs)   bands (ev):

     1.5490   6.7188  13.5289  15.1542  20.0723  21.7299

     occupation numbers 
     1.0000   1.0000   0.0000   0.0000   0.0000   0.0000

          k = 0.2887-0.0408-0.3000 (   388 PWs)   bands (ev):

    -0.3049   9.9362  13.4904  16.6613  19.9056  22.8173

     occupation numbers 
     1.0000   0.0000   0.0000   0.0000   0.0000   0.0000

          k = 0.2309-0.0816-0.2000 (   381 PWs)   bands (ev):

    -1.6434  13.1189  14.3231  18.6011  19.6367  21.2525

     occupation numbers 
     1.0000   0.0000   0.0000   0.0000   0.0000   0.0000

          k = 0.1732-0.1225-0.1000 (   374 PWs)   bands (ev):

    -2.4519  14.4758  17.1120  18.5538  20.7489  21.7269

     occupation numbers 
     1.0000   0.0000   0.0000   0.0000   0.0000   0.0000

          k = 0.2309-0.0816 0.0000 (   386 PWs)   bands (ev):

    -2.3618  13.0146  18.7067  18.7069  22.0161  23.0639

     occupation numbers 
     1.0000   0.0000   0.0000   0.0000   0.0000   0.0000

          k = 0.0000-0.2449 0.4000 (   390 PWs)   bands (ev):

     0.4917   9.0609  14.2073  15.0605  16.7410  22.4547

     occupation numbers 
     1.0000   0.0000   0.0000   0.0000   0.0000   0.0000

          k = 0.5196 0.1225-0.5000 (   389 PWs)   bands (ev):

     2.5075   5.9622  12.8256  15.2954  17.0634  24.4916

     occupation numbers 
     1.0000   1.0000   0.0000   0.0000   0.0000   0.0000

          k = 0.4619 0.0816-0.4000 (   389 PWs)   bands (ev):

     3.2904   5.0156  11.9364  15.9889  17.8482  23.6903

     occupation numbers 
[...]

     occupation numbers 
     1.0000   1.0000   0.0000   0.0000   0.0000   0.0000

          k = 0.4619-0.0408-0.4000 (   392 PWs)   bands (ev):

     3.2028   6.5778  10.2539  13.4717  20.1380  23.0724

     occupation numbers 
     1.0000   1.0000   0.0000   0.0000   0.0000   0.0000

          k = 0.4041-0.0816-0.3000 (   390 PWs)   bands (ev):

     1.1974   9.1297  10.5599  14.8379  21.4114  22.2763

     occupation numbers 
     1.0000   0.0000   0.0000   0.0000   0.0000   0.0000

          k = 0.3464-0.1225-0.2000 (   388 PWs)   bands (ev):

    -0.3049   9.9362  13.4904  16.6613  19.9056  22.8175

     occupation numbers 
     1.0000   0.0000   0.0000   0.0000   0.0000   0.0000

          k = 0.2887-0.1633-0.1000 (   384 PWs)   bands (ev):

    -1.2852  10.7288  16.5906  18.2080  18.8873  23.5737

     occupation numbers 
     1.0000   0.0000   0.0000   0.0000   0.0000   0.0000

          k = 0.3464-0.1225 0.0000 (   389 PWs)   bands (ev):

    -1.0171   9.3386  18.3512  18.3513  21.4128  21.4128

     occupation numbers 
     1.0000   0.0000   0.0000   0.0000   0.0000   0.0000

          k = 0.5774 0.0408-0.4000 (   389 PWs)   bands (ev):

     5.1306   5.3511   8.9201  14.6805  16.4253  24.9525

     occupation numbers 
     1.0000   1.0000   0.0000   0.0000   0.0000   0.0000

          k = 0.5196-0.0000-0.3000 (   387 PWs)   bands (ev):

     2.9452   7.4583   8.8946  15.6811  17.5473  26.4187

     occupation numbers 
     1.0000   1.0017   0.0000   0.0000   0.0000   0.0000

          k = 0.4619-0.0408-0.2000 (   387 PWs)   bands (ev):

     1.1102   7.9298  11.5813  17.1365  19.0979  23.3155

     occupation numbers 
     1.0000   0.1365   0.0000   0.0000   0.0000   0.0000

          k = 0.4041-0.0816-0.1000 (   390 PWs)   bands (ev):

    -0.2157   8.4091  15.1035  19.0154  20.6502  20.8875

     occupation numbers 
     1.0000   0.0000   0.0000   0.0000   0.0000   0.0000

          k = 0.3464 0.0000 0.0000 (   384 PWs)   bands (ev):

    -1.2852  10.7288  16.5906  18.2080  18.8872  23.5738

     occupation numbers 
     1.0000   0.0000   0.0000   0.0000   0.0000   0.0000

          k = 0.5774 0.1633-0.4000 (   392 PWs)   bands (ev):

     3.9671   5.6980  10.9335  12.5961  19.2395  23.7285

     occupation numbers 
     1.0000   1.0000   0.0000   0.0000   0.0000   0.0000

          k = 0.5196 0.1225-0.3000 (   392 PWs)   bands (ev):

     3.2028   6.5778  10.2539  13.4717  20.1380  23.0724

     occupation numbers 
     1.0000   1.0000   0.0000   0.0000   0.0000   0.0000

          k = 0.4619 0.0816-0.2000 (   390 PWs)   bands (ev):

     1.1974   9.1297  10.5599  14.8379  21.4113  22.2763

     occupation numbers 
     1.0000   0.0000   0.0000   0.0000   0.0000   0.0000

          k = 0.4041 0.0408-0.1000 (   388 PWs)   bands (ev):

    -0.3049   9.9362  13.4904  16.6613  19.9056  22.8173

     occupation numbers 
     1.0000   0.0000   0.0000   0.0000   0.0000   0.0000

          k = 0.3464 0.1225 0.0000 (   386 PWs)   bands (ev):

    -1.0176  12.5246  15.2851  16.0567  16.7379  19.9619

     occupation numbers 
     1.0000   0.0000   0.0000   0.0000   0.0000   0.0000

          k = 0.5774 0.2858-0.4000 (   392 PWs)   bands (ev):

     3.2028   6.5778  10.2539  13.4717  20.1380  23.0725

     occupation numbers 
     1.0000   1.0000   0.0000   0.0000   0.0000   0.0000

          k = 0.5196 0.2449-0.3000 (   392 PWs)   bands (ev):

     3.9671   5.6980  10.9335  12.5961  19.2395  23.7283

     occupation numbers 
     1.0000   1.0000   0.0000   0.0000   0.0000   0.0000

          k = 0.4619 0.2041-0.2000 (   396 PWs)   bands (ev):

     1.8085   8.5948  12.0052  12.3847  18.7226  22.1428

     occupation numbers 
     1.0000   0.0000   0.0000   0.0000   0.0000   0.0000

          k = 0.4041 0.1633-0.1000 (   393 PWs)   bands (ev):

     0.1376  11.4641  12.7239  13.9197  18.0772  19.9506

     occupation numbers 
     1.0000   0.0000   0.0000   0.0000   0.0000   0.0000

          k = 0.3464 0.2449 0.0000 (   391 PWs)   bands (ev):

    -0.2173  13.5595  14.4415  14.4415  14.4651  17.8022

     occupation numbers 
     1.0000   0.0000   0.0000   0.0000   0.0000   0.0000

          k = 0.5774 0.4082-0.4000 (   387 PWs)   bands (ev):

     2.9452   7.4583   8.8946  15.6811  17.5473  26.4187

     occupation numbers 
     1.0000   1.0017   0.0000   0.0000   0.0000   0.0000

          k = 0.5196 0.3674-0.3000 (   389 PWs)   bands (ev):

     5.1306   5.3511   8.9201  14.6805  16.4253  24.9524

     occupation numbers 
     1.0000   1.0000   0.0000   0.0000   0.0000   0.0000

          k = 0.4619 0.3266-0.2000 (   387 PWs)   bands (ev):

     2.9314   8.0429   9.9552  14.1395  15.7601  21.6341

     occupation numbers 
     1.0000   0.0082   0.0000   0.0000   0.0000   0.0000

          k = 0.4041 0.2858-0.1000 (   386 PWs)   bands (ev):

     1.1058  11.1667  11.5475  14.0597  15.4184  18.8091

     occupation numbers 
     1.0000   0.0000   0.0000   0.0000   0.0000   0.0000

          k = 0.3464 0.3674 0.0000 (   386 PWs)   bands (ev):

     1.1058  11.1667  11.5475  14.0597  15.4184  18.8091

     occupation numbers 
     1.0000   0.0000   0.0000   0.0000   0.0000   0.0000

          k = 0.5196 0.4899-0.3000 (   389 PWs)   bands (ev):

     5.3363   6.4542   7.8692  12.2619  18.9386  24.9264

     occupation numbers 
     1.0000   1.0000   0.3636   0.0000   0.0000   0.0000

          k = 0.4619 0.4491-0.2000 (   386 PWs)   bands (ev):

     4.5237   7.8573   8.2931  11.5739  18.0960  21.6124

     occupation numbers 
     1.0000   0.4232   0.0000   0.0000   0.0000   0.0000

          k = 0.4041 0.4082-0.1000 (   393 PWs)   bands (ev):

     2.5836   9.5841  10.4664  11.8174  17.1094  19.0960

     occupation numbers 
     1.0000   0.0000   0.0000   0.0000   0.0000   0.0000

          k = 0.3464-0.7348 0.0000 (   387 PWs)   bands (ev):

     2.9314   8.0429   9.9552  14.1395  15.7601  21.6341

     occupation numbers 
     1.0000   0.0082   0.0000   0.0000   0.0000   0.0000

          k = 0.5196-0.6124-0.3000 (   392 PWs)   bands (ev):

     5.7920   5.9896   9.3473   9.8547  22.2290  22.7500

     occupation numbers 
     1.0000   1.0000   0.0000   0.0000   0.0000   0.0000

          k = 0.4619-0.6532-0.2000 (   390 PWs)   bands (ev):

     6.1192   7.4492   7.7935   9.3039  21.0523  22.4223

     occupation numbers 
     1.0000   1.0013   0.7678   0.0000   0.0000   0.0000

          k = 0.4041-0.6940-0.1000 (   386 PWs)   bands (ev):

     4.5237   7.8573   8.2931  11.5739  18.0960  21.6124

     occupation numbers 
     1.0000   0.4231   0.0000   0.0000   0.0000   0.0000

          k = 0.3464-0.6124 0.0000 (   389 PWs)   bands (ev):

     5.1306   5.3511   8.9201  14.6804  16.4253  24.9525

     occupation numbers 
     1.0000   1.0000   0.0000   0.0000   0.0000   0.0000

          k = 0.5196-0.4899-0.3000 (   389 PWs)   bands (ev):

     5.3363   6.4542   7.8692  12.2619  18.9386  24.9266

     occupation numbers 
     1.0000   1.0000   0.3636   0.0000   0.0000   0.0000

          k = 0.4619-0.5307-0.2000 (   392 PWs)   bands (ev):

     5.7920   5.9896   9.3473   9.8547  22.2290  22.7500

     occupation numbers 
     1.0000   1.0000   0.0000   0.0000   0.0000   0.0000

          k = 0.4041-0.5715-0.1000 (   389 PWs)   bands (ev):

     5.3363   6.4542   7.8692  12.2619  18.9386  24.9276

     occupation numbers 
     1.0000   1.0000   0.3636   0.0000   0.0000   0.0000

          k = 0.3464-0.4899 0.0000 (   387 PWs)   bands (ev):

     2.9452   7.4583   8.8946  15.6811  17.5473  26.4187

     occupation numbers 
     1.0000   1.0017   0.0000   0.0000   0.0000   0.0000

          k = 0.5774-0.3266-0.4000 (   389 PWs)   bands (ev):

     5.3363   6.4542   7.8692  12.2619  18.9386  24.9264

     occupation numbers 
     1.0000   1.0000   0.3636   0.0000   0.0000   0.0000

          k = 0.5196-0.3674-0.3000 (   389 PWs)   bands (ev):

     5.1306   5.3511   8.9201  14.6804  16.4253  24.9526

     occupation numbers 
     1.0000   1.0000   0.0000   0.0000   0.0000   0.0000

          k = 0.4619-0.4082-0.2000 (   392 PWs)   bands (ev):

     3.9671   5.6980  10.9335  12.5961  19.2395  23.7285

     occupation numbers 
     1.0000   1.0000   0.0000   0.0000   0.0000   0.0000

          k = 0.4041-0.4491-0.1000 (   392 PWs)   bands (ev):

     3.2028   6.5778  10.2539  13.4717  20.1380  23.0724

     occupation numbers 
     1.0000   1.0000   0.0000   0.0000   0.0000   0.0000

          k = 0.3464-0.3674 0.0000 (   387 PWs)   bands (ev):

     1.1102   7.9298  11.5813  17.1365  19.0979  23.3155

     occupation numbers 
     1.0000   0.1365   0.0000   0.0000   0.0000   0.0000

          k = 0.5774-0.2041-0.4000 (   392 PWs)   bands (ev):

     5.7920   5.9896   9.3473   9.8547  22.2290  22.7500

     occupation numbers 
     1.0000   1.0000   0.0000   0.0000   0.0000   0.0000

          k = 0.5196-0.2449-0.3000 (   392 PWs)   bands (ev):

     3.9671   5.6980  10.9335  12.5961  19.2395  23.7283

     occupation numbers 
     1.0000   1.0000   0.0000   0.0000   0.0000   0.0000

          k = 0.4619-0.2858-0.2000 (   389 PWs)   bands (ev):

     2.5075   5.9622  12.8256  15.2954  17.0634  24.4916

     occupation numbers 
     1.0000   1.0000   0.0000   0.0000   0.0000   0.0000

          k = 0.4041-0.3266-0.1000 (   389 PWs)   bands (ev):

     1.5490   6.7188  13.5289  15.1542  20.0723  21.7300

     occupation numbers 
     1.0000   1.0000   0.0000   0.0000   0.0000   0.0000

          k = 0.3464-0.2449 0.0000 (   390 PWs)   bands (ev):

    -0.2157   8.4091  15.1035  19.0154  20.6499  20.8875

     occupation numbers 
     1.0000   0.0000   0.0000   0.0000   0.0000   0.0000

          k = 0.5196-0.1225-0.3000 (   392 PWs)   bands (ev):

     3.2028   6.5778  10.2539  13.4717  20.1380  23.0724

     occupation numbers 
     1.0000   1.0000   0.0000   0.0000   0.0000   0.0000

          k = 0.4619-0.1633-0.2000 (   389 PWs)   bands (ev):

     1.5490   6.7188  13.5289  15.1542  20.0724  21.7299

     occupation numbers 
     1.0000   1.0000   0.0000   0.0000   0.0000   0.0000

          k = 0.4041-0.2041-0.1000 (   389 PWs)   bands (ev):

     0.4046   7.3234  16.5234  17.2487  18.1964  22.6431

     occupation numbers 
     1.0000   1.0000   0.0000   0.0000   0.0000   0.0000

          k = 0.4619-0.1633 0.0000 (   386 PWs)   bands (ev):

     0.8467   6.0559  18.4355  18.4355  20.0053  20.0054

     occupation numbers 
     1.0000   1.0000   0.0000   0.0000   0.0000   0.0000

          k = 0.5774-0.0816-0.2000 (   389 PWs)   bands (ev):

     3.2904   5.0156  11.9364  15.9889  17.8482  23.6901

     occupation numbers 
     1.0000   1.0000   0.0000   0.0000   0.0000   0.0000

          k = 0.5196-0.1225-0.1000 (   391 PWs)   bands (ev):

     1.8131   5.2839  15.3427  17.7508  19.5369  20.8596

     occupation numbers 
     1.0000   1.0000   0.0000   0.0000   0.0000   0.0000

          k = 0.4619-0.0408 0.0000 (   389 PWs)   bands (ev):

     0.4046   7.3234  16.5234  17.2487  18.1964  22.6424

     occupation numbers 
     1.0000   1.0000   0.0000   0.0000   0.0000   0.0000

          k = 0.5774 0.0408-0.2000 (   392 PWs)   bands (ev):

     3.2028   6.5778  10.2539  13.4717  20.1380  23.0723

     occupation numbers 
     1.0000   1.0000   0.0000   0.0000   0.0000   0.0000

          k = 0.5196-0.0000-0.1000 (   389 PWs)   bands (ev):

     1.5490   6.7188  13.5289  15.1542  20.0723  21.7299

     occupation numbers 
     1.0000   1.0000   0.0000   0.0000   0.0000   0.0000

          k = 0.4619 0.0816 0.0000 (   390 PWs)   bands (ev):

     0.4918   9.0609  14.2073  15.0605  16.7410  22.4546

     occupation numbers 
     1.0000   0.0000   0.0000   0.0000   0.0000   0.0000

          k = 0.5774 0.1633-0.2000 (   392 PWs)   bands (ev):

     3.6244   8.1278   9.5043  10.6889  21.3662  22.5188

     occupation numbers 
     1.0000   0.0004   0.0000   0.0000   0.0000   0.0000

          k = 0.5196 0.1225-0.1000 (   396 PWs)   bands (ev):

     1.8085   8.5948  12.0052  12.3847  18.7226  22.1428

     occupation numbers 
     1.0000   0.0000   0.0000   0.0000   0.0000   0.0000

          k = 0.4619 0.2041 0.0000 (   386 PWs)   bands (ev):

     1.1058  11.1667  11.5475  14.0597  15.4184  18.8091

     occupation numbers 
     1.0000   0.0000   0.0000   0.0000   0.0000   0.0000

          k = 0.5774 0.2858-0.2000 (   386 PWs)   bands (ev):

     4.5237   7.8573   8.2931  11.5739  18.0960  21.6124

     occupation numbers 
     1.0000   0.4232   0.0000   0.0000   0.0000   0.0000

          k = 0.5196 0.2449-0.1000 (   393 PWs)   bands (ev):

     2.5836   9.5841  10.4664  11.8174  17.1094  19.0960

     occupation numbers 
     1.0000   0.0000   0.0000   0.0000   0.0000   0.0000

          k = 0.4619 0.3266 0.0000 (   395 PWs)   bands (ev):

     2.2349   9.2613  13.4082  13.5216  13.5216  16.8783

     occupation numbers 
     1.0000   0.0000   0.0000   0.0000   0.0000   0.0000

          k = 0.5774 0.4082-0.2000 (   385 PWs)   bands (ev):

     5.4488   6.7652   7.7634  13.8323  15.4237  21.3495

     occupation numbers 
     1.0000   1.0000   0.9074   0.0000   0.0000   0.0000

          k = 0.5196 0.3674-0.1000 (   393 PWs)   bands (ev):

     3.8381   7.5344  10.5516  13.4459  14.7434  18.2046

     occupation numbers 
     1.0000   1.0141   0.0000   0.0000   0.0000   0.0000

          k = 0.4619-0.7757 0.0000 (   393 PWs)   bands (ev):

     3.8381   7.5344  10.5516  13.4459  14.7434  18.2046

     occupation numbers 
     1.0000   1.0141   0.0000   0.0000   0.0000   0.0000

          k = 0.5196-0.7348-0.1000 (   392 PWs)   bands (ev):

     5.1135   6.4466  10.1332  11.4838  16.7843  18.8000

     occupation numbers 
     1.0000   1.0000   0.0000   0.0000   0.0000   0.0000

          k = 0.4619-0.6532 0.0000 (   385 PWs)   bands (ev):

     5.4488   6.7652   7.7634  13.8323  15.4237  21.3495

     occupation numbers 
     1.0000   1.0000   0.9073   0.0000   0.0000   0.0000

          k = 0.5196-0.6124-0.1000 (   386 PWs)   bands (ev):

     4.5237   7.8573   8.2931  11.5739  18.0960  21.6124

     occupation numbers 
     1.0000   0.4231   0.0000   0.0000   0.0000   0.0000

          k = 0.4619-0.5307 0.0000 (   389 PWs)   bands (ev):

     5.1306   5.3511   8.9201  14.6804  16.4253  24.9534

     occupation numbers 
     1.0000   1.0000   0.0000   0.0000   0.0000   0.0000

          k = 0.5196-0.4899-0.1000 (   392 PWs)   bands (ev):

     3.9671   5.6980  10.9335  12.5961  19.2395  23.7283

     occupation numbers 
     1.0000   1.0000   0.0000   0.0000   0.0000   0.0000

          k = 0.4619-0.4082 0.0000 (   389 PWs)   bands (ev):

     3.2904   5.0156  11.9364  15.9889  17.8482  23.6901

     occupation numbers 
     1.0000   1.0000   0.0000   0.0000   0.0000   0.0000

          k = 0.5196-0.3674-0.1000 (   388 PWs)   bands (ev):

     3.7981   4.0051  13.9665  14.2305  20.4635  20.9114

     occupation numbers 
     1.0000   1.0000   0.0000   0.0000   0.0000   0.0000

          k = 0.4619-0.2858 0.0000 (   391 PWs)   bands (ev):

     1.8131   5.2839  15.3427  17.7508  19.5369  20.8596

     occupation numbers 
     1.0000   1.0000   0.0000   0.0000   0.0000   0.0000

          k = 0.5774-0.2041-0.2000 (   388 PWs)   bands (ev):

     3.7981   4.0051  13.9664  14.2305  20.4635  20.9113

     occupation numbers 
     1.0000   1.0000   0.0000   0.0000   0.0000   0.0000

          k = 0.5196-0.2449-0.1000 (   389 PWs)   bands (ev):

     2.5972   4.3428  16.0613  16.9116  18.6335  21.5337

     occupation numbers 
     1.0000   1.0000   0.0000   0.0000   0.0000   0.0000

          k =-0.5774 0.2041 0.0000 (   392 PWs)   bands (ev):

     3.1216   3.3052  18.8319  18.8319  19.1610  19.1612

     occupation numbers 
     1.0000   1.0000   0.0000   0.0000   0.0000   0.0000

          k =-0.5774 0.3266 0.0000 (   389 PWs)   bands (ev):

     2.5972   4.3428  16.0613  16.9116  18.6336  21.5337

     occupation numbers 
     1.0000   1.0000   0.0000   0.0000   0.0000   0.0000

          k =-0.5774 0.4491 0.0000 (   389 PWs)   bands (ev):

     2.5075   5.9622  12.8256  15.2954  17.0634  24.4916

     occupation numbers 
     1.0000   1.0000   0.0000   0.0000   0.0000   0.0000

          k =-0.5774 0.5715 0.0000 (   387 PWs)   bands (ev):

     2.9314   8.0429   9.9552  14.1395  15.7601  21.6341

     occupation numbers 
     1.0000   0.0082   0.0000   0.0000   0.0000   0.0000

          k =-0.5774 0.6940 0.0000 (   393 PWs)   bands (ev):

     3.8381   7.5344  10.5516  13.4459  14.7434  18.2046

     occupation numbers 
     1.0000   1.0141   0.0000   0.0000   0.0000   0.0000

          k =-0.5774-0.4082 0.0000 (   388 PWs)   bands (ev):

     4.7781   6.0989  13.0543  13.2147  13.2147  16.5579

     occupation numbers 
     1.0000   1.0000   0.0000   0.0000   0.0000   0.0000

     the Fermi energy is     7.8617 ev

!    total energy              =      -6.64230070 Ry
     Harris-Foulkes estimate   =      -6.64230101 Ry
     estimated scf accuracy    <       0.00000129 Ry

     The total energy is the sum of the following terms:

     one-electron contribution =       2.98519673 Ry
     hartree contribution      =       0.00825723 Ry
     xc contribution           =      -4.22910848 Ry
     ewald contribution        =      -5.40634338 Ry
     smearing contrib. (-TS)   =      -0.00030280 Ry

     convergence has been achieved in   3 iterations
 
     init_run     :      9.07s CPU      1.06s WALL (       1 calls)
     electrons    :    205.95s CPU     11.74s WALL (       1 calls)

     Called by init_run:
     wfcinit      :      8.71s CPU      0.88s WALL (       1 calls)
     wfcinit:atom :      0.17s CPU      0.02s WALL (     282 calls)
     wfcinit:wfcr :      8.12s CPU      0.82s WALL (     282 calls)
     potinit      :      0.02s CPU      0.01s WALL (       1 calls)

     Called by electrons:
     c_bands      :    185.73s CPU     10.12s WALL (       4 calls)
     sum_band     :     19.94s CPU      1.59s WALL (       4 calls)
     v_of_rho     :      0.03s CPU      0.00s WALL (       4 calls)
     v_h          :      0.01s CPU      0.00s WALL (       4 calls)
     v_xc         :      0.02s CPU      0.00s WALL (       4 calls)
     newd         :      0.25s CPU      0.02s WALL (       4 calls)
     mix_rho      :      0.01s CPU      0.00s WALL (       4 calls)

     Called by c_bands:
     init_us_2    :      3.69s CPU      0.25s WALL (    2538 calls)
     cegterg      :    176.48s CPU      9.60s WALL (    1128 calls)

     Called by sum_band:
     sum_band:bec :      0.16s CPU      0.01s WALL (    1128 calls)
     addusdens    :      0.08s CPU      0.01s WALL (       4 calls)

     Called by *egterg:
     h_psi        :    159.45s CPU      9.00s WALL (    3895 calls)
     s_psi        :      1.39s CPU      0.08s WALL (    3895 calls)
     g_psi        :      1.05s CPU      0.06s WALL (    2485 calls)
     cdiaghg      :      6.01s CPU      0.34s WALL (    3331 calls)
     cegterg:over :      2.67s CPU      0.15s WALL (    2485 calls)
     cegterg:upda :      1.76s CPU      0.10s WALL (    2485 calls)
     cegterg:last :      1.15s CPU      0.06s WALL (    1275 calls)

     Called by h_psi:
     h_psi:pot    :    157.60s CPU      8.90s WALL (    3895 calls)
     h_psi:calbec :      4.00s CPU      0.23s WALL (    3895 calls)
     vloc_psi     :    149.16s CPU      8.42s WALL (    3895 calls)
     add_vuspsi   :      1.58s CPU      0.09s WALL (    3895 calls)

     General routines
     calbec       :      3.04s CPU      0.19s WALL (    5023 calls)
     fft          :      0.03s CPU      0.01s WALL (      26 calls)
     fftw         :    140.45s CPU      8.30s WALL (   45250 calls)
 
     Parallel routines
 
     PWSCF        :  3m35.12s CPU     0m12.84s WALL

 
   This run was terminated on:  12:25:32  24Jan2019            

=------------------------------------------------------------------------------=
   JOB DONE.
=------------------------------------------------------------------------------=
