
     Program PWSCF v.6.2 (svn rev. 14038) starts on 24Jan2019 at 17: 0:12 

     This program is part of the open-source Quantum ESPRESSO suite
     for quantum simulation of materials; please cite
         "P. Giannozzi et al., J. Phys.:Condens. Matter 21 395502 (2009);
         "P. Giannozzi et al., J. Phys.:Condens. Matter 29 465901 (2017);
          URL http://www.quantum-espresso.org", 
     in publications or presentations arising from this work. More details at
     http://www.quantum-espresso.org/quote

     Parallel version (MPI), running on     1 processors

     MPI processes distributed on     1 nodes
     Reading input from ./AlfccSEPNEG0DOT2466469211060653.in
Warning: card &IONS ignored
Warning: card / ignored
Warning: card &CELL ignored
Warning: card / ignored

     Current dimensions of program PWSCF are:
     Max number of different atomic species (ntypx) = 10
     Max number of k-points (npk) =  40000
     Max angular momentum in pseudopotentials (lmaxx) =  3
     Message from routine iosys:
     minimal I/O required, wf_collect reset to FALSE

     Subspace diagonalization in iterative solution of the eigenvalue problem:
     a serial algorithm will be used

     Found symmetry operation: I + ( -0.5000 -0.5000  0.0000)
     This is a supercell, fractional translations are disabled
 
     G-vector sticks info
     --------------------
     sticks:   dense  smooth     PW     G-vecs:    dense   smooth      PW
     Sum         465     465    149                 5643     5643    1095
 


     bravais-lattice index     =            0
     lattice parameter (alat)  =       7.6325  a.u.
     unit-cell volume          =     334.9609 (a.u.)^3
     number of atoms/cell      =            4
     number of atomic types    =            1
     number of electrons       =        12.00
     number of Kohn-Sham states=           10
     kinetic-energy cutoff     =      25.0000  Ry
     charge density cutoff     =     100.0000  Ry
     convergence threshold     =      1.0E-07
     mixing beta               =       0.7000
     number of iterations used =            8  plain     mixing
     Exchange-correlation      = SLA  PW   PBE  PBE ( 1  4  3  4 0 0)

     celldm(1)=   7.632472  celldm(2)=   0.000000  celldm(3)=   0.000000
     celldm(4)=   0.000000  celldm(5)=   0.000000  celldm(6)=   0.000000

     crystal axes: (cart. coord. in units of alat)
               a(1) = (   1.000000   0.000000   0.000000 )  
               a(2) = (   0.000000   1.000000   0.000000 )  
               a(3) = (   0.000000   0.000000   0.753353 )  

     reciprocal axes: (cart. coord. in units 2 pi/alat)
               b(1) = (  1.000000  0.000000  0.000000 )  
               b(2) = (  0.000000  1.000000  0.000000 )  
               b(3) = (  0.000000  0.000000  1.327399 )  


     PseudoPot. # 1 for Al read from file:
     ./al_pbe_v1.uspp.F.UPF
     MD5 check sum: 0a6289f5291fc8f409219462bc851e1f
     Pseudo is Ultrasoft + core correction, Zval =  3.0
     Generated by new atomic code, or converted to UPF format
     Using radial grid of  893 points,  3 beta functions with: 
                l(1) =   0
                l(2) =   1
                l(3) =   2
     Q(r) pseudized with  8 coefficients,  rinner =    0.900   0.900   0.900
                                                       0.900   0.900

     atomic species   valence    mass     pseudopotential
        Al             3.00    26.98150     Al( 1.00)

     16 Sym. Ops., with inversion, found


                                    s                        frac. trans.

      isym =  1     identity                                     

 cryst.   s( 1) = (     1          0          0      )
                  (     0          1          0      )
                  (     0          0          1      )

 cart.    s( 1) = (  1.0000000  0.0000000  0.0000000 )
                  (  0.0000000  1.0000000  0.0000000 )
                  (  0.0000000  0.0000000  1.0000000 )


      isym =  2     180 deg rotation - cart. axis [0,0,1]        

 cryst.   s( 2) = (    -1          0          0      )
                  (     0         -1          0      )
                  (     0          0          1      )

 cart.    s( 2) = ( -1.0000000  0.0000000  0.0000000 )
                  (  0.0000000 -1.0000000  0.0000000 )
                  (  0.0000000  0.0000000  1.0000000 )


      isym =  3     180 deg rotation - cart. axis [0,1,0]        

 cryst.   s( 3) = (    -1          0          0      )
                  (     0          1          0      )
                  (     0          0         -1      )

 cart.    s( 3) = ( -1.0000000  0.0000000  0.0000000 )
                  (  0.0000000  1.0000000  0.0000000 )
                  (  0.0000000  0.0000000 -1.0000000 )


      isym =  4     180 deg rotation - cart. axis [1,0,0]        

 cryst.   s( 4) = (     1          0          0      )
                  (     0         -1          0      )
                  (     0          0         -1      )

 cart.    s( 4) = (  1.0000000  0.0000000  0.0000000 )
                  (  0.0000000 -1.0000000  0.0000000 )
                  (  0.0000000  0.0000000 -1.0000000 )


      isym =  5     180 deg rotation - cart. axis [1,1,0]        

 cryst.   s( 5) = (     0          1          0      )
                  (     1          0          0      )
                  (     0          0         -1      )

 cart.    s( 5) = (  0.0000000  1.0000000  0.0000000 )
                  (  1.0000000  0.0000000  0.0000000 )
                  (  0.0000000  0.0000000 -1.0000000 )


      isym =  6     180 deg rotation - cart. axis [1,-1,0]       

 cryst.   s( 6) = (     0         -1          0      )
                  (    -1          0          0      )
                  (     0          0         -1      )

 cart.    s( 6) = (  0.0000000 -1.0000000  0.0000000 )
                  ( -1.0000000  0.0000000  0.0000000 )
                  (  0.0000000  0.0000000 -1.0000000 )


      isym =  7      90 deg rotation - cart. axis [0,0,-1]       

 cryst.   s( 7) = (     0         -1          0      )
                  (     1          0          0      )
                  (     0          0          1      )

 cart.    s( 7) = (  0.0000000  1.0000000  0.0000000 )
                  ( -1.0000000  0.0000000  0.0000000 )
                  (  0.0000000  0.0000000  1.0000000 )


      isym =  8      90 deg rotation - cart. axis [0,0,1]        

 cryst.   s( 8) = (     0          1          0      )
                  (    -1          0          0      )
                  (     0          0          1      )

 cart.    s( 8) = (  0.0000000 -1.0000000  0.0000000 )
                  (  1.0000000  0.0000000  0.0000000 )
                  (  0.0000000  0.0000000  1.0000000 )


      isym =  9     inversion                                    

 cryst.   s( 9) = (    -1          0          0      )
                  (     0         -1          0      )
                  (     0          0         -1      )

 cart.    s( 9) = ( -1.0000000  0.0000000  0.0000000 )
                  (  0.0000000 -1.0000000  0.0000000 )
                  (  0.0000000  0.0000000 -1.0000000 )


      isym = 10     inv. 180 deg rotation - cart. axis [0,0,1]   

 cryst.   s(10) = (     1          0          0      )
                  (     0          1          0      )
                  (     0          0         -1      )

 cart.    s(10) = (  1.0000000  0.0000000  0.0000000 )
                  (  0.0000000  1.0000000  0.0000000 )
                  (  0.0000000  0.0000000 -1.0000000 )


      isym = 11     inv. 180 deg rotation - cart. axis [0,1,0]   

 cryst.   s(11) = (     1          0          0      )
                  (     0         -1          0      )
                  (     0          0          1      )

 cart.    s(11) = (  1.0000000  0.0000000  0.0000000 )
                  (  0.0000000 -1.0000000  0.0000000 )
                  (  0.0000000  0.0000000  1.0000000 )


      isym = 12     inv. 180 deg rotation - cart. axis [1,0,0]   

 cryst.   s(12) = (    -1          0          0      )
                  (     0          1          0      )
                  (     0          0          1      )

 cart.    s(12) = ( -1.0000000  0.0000000  0.0000000 )
                  (  0.0000000  1.0000000  0.0000000 )
                  (  0.0000000  0.0000000  1.0000000 )


      isym = 13     inv. 180 deg rotation - cart. axis [1,1,0]   

 cryst.   s(13) = (     0         -1          0      )
                  (    -1          0          0      )
                  (     0          0          1      )

 cart.    s(13) = (  0.0000000 -1.0000000  0.0000000 )
                  ( -1.0000000  0.0000000  0.0000000 )
                  (  0.0000000  0.0000000  1.0000000 )


      isym = 14     inv. 180 deg rotation - cart. axis [1,-1,0]  

 cryst.   s(14) = (     0          1          0      )
                  (     1          0          0      )
                  (     0          0          1      )

 cart.    s(14) = (  0.0000000  1.0000000  0.0000000 )
                  (  1.0000000  0.0000000  0.0000000 )
                  (  0.0000000  0.0000000  1.0000000 )


      isym = 15     inv.  90 deg rotation - cart. axis [0,0,-1]  

 cryst.   s(15) = (     0          1          0      )
                  (    -1          0          0      )
                  (     0          0         -1      )

 cart.    s(15) = (  0.0000000 -1.0000000  0.0000000 )
                  (  1.0000000  0.0000000  0.0000000 )
                  (  0.0000000  0.0000000 -1.0000000 )


      isym = 16     inv.  90 deg rotation - cart. axis [0,0,1]   

 cryst.   s(16) = (     0         -1          0      )
                  (     1          0          0      )
                  (     0          0         -1      )

 cart.    s(16) = (  0.0000000  1.0000000  0.0000000 )
                  ( -1.0000000  0.0000000  0.0000000 )
                  (  0.0000000  0.0000000 -1.0000000 )


   Cartesian axes

     site n.     atom                  positions (alat units)
         1           Al  tau(   1) = (   0.0000000   0.0000000   0.0000000  )
         2           Al  tau(   2) = (   0.5000000   0.5000000   0.0000000  )
         3           Al  tau(   3) = (   0.5000000   0.0000000   0.3766765  )
         4           Al  tau(   4) = (   0.0000000   0.5000000   0.3766765  )

   Crystallographic axes

     site n.     atom                  positions (cryst. coord.)
         1           Al  tau(   1) = (  0.0000000  0.0000000  0.0000000  )
         2           Al  tau(   2) = (  0.5000000  0.5000000  0.0000000  )
         3           Al  tau(   3) = (  0.5000000  0.0000000  0.5000000  )
         4           Al  tau(   4) = (  0.0000000  0.5000000  0.5000000  )

     number of k points=   660  Marzari-Vanderbilt smearing, width (Ry)=  0.0100
                       cart. coord. in units 2pi/alat
        k(    1) = (   0.0000000   0.0000000   0.0000000), wk =   0.0002684
        k(    2) = (   0.0000000   0.0000000   0.0577130), wk =   0.0005368
        k(    3) = (   0.0000000   0.0000000   0.1154260), wk =   0.0005368
        k(    4) = (   0.0000000   0.0000000   0.1731390), wk =   0.0005368
        k(    5) = (   0.0000000   0.0000000   0.2308520), wk =   0.0005368
        k(    6) = (   0.0000000   0.0000000   0.2885650), wk =   0.0005368
        k(    7) = (   0.0000000   0.0000000   0.3462780), wk =   0.0005368
        k(    8) = (   0.0000000   0.0000000   0.4039910), wk =   0.0005368
        k(    9) = (   0.0000000   0.0000000   0.4617040), wk =   0.0005368
        k(   10) = (   0.0000000   0.0000000   0.5194170), wk =   0.0005368
        k(   11) = (   0.0000000   0.0000000   0.5771300), wk =   0.0005368
        k(   12) = (   0.0000000   0.0000000   0.6348430), wk =   0.0005368
        k(   13) = (   0.0000000   0.0555556   0.0000000), wk =   0.0010735
        k(   14) = (   0.0000000   0.0555556   0.0577130), wk =   0.0021471
        k(   15) = (   0.0000000   0.0555556   0.1154260), wk =   0.0021471
        k(   16) = (   0.0000000   0.0555556   0.1731390), wk =   0.0021471
        k(   17) = (   0.0000000   0.0555556   0.2308520), wk =   0.0021471
        k(   18) = (   0.0000000   0.0555556   0.2885650), wk =   0.0021471
        k(   19) = (   0.0000000   0.0555556   0.3462780), wk =   0.0021471
        k(   20) = (   0.0000000   0.0555556   0.4039910), wk =   0.0021471
        k(   21) = (   0.0000000   0.0555556   0.4617040), wk =   0.0021471
        k(   22) = (   0.0000000   0.0555556   0.5194170), wk =   0.0021471
        k(   23) = (   0.0000000   0.0555556   0.5771300), wk =   0.0021471
        k(   24) = (   0.0000000   0.0555556   0.6348430), wk =   0.0021471
        k(   25) = (   0.0000000   0.1111111   0.0000000), wk =   0.0010735
        k(   26) = (   0.0000000   0.1111111   0.0577130), wk =   0.0021471
        k(   27) = (   0.0000000   0.1111111   0.1154260), wk =   0.0021471
        k(   28) = (   0.0000000   0.1111111   0.1731390), wk =   0.0021471
        k(   29) = (   0.0000000   0.1111111   0.2308520), wk =   0.0021471
        k(   30) = (   0.0000000   0.1111111   0.2885650), wk =   0.0021471
        k(   31) = (   0.0000000   0.1111111   0.3462780), wk =   0.0021471
        k(   32) = (   0.0000000   0.1111111   0.4039910), wk =   0.0021471
        k(   33) = (   0.0000000   0.1111111   0.4617040), wk =   0.0021471
        k(   34) = (   0.0000000   0.1111111   0.5194170), wk =   0.0021471
        k(   35) = (   0.0000000   0.1111111   0.5771300), wk =   0.0021471
        k(   36) = (   0.0000000   0.1111111   0.6348430), wk =   0.0021471
        k(   37) = (   0.0000000   0.1666667   0.0000000), wk =   0.0010735
        k(   38) = (   0.0000000   0.1666667   0.0577130), wk =   0.0021471
        k(   39) = (   0.0000000   0.1666667   0.1154260), wk =   0.0021471
        k(   40) = (   0.0000000   0.1666667   0.1731390), wk =   0.0021471
        k(   41) = (   0.0000000   0.1666667   0.2308520), wk =   0.0021471
        k(   42) = (   0.0000000   0.1666667   0.2885650), wk =   0.0021471
        k(   43) = (   0.0000000   0.1666667   0.3462780), wk =   0.0021471
        k(   44) = (   0.0000000   0.1666667   0.4039910), wk =   0.0021471
        k(   45) = (   0.0000000   0.1666667   0.4617040), wk =   0.0021471
        k(   46) = (   0.0000000   0.1666667   0.5194170), wk =   0.0021471
        k(   47) = (   0.0000000   0.1666667   0.5771300), wk =   0.0021471
        k(   48) = (   0.0000000   0.1666667   0.6348430), wk =   0.0021471
        k(   49) = (   0.0000000   0.2222222   0.0000000), wk =   0.0010735
        k(   50) = (   0.0000000   0.2222222   0.0577130), wk =   0.0021471
        k(   51) = (   0.0000000   0.2222222   0.1154260), wk =   0.0021471
        k(   52) = (   0.0000000   0.2222222   0.1731390), wk =   0.0021471
        k(   53) = (   0.0000000   0.2222222   0.2308520), wk =   0.0021471
        k(   54) = (   0.0000000   0.2222222   0.2885650), wk =   0.0021471
        k(   55) = (   0.0000000   0.2222222   0.3462780), wk =   0.0021471
        k(   56) = (   0.0000000   0.2222222   0.4039910), wk =   0.0021471
        k(   57) = (   0.0000000   0.2222222   0.4617040), wk =   0.0021471
        k(   58) = (   0.0000000   0.2222222   0.5194170), wk =   0.0021471
        k(   59) = (   0.0000000   0.2222222   0.5771300), wk =   0.0021471
        k(   60) = (   0.0000000   0.2222222   0.6348430), wk =   0.0021471
        k(   61) = (   0.0000000   0.2777778   0.0000000), wk =   0.0010735
        k(   62) = (   0.0000000   0.2777778   0.0577130), wk =   0.0021471
        k(   63) = (   0.0000000   0.2777778   0.1154260), wk =   0.0021471
        k(   64) = (   0.0000000   0.2777778   0.1731390), wk =   0.0021471
        k(   65) = (   0.0000000   0.2777778   0.2308520), wk =   0.0021471
        k(   66) = (   0.0000000   0.2777778   0.2885650), wk =   0.0021471
        k(   67) = (   0.0000000   0.2777778   0.3462780), wk =   0.0021471
        k(   68) = (   0.0000000   0.2777778   0.4039910), wk =   0.0021471
        k(   69) = (   0.0000000   0.2777778   0.4617040), wk =   0.0021471
        k(   70) = (   0.0000000   0.2777778   0.5194170), wk =   0.0021471
        k(   71) = (   0.0000000   0.2777778   0.5771300), wk =   0.0021471
        k(   72) = (   0.0000000   0.2777778   0.6348430), wk =   0.0021471
        k(   73) = (   0.0000000   0.3333333   0.0000000), wk =   0.0010735
        k(   74) = (   0.0000000   0.3333333   0.0577130), wk =   0.0021471
        k(   75) = (   0.0000000   0.3333333   0.1154260), wk =   0.0021471
        k(   76) = (   0.0000000   0.3333333   0.1731390), wk =   0.0021471
        k(   77) = (   0.0000000   0.3333333   0.2308520), wk =   0.0021471
        k(   78) = (   0.0000000   0.3333333   0.2885650), wk =   0.0021471
        k(   79) = (   0.0000000   0.3333333   0.3462780), wk =   0.0021471
        k(   80) = (   0.0000000   0.3333333   0.4039910), wk =   0.0021471
        k(   81) = (   0.0000000   0.3333333   0.4617040), wk =   0.0021471
        k(   82) = (   0.0000000   0.3333333   0.5194170), wk =   0.0021471
        k(   83) = (   0.0000000   0.3333333   0.5771300), wk =   0.0021471
        k(   84) = (   0.0000000   0.3333333   0.6348430), wk =   0.0021471
        k(   85) = (   0.0000000   0.3888889   0.0000000), wk =   0.0010735
        k(   86) = (   0.0000000   0.3888889   0.0577130), wk =   0.0021471
        k(   87) = (   0.0000000   0.3888889   0.1154260), wk =   0.0021471
        k(   88) = (   0.0000000   0.3888889   0.1731390), wk =   0.0021471
        k(   89) = (   0.0000000   0.3888889   0.2308520), wk =   0.0021471
        k(   90) = (   0.0000000   0.3888889   0.2885650), wk =   0.0021471
        k(   91) = (   0.0000000   0.3888889   0.3462780), wk =   0.0021471
        k(   92) = (   0.0000000   0.3888889   0.4039910), wk =   0.0021471
        k(   93) = (   0.0000000   0.3888889   0.4617040), wk =   0.0021471
        k(   94) = (   0.0000000   0.3888889   0.5194170), wk =   0.0021471
        k(   95) = (   0.0000000   0.3888889   0.5771300), wk =   0.0021471
        k(   96) = (   0.0000000   0.3888889   0.6348430), wk =   0.0021471
        k(   97) = (   0.0000000   0.4444444   0.0000000), wk =   0.0010735
        k(   98) = (   0.0000000   0.4444444   0.0577130), wk =   0.0021471
        k(   99) = (   0.0000000   0.4444444   0.1154260), wk =   0.0021471
        k(  100) = (   0.0000000   0.4444444   0.1731390), wk =   0.0021471
        k(  101) = (   0.0000000   0.4444444   0.2308520), wk =   0.0021471
        k(  102) = (   0.0000000   0.4444444   0.2885650), wk =   0.0021471
        k(  103) = (   0.0000000   0.4444444   0.3462780), wk =   0.0021471
        k(  104) = (   0.0000000   0.4444444   0.4039910), wk =   0.0021471
        k(  105) = (   0.0000000   0.4444444   0.4617040), wk =   0.0021471
        k(  106) = (   0.0000000   0.4444444   0.5194170), wk =   0.0021471
        k(  107) = (   0.0000000   0.4444444   0.5771300), wk =   0.0021471
        k(  108) = (   0.0000000   0.4444444   0.6348430), wk =   0.0021471
        k(  109) = (   0.0000000  -0.5000000   0.0000000), wk =   0.0005368
        k(  110) = (   0.0000000  -0.5000000   0.0577130), wk =   0.0010735
        k(  111) = (   0.0000000  -0.5000000   0.1154260), wk =   0.0010735
        k(  112) = (   0.0000000  -0.5000000   0.1731390), wk =   0.0010735
        k(  113) = (   0.0000000  -0.5000000   0.2308520), wk =   0.0010735
        k(  114) = (   0.0000000  -0.5000000   0.2885650), wk =   0.0010735
        k(  115) = (   0.0000000  -0.5000000   0.3462780), wk =   0.0010735
        k(  116) = (   0.0000000  -0.5000000   0.4039910), wk =   0.0010735
        k(  117) = (   0.0000000  -0.5000000   0.4617040), wk =   0.0010735
        k(  118) = (   0.0000000  -0.5000000   0.5194170), wk =   0.0010735
        k(  119) = (   0.0000000  -0.5000000   0.5771300), wk =   0.0010735
        k(  120) = (   0.0000000  -0.5000000   0.6348430), wk =   0.0010735
        k(  121) = (   0.0555556   0.0555556   0.0000000), wk =   0.0010735
        k(  122) = (   0.0555556   0.0555556   0.0577130), wk =   0.0021471
        k(  123) = (   0.0555556   0.0555556   0.1154260), wk =   0.0021471
        k(  124) = (   0.0555556   0.0555556   0.1731390), wk =   0.0021471
        k(  125) = (   0.0555556   0.0555556   0.2308520), wk =   0.0021471
        k(  126) = (   0.0555556   0.0555556   0.2885650), wk =   0.0021471
        k(  127) = (   0.0555556   0.0555556   0.3462780), wk =   0.0021471
        k(  128) = (   0.0555556   0.0555556   0.4039910), wk =   0.0021471
        k(  129) = (   0.0555556   0.0555556   0.4617040), wk =   0.0021471
        k(  130) = (   0.0555556   0.0555556   0.5194170), wk =   0.0021471
        k(  131) = (   0.0555556   0.0555556   0.5771300), wk =   0.0021471
        k(  132) = (   0.0555556   0.0555556   0.6348430), wk =   0.0021471
        k(  133) = (   0.0555556   0.1111111   0.0000000), wk =   0.0021471
        k(  134) = (   0.0555556   0.1111111   0.0577130), wk =   0.0042941
        k(  135) = (   0.0555556   0.1111111   0.1154260), wk =   0.0042941
        k(  136) = (   0.0555556   0.1111111   0.1731390), wk =   0.0042941
        k(  137) = (   0.0555556   0.1111111   0.2308520), wk =   0.0042941
        k(  138) = (   0.0555556   0.1111111   0.2885650), wk =   0.0042941
        k(  139) = (   0.0555556   0.1111111   0.3462780), wk =   0.0042941
        k(  140) = (   0.0555556   0.1111111   0.4039910), wk =   0.0042941
        k(  141) = (   0.0555556   0.1111111   0.4617040), wk =   0.0042941
        k(  142) = (   0.0555556   0.1111111   0.5194170), wk =   0.0042941
        k(  143) = (   0.0555556   0.1111111   0.5771300), wk =   0.0042941
        k(  144) = (   0.0555556   0.1111111   0.6348430), wk =   0.0042941
        k(  145) = (   0.0555556   0.1666667   0.0000000), wk =   0.0021471
        k(  146) = (   0.0555556   0.1666667   0.0577130), wk =   0.0042941
        k(  147) = (   0.0555556   0.1666667   0.1154260), wk =   0.0042941
        k(  148) = (   0.0555556   0.1666667   0.1731390), wk =   0.0042941
        k(  149) = (   0.0555556   0.1666667   0.2308520), wk =   0.0042941
        k(  150) = (   0.0555556   0.1666667   0.2885650), wk =   0.0042941
        k(  151) = (   0.0555556   0.1666667   0.3462780), wk =   0.0042941
        k(  152) = (   0.0555556   0.1666667   0.4039910), wk =   0.0042941
        k(  153) = (   0.0555556   0.1666667   0.4617040), wk =   0.0042941
        k(  154) = (   0.0555556   0.1666667   0.5194170), wk =   0.0042941
        k(  155) = (   0.0555556   0.1666667   0.5771300), wk =   0.0042941
        k(  156) = (   0.0555556   0.1666667   0.6348430), wk =   0.0042941
        k(  157) = (   0.0555556   0.2222222   0.0000000), wk =   0.0021471
        k(  158) = (   0.0555556   0.2222222   0.0577130), wk =   0.0042941
        k(  159) = (   0.0555556   0.2222222   0.1154260), wk =   0.0042941
        k(  160) = (   0.0555556   0.2222222   0.1731390), wk =   0.0042941
        k(  161) = (   0.0555556   0.2222222   0.2308520), wk =   0.0042941
        k(  162) = (   0.0555556   0.2222222   0.2885650), wk =   0.0042941
        k(  163) = (   0.0555556   0.2222222   0.3462780), wk =   0.0042941
        k(  164) = (   0.0555556   0.2222222   0.4039910), wk =   0.0042941
        k(  165) = (   0.0555556   0.2222222   0.4617040), wk =   0.0042941
        k(  166) = (   0.0555556   0.2222222   0.5194170), wk =   0.0042941
        k(  167) = (   0.0555556   0.2222222   0.5771300), wk =   0.0042941
        k(  168) = (   0.0555556   0.2222222   0.6348430), wk =   0.0042941
        k(  169) = (   0.0555556   0.2777778   0.0000000), wk =   0.0021471
        k(  170) = (   0.0555556   0.2777778   0.0577130), wk =   0.0042941
        k(  171) = (   0.0555556   0.2777778   0.1154260), wk =   0.0042941
        k(  172) = (   0.0555556   0.2777778   0.1731390), wk =   0.0042941
        k(  173) = (   0.0555556   0.2777778   0.2308520), wk =   0.0042941
        k(  174) = (   0.0555556   0.2777778   0.2885650), wk =   0.0042941
        k(  175) = (   0.0555556   0.2777778   0.3462780), wk =   0.0042941
        k(  176) = (   0.0555556   0.2777778   0.4039910), wk =   0.0042941
        k(  177) = (   0.0555556   0.2777778   0.4617040), wk =   0.0042941
        k(  178) = (   0.0555556   0.2777778   0.5194170), wk =   0.0042941
        k(  179) = (   0.0555556   0.2777778   0.5771300), wk =   0.0042941
        k(  180) = (   0.0555556   0.2777778   0.6348430), wk =   0.0042941
        k(  181) = (   0.0555556   0.3333333   0.0000000), wk =   0.0021471
        k(  182) = (   0.0555556   0.3333333   0.0577130), wk =   0.0042941
        k(  183) = (   0.0555556   0.3333333   0.1154260), wk =   0.0042941
        k(  184) = (   0.0555556   0.3333333   0.1731390), wk =   0.0042941
        k(  185) = (   0.0555556   0.3333333   0.2308520), wk =   0.0042941
        k(  186) = (   0.0555556   0.3333333   0.2885650), wk =   0.0042941
        k(  187) = (   0.0555556   0.3333333   0.3462780), wk =   0.0042941
        k(  188) = (   0.0555556   0.3333333   0.4039910), wk =   0.0042941
        k(  189) = (   0.0555556   0.3333333   0.4617040), wk =   0.0042941
        k(  190) = (   0.0555556   0.3333333   0.5194170), wk =   0.0042941
        k(  191) = (   0.0555556   0.3333333   0.5771300), wk =   0.0042941
        k(  192) = (   0.0555556   0.3333333   0.6348430), wk =   0.0042941
        k(  193) = (   0.0555556   0.3888889   0.0000000), wk =   0.0021471
        k(  194) = (   0.0555556   0.3888889   0.0577130), wk =   0.0042941
        k(  195) = (   0.0555556   0.3888889   0.1154260), wk =   0.0042941
        k(  196) = (   0.0555556   0.3888889   0.1731390), wk =   0.0042941
        k(  197) = (   0.0555556   0.3888889   0.2308520), wk =   0.0042941
        k(  198) = (   0.0555556   0.3888889   0.2885650), wk =   0.0042941
        k(  199) = (   0.0555556   0.3888889   0.3462780), wk =   0.0042941
        k(  200) = (   0.0555556   0.3888889   0.4039910), wk =   0.0042941
        k(  201) = (   0.0555556   0.3888889   0.4617040), wk =   0.0042941
        k(  202) = (   0.0555556   0.3888889   0.5194170), wk =   0.0042941
        k(  203) = (   0.0555556   0.3888889   0.5771300), wk =   0.0042941
        k(  204) = (   0.0555556   0.3888889   0.6348430), wk =   0.0042941
        k(  205) = (   0.0555556   0.4444444   0.0000000), wk =   0.0021471
        k(  206) = (   0.0555556   0.4444444   0.0577130), wk =   0.0042941
        k(  207) = (   0.0555556   0.4444444   0.1154260), wk =   0.0042941
        k(  208) = (   0.0555556   0.4444444   0.1731390), wk =   0.0042941
        k(  209) = (   0.0555556   0.4444444   0.2308520), wk =   0.0042941
        k(  210) = (   0.0555556   0.4444444   0.2885650), wk =   0.0042941
        k(  211) = (   0.0555556   0.4444444   0.3462780), wk =   0.0042941
        k(  212) = (   0.0555556   0.4444444   0.4039910), wk =   0.0042941
        k(  213) = (   0.0555556   0.4444444   0.4617040), wk =   0.0042941
        k(  214) = (   0.0555556   0.4444444   0.5194170), wk =   0.0042941
        k(  215) = (   0.0555556   0.4444444   0.5771300), wk =   0.0042941
        k(  216) = (   0.0555556   0.4444444   0.6348430), wk =   0.0042941
        k(  217) = (   0.0555556  -0.5000000   0.0000000), wk =   0.0010735
        k(  218) = (   0.0555556  -0.5000000   0.0577130), wk =   0.0021471
        k(  219) = (   0.0555556  -0.5000000   0.1154260), wk =   0.0021471
        k(  220) = (   0.0555556  -0.5000000   0.1731390), wk =   0.0021471
        k(  221) = (   0.0555556  -0.5000000   0.2308520), wk =   0.0021471
        k(  222) = (   0.0555556  -0.5000000   0.2885650), wk =   0.0021471
        k(  223) = (   0.0555556  -0.5000000   0.3462780), wk =   0.0021471
        k(  224) = (   0.0555556  -0.5000000   0.4039910), wk =   0.0021471
        k(  225) = (   0.0555556  -0.5000000   0.4617040), wk =   0.0021471
        k(  226) = (   0.0555556  -0.5000000   0.5194170), wk =   0.0021471
        k(  227) = (   0.0555556  -0.5000000   0.5771300), wk =   0.0021471
        k(  228) = (   0.0555556  -0.5000000   0.6348430), wk =   0.0021471
        k(  229) = (   0.1111111   0.1111111   0.0000000), wk =   0.0010735
        k(  230) = (   0.1111111   0.1111111   0.0577130), wk =   0.0021471
        k(  231) = (   0.1111111   0.1111111   0.1154260), wk =   0.0021471
        k(  232) = (   0.1111111   0.1111111   0.1731390), wk =   0.0021471
        k(  233) = (   0.1111111   0.1111111   0.2308520), wk =   0.0021471
        k(  234) = (   0.1111111   0.1111111   0.2885650), wk =   0.0021471
        k(  235) = (   0.1111111   0.1111111   0.3462780), wk =   0.0021471
        k(  236) = (   0.1111111   0.1111111   0.4039910), wk =   0.0021471
        k(  237) = (   0.1111111   0.1111111   0.4617040), wk =   0.0021471
        k(  238) = (   0.1111111   0.1111111   0.5194170), wk =   0.0021471
        k(  239) = (   0.1111111   0.1111111   0.5771300), wk =   0.0021471
        k(  240) = (   0.1111111   0.1111111   0.6348430), wk =   0.0021471
        k(  241) = (   0.1111111   0.1666667   0.0000000), wk =   0.0021471
        k(  242) = (   0.1111111   0.1666667   0.0577130), wk =   0.0042941
        k(  243) = (   0.1111111   0.1666667   0.1154260), wk =   0.0042941
        k(  244) = (   0.1111111   0.1666667   0.1731390), wk =   0.0042941
        k(  245) = (   0.1111111   0.1666667   0.2308520), wk =   0.0042941
        k(  246) = (   0.1111111   0.1666667   0.2885650), wk =   0.0042941
        k(  247) = (   0.1111111   0.1666667   0.3462780), wk =   0.0042941
        k(  248) = (   0.1111111   0.1666667   0.4039910), wk =   0.0042941
        k(  249) = (   0.1111111   0.1666667   0.4617040), wk =   0.0042941
        k(  250) = (   0.1111111   0.1666667   0.5194170), wk =   0.0042941
        k(  251) = (   0.1111111   0.1666667   0.5771300), wk =   0.0042941
        k(  252) = (   0.1111111   0.1666667   0.6348430), wk =   0.0042941
        k(  253) = (   0.1111111   0.2222222   0.0000000), wk =   0.0021471
        k(  254) = (   0.1111111   0.2222222   0.0577130), wk =   0.0042941
        k(  255) = (   0.1111111   0.2222222   0.1154260), wk =   0.0042941
        k(  256) = (   0.1111111   0.2222222   0.1731390), wk =   0.0042941
        k(  257) = (   0.1111111   0.2222222   0.2308520), wk =   0.0042941
        k(  258) = (   0.1111111   0.2222222   0.2885650), wk =   0.0042941
        k(  259) = (   0.1111111   0.2222222   0.3462780), wk =   0.0042941
        k(  260) = (   0.1111111   0.2222222   0.4039910), wk =   0.0042941
        k(  261) = (   0.1111111   0.2222222   0.4617040), wk =   0.0042941
        k(  262) = (   0.1111111   0.2222222   0.5194170), wk =   0.0042941
        k(  263) = (   0.1111111   0.2222222   0.5771300), wk =   0.0042941
        k(  264) = (   0.1111111   0.2222222   0.6348430), wk =   0.0042941
        k(  265) = (   0.1111111   0.2777778   0.0000000), wk =   0.0021471
        k(  266) = (   0.1111111   0.2777778   0.0577130), wk =   0.0042941
        k(  267) = (   0.1111111   0.2777778   0.1154260), wk =   0.0042941
        k(  268) = (   0.1111111   0.2777778   0.1731390), wk =   0.0042941
        k(  269) = (   0.1111111   0.2777778   0.2308520), wk =   0.0042941
        k(  270) = (   0.1111111   0.2777778   0.2885650), wk =   0.0042941
        k(  271) = (   0.1111111   0.2777778   0.3462780), wk =   0.0042941
        k(  272) = (   0.1111111   0.2777778   0.4039910), wk =   0.0042941
        k(  273) = (   0.1111111   0.2777778   0.4617040), wk =   0.0042941
        k(  274) = (   0.1111111   0.2777778   0.5194170), wk =   0.0042941
        k(  275) = (   0.1111111   0.2777778   0.5771300), wk =   0.0042941
        k(  276) = (   0.1111111   0.2777778   0.6348430), wk =   0.0042941
        k(  277) = (   0.1111111   0.3333333   0.0000000), wk =   0.0021471
        k(  278) = (   0.1111111   0.3333333   0.0577130), wk =   0.0042941
        k(  279) = (   0.1111111   0.3333333   0.1154260), wk =   0.0042941
        k(  280) = (   0.1111111   0.3333333   0.1731390), wk =   0.0042941
        k(  281) = (   0.1111111   0.3333333   0.2308520), wk =   0.0042941
        k(  282) = (   0.1111111   0.3333333   0.2885650), wk =   0.0042941
        k(  283) = (   0.1111111   0.3333333   0.3462780), wk =   0.0042941
        k(  284) = (   0.1111111   0.3333333   0.4039910), wk =   0.0042941
        k(  285) = (   0.1111111   0.3333333   0.4617040), wk =   0.0042941
        k(  286) = (   0.1111111   0.3333333   0.5194170), wk =   0.0042941
        k(  287) = (   0.1111111   0.3333333   0.5771300), wk =   0.0042941
        k(  288) = (   0.1111111   0.3333333   0.6348430), wk =   0.0042941
        k(  289) = (   0.1111111   0.3888889   0.0000000), wk =   0.0021471
        k(  290) = (   0.1111111   0.3888889   0.0577130), wk =   0.0042941
        k(  291) = (   0.1111111   0.3888889   0.1154260), wk =   0.0042941
        k(  292) = (   0.1111111   0.3888889   0.1731390), wk =   0.0042941
        k(  293) = (   0.1111111   0.3888889   0.2308520), wk =   0.0042941
        k(  294) = (   0.1111111   0.3888889   0.2885650), wk =   0.0042941
        k(  295) = (   0.1111111   0.3888889   0.3462780), wk =   0.0042941
        k(  296) = (   0.1111111   0.3888889   0.4039910), wk =   0.0042941
        k(  297) = (   0.1111111   0.3888889   0.4617040), wk =   0.0042941
        k(  298) = (   0.1111111   0.3888889   0.5194170), wk =   0.0042941
        k(  299) = (   0.1111111   0.3888889   0.5771300), wk =   0.0042941
        k(  300) = (   0.1111111   0.3888889   0.6348430), wk =   0.0042941
        k(  301) = (   0.1111111   0.4444444   0.0000000), wk =   0.0021471
        k(  302) = (   0.1111111   0.4444444   0.0577130), wk =   0.0042941
        k(  303) = (   0.1111111   0.4444444   0.1154260), wk =   0.0042941
        k(  304) = (   0.1111111   0.4444444   0.1731390), wk =   0.0042941
        k(  305) = (   0.1111111   0.4444444   0.2308520), wk =   0.0042941
        k(  306) = (   0.1111111   0.4444444   0.2885650), wk =   0.0042941
        k(  307) = (   0.1111111   0.4444444   0.3462780), wk =   0.0042941
        k(  308) = (   0.1111111   0.4444444   0.4039910), wk =   0.0042941
        k(  309) = (   0.1111111   0.4444444   0.4617040), wk =   0.0042941
        k(  310) = (   0.1111111   0.4444444   0.5194170), wk =   0.0042941
        k(  311) = (   0.1111111   0.4444444   0.5771300), wk =   0.0042941
        k(  312) = (   0.1111111   0.4444444   0.6348430), wk =   0.0042941
        k(  313) = (   0.1111111  -0.5000000   0.0000000), wk =   0.0010735
        k(  314) = (   0.1111111  -0.5000000   0.0577130), wk =   0.0021471
        k(  315) = (   0.1111111  -0.5000000   0.1154260), wk =   0.0021471
        k(  316) = (   0.1111111  -0.5000000   0.1731390), wk =   0.0021471
        k(  317) = (   0.1111111  -0.5000000   0.2308520), wk =   0.0021471
        k(  318) = (   0.1111111  -0.5000000   0.2885650), wk =   0.0021471
        k(  319) = (   0.1111111  -0.5000000   0.3462780), wk =   0.0021471
        k(  320) = (   0.1111111  -0.5000000   0.4039910), wk =   0.0021471
        k(  321) = (   0.1111111  -0.5000000   0.4617040), wk =   0.0021471
        k(  322) = (   0.1111111  -0.5000000   0.5194170), wk =   0.0021471
        k(  323) = (   0.1111111  -0.5000000   0.5771300), wk =   0.0021471
        k(  324) = (   0.1111111  -0.5000000   0.6348430), wk =   0.0021471
        k(  325) = (   0.1666667   0.1666667   0.0000000), wk =   0.0010735
        k(  326) = (   0.1666667   0.1666667   0.0577130), wk =   0.0021471
        k(  327) = (   0.1666667   0.1666667   0.1154260), wk =   0.0021471
        k(  328) = (   0.1666667   0.1666667   0.1731390), wk =   0.0021471
        k(  329) = (   0.1666667   0.1666667   0.2308520), wk =   0.0021471
        k(  330) = (   0.1666667   0.1666667   0.2885650), wk =   0.0021471
        k(  331) = (   0.1666667   0.1666667   0.3462780), wk =   0.0021471
        k(  332) = (   0.1666667   0.1666667   0.4039910), wk =   0.0021471
        k(  333) = (   0.1666667   0.1666667   0.4617040), wk =   0.0021471
        k(  334) = (   0.1666667   0.1666667   0.5194170), wk =   0.0021471
        k(  335) = (   0.1666667   0.1666667   0.5771300), wk =   0.0021471
        k(  336) = (   0.1666667   0.1666667   0.6348430), wk =   0.0021471
        k(  337) = (   0.1666667   0.2222222   0.0000000), wk =   0.0021471
        k(  338) = (   0.1666667   0.2222222   0.0577130), wk =   0.0042941
        k(  339) = (   0.1666667   0.2222222   0.1154260), wk =   0.0042941
        k(  340) = (   0.1666667   0.2222222   0.1731390), wk =   0.0042941
        k(  341) = (   0.1666667   0.2222222   0.2308520), wk =   0.0042941
        k(  342) = (   0.1666667   0.2222222   0.2885650), wk =   0.0042941
        k(  343) = (   0.1666667   0.2222222   0.3462780), wk =   0.0042941
        k(  344) = (   0.1666667   0.2222222   0.4039910), wk =   0.0042941
        k(  345) = (   0.1666667   0.2222222   0.4617040), wk =   0.0042941
        k(  346) = (   0.1666667   0.2222222   0.5194170), wk =   0.0042941
        k(  347) = (   0.1666667   0.2222222   0.5771300), wk =   0.0042941
        k(  348) = (   0.1666667   0.2222222   0.6348430), wk =   0.0042941
        k(  349) = (   0.1666667   0.2777778   0.0000000), wk =   0.0021471
        k(  350) = (   0.1666667   0.2777778   0.0577130), wk =   0.0042941
        k(  351) = (   0.1666667   0.2777778   0.1154260), wk =   0.0042941
        k(  352) = (   0.1666667   0.2777778   0.1731390), wk =   0.0042941
        k(  353) = (   0.1666667   0.2777778   0.2308520), wk =   0.0042941
        k(  354) = (   0.1666667   0.2777778   0.2885650), wk =   0.0042941
        k(  355) = (   0.1666667   0.2777778   0.3462780), wk =   0.0042941
        k(  356) = (   0.1666667   0.2777778   0.4039910), wk =   0.0042941
        k(  357) = (   0.1666667   0.2777778   0.4617040), wk =   0.0042941
        k(  358) = (   0.1666667   0.2777778   0.5194170), wk =   0.0042941
        k(  359) = (   0.1666667   0.2777778   0.5771300), wk =   0.0042941
        k(  360) = (   0.1666667   0.2777778   0.6348430), wk =   0.0042941
        k(  361) = (   0.1666667   0.3333333   0.0000000), wk =   0.0021471
        k(  362) = (   0.1666667   0.3333333   0.0577130), wk =   0.0042941
        k(  363) = (   0.1666667   0.3333333   0.1154260), wk =   0.0042941
        k(  364) = (   0.1666667   0.3333333   0.1731390), wk =   0.0042941
        k(  365) = (   0.1666667   0.3333333   0.2308520), wk =   0.0042941
        k(  366) = (   0.1666667   0.3333333   0.2885650), wk =   0.0042941
        k(  367) = (   0.1666667   0.3333333   0.3462780), wk =   0.0042941
        k(  368) = (   0.1666667   0.3333333   0.4039910), wk =   0.0042941
        k(  369) = (   0.1666667   0.3333333   0.4617040), wk =   0.0042941
        k(  370) = (   0.1666667   0.3333333   0.5194170), wk =   0.0042941
        k(  371) = (   0.1666667   0.3333333   0.5771300), wk =   0.0042941
        k(  372) = (   0.1666667   0.3333333   0.6348430), wk =   0.0042941
        k(  373) = (   0.1666667   0.3888889   0.0000000), wk =   0.0021471
        k(  374) = (   0.1666667   0.3888889   0.0577130), wk =   0.0042941
        k(  375) = (   0.1666667   0.3888889   0.1154260), wk =   0.0042941
        k(  376) = (   0.1666667   0.3888889   0.1731390), wk =   0.0042941
        k(  377) = (   0.1666667   0.3888889   0.2308520), wk =   0.0042941
        k(  378) = (   0.1666667   0.3888889   0.2885650), wk =   0.0042941
        k(  379) = (   0.1666667   0.3888889   0.3462780), wk =   0.0042941
        k(  380) = (   0.1666667   0.3888889   0.4039910), wk =   0.0042941
        k(  381) = (   0.1666667   0.3888889   0.4617040), wk =   0.0042941
        k(  382) = (   0.1666667   0.3888889   0.5194170), wk =   0.0042941
        k(  383) = (   0.1666667   0.3888889   0.5771300), wk =   0.0042941
        k(  384) = (   0.1666667   0.3888889   0.6348430), wk =   0.0042941
        k(  385) = (   0.1666667   0.4444444   0.0000000), wk =   0.0021471
        k(  386) = (   0.1666667   0.4444444   0.0577130), wk =   0.0042941
        k(  387) = (   0.1666667   0.4444444   0.1154260), wk =   0.0042941
        k(  388) = (   0.1666667   0.4444444   0.1731390), wk =   0.0042941
        k(  389) = (   0.1666667   0.4444444   0.2308520), wk =   0.0042941
        k(  390) = (   0.1666667   0.4444444   0.2885650), wk =   0.0042941
        k(  391) = (   0.1666667   0.4444444   0.3462780), wk =   0.0042941
        k(  392) = (   0.1666667   0.4444444   0.4039910), wk =   0.0042941
        k(  393) = (   0.1666667   0.4444444   0.4617040), wk =   0.0042941
        k(  394) = (   0.1666667   0.4444444   0.5194170), wk =   0.0042941
        k(  395) = (   0.1666667   0.4444444   0.5771300), wk =   0.0042941
        k(  396) = (   0.1666667   0.4444444   0.6348430), wk =   0.0042941
        k(  397) = (   0.1666667  -0.5000000   0.0000000), wk =   0.0010735
        k(  398) = (   0.1666667  -0.5000000   0.0577130), wk =   0.0021471
        k(  399) = (   0.1666667  -0.5000000   0.1154260), wk =   0.0021471
        k(  400) = (   0.1666667  -0.5000000   0.1731390), wk =   0.0021471
        k(  401) = (   0.1666667  -0.5000000   0.2308520), wk =   0.0021471
        k(  402) = (   0.1666667  -0.5000000   0.2885650), wk =   0.0021471
        k(  403) = (   0.1666667  -0.5000000   0.3462780), wk =   0.0021471
        k(  404) = (   0.1666667  -0.5000000   0.4039910), wk =   0.0021471
        k(  405) = (   0.1666667  -0.5000000   0.4617040), wk =   0.0021471
        k(  406) = (   0.1666667  -0.5000000   0.5194170), wk =   0.0021471
        k(  407) = (   0.1666667  -0.5000000   0.5771300), wk =   0.0021471
        k(  408) = (   0.1666667  -0.5000000   0.6348430), wk =   0.0021471
        k(  409) = (   0.2222222   0.2222222   0.0000000), wk =   0.0010735
        k(  410) = (   0.2222222   0.2222222   0.0577130), wk =   0.0021471
        k(  411) = (   0.2222222   0.2222222   0.1154260), wk =   0.0021471
        k(  412) = (   0.2222222   0.2222222   0.1731390), wk =   0.0021471
        k(  413) = (   0.2222222   0.2222222   0.2308520), wk =   0.0021471
        k(  414) = (   0.2222222   0.2222222   0.2885650), wk =   0.0021471
        k(  415) = (   0.2222222   0.2222222   0.3462780), wk =   0.0021471
        k(  416) = (   0.2222222   0.2222222   0.4039910), wk =   0.0021471
        k(  417) = (   0.2222222   0.2222222   0.4617040), wk =   0.0021471
        k(  418) = (   0.2222222   0.2222222   0.5194170), wk =   0.0021471
        k(  419) = (   0.2222222   0.2222222   0.5771300), wk =   0.0021471
        k(  420) = (   0.2222222   0.2222222   0.6348430), wk =   0.0021471
        k(  421) = (   0.2222222   0.2777778   0.0000000), wk =   0.0021471
        k(  422) = (   0.2222222   0.2777778   0.0577130), wk =   0.0042941
        k(  423) = (   0.2222222   0.2777778   0.1154260), wk =   0.0042941
        k(  424) = (   0.2222222   0.2777778   0.1731390), wk =   0.0042941
        k(  425) = (   0.2222222   0.2777778   0.2308520), wk =   0.0042941
        k(  426) = (   0.2222222   0.2777778   0.2885650), wk =   0.0042941
        k(  427) = (   0.2222222   0.2777778   0.3462780), wk =   0.0042941
        k(  428) = (   0.2222222   0.2777778   0.4039910), wk =   0.0042941
        k(  429) = (   0.2222222   0.2777778   0.4617040), wk =   0.0042941
        k(  430) = (   0.2222222   0.2777778   0.5194170), wk =   0.0042941
        k(  431) = (   0.2222222   0.2777778   0.5771300), wk =   0.0042941
        k(  432) = (   0.2222222   0.2777778   0.6348430), wk =   0.0042941
        k(  433) = (   0.2222222   0.3333333   0.0000000), wk =   0.0021471
        k(  434) = (   0.2222222   0.3333333   0.0577130), wk =   0.0042941
        k(  435) = (   0.2222222   0.3333333   0.1154260), wk =   0.0042941
        k(  436) = (   0.2222222   0.3333333   0.1731390), wk =   0.0042941
        k(  437) = (   0.2222222   0.3333333   0.2308520), wk =   0.0042941
        k(  438) = (   0.2222222   0.3333333   0.2885650), wk =   0.0042941
        k(  439) = (   0.2222222   0.3333333   0.3462780), wk =   0.0042941
        k(  440) = (   0.2222222   0.3333333   0.4039910), wk =   0.0042941
        k(  441) = (   0.2222222   0.3333333   0.4617040), wk =   0.0042941
        k(  442) = (   0.2222222   0.3333333   0.5194170), wk =   0.0042941
        k(  443) = (   0.2222222   0.3333333   0.5771300), wk =   0.0042941
        k(  444) = (   0.2222222   0.3333333   0.6348430), wk =   0.0042941
        k(  445) = (   0.2222222   0.3888889   0.0000000), wk =   0.0021471
        k(  446) = (   0.2222222   0.3888889   0.0577130), wk =   0.0042941
        k(  447) = (   0.2222222   0.3888889   0.1154260), wk =   0.0042941
        k(  448) = (   0.2222222   0.3888889   0.1731390), wk =   0.0042941
        k(  449) = (   0.2222222   0.3888889   0.2308520), wk =   0.0042941
        k(  450) = (   0.2222222   0.3888889   0.2885650), wk =   0.0042941
        k(  451) = (   0.2222222   0.3888889   0.3462780), wk =   0.0042941
        k(  452) = (   0.2222222   0.3888889   0.4039910), wk =   0.0042941
        k(  453) = (   0.2222222   0.3888889   0.4617040), wk =   0.0042941
        k(  454) = (   0.2222222   0.3888889   0.5194170), wk =   0.0042941
        k(  455) = (   0.2222222   0.3888889   0.5771300), wk =   0.0042941
        k(  456) = (   0.2222222   0.3888889   0.6348430), wk =   0.0042941
        k(  457) = (   0.2222222   0.4444444   0.0000000), wk =   0.0021471
        k(  458) = (   0.2222222   0.4444444   0.0577130), wk =   0.0042941
        k(  459) = (   0.2222222   0.4444444   0.1154260), wk =   0.0042941
        k(  460) = (   0.2222222   0.4444444   0.1731390), wk =   0.0042941
        k(  461) = (   0.2222222   0.4444444   0.2308520), wk =   0.0042941
        k(  462) = (   0.2222222   0.4444444   0.2885650), wk =   0.0042941
        k(  463) = (   0.2222222   0.4444444   0.3462780), wk =   0.0042941
        k(  464) = (   0.2222222   0.4444444   0.4039910), wk =   0.0042941
        k(  465) = (   0.2222222   0.4444444   0.4617040), wk =   0.0042941
        k(  466) = (   0.2222222   0.4444444   0.5194170), wk =   0.0042941
        k(  467) = (   0.2222222   0.4444444   0.5771300), wk =   0.0042941
        k(  468) = (   0.2222222   0.4444444   0.6348430), wk =   0.0042941
        k(  469) = (   0.2222222  -0.5000000   0.0000000), wk =   0.0010735
        k(  470) = (   0.2222222  -0.5000000   0.0577130), wk =   0.0021471
        k(  471) = (   0.2222222  -0.5000000   0.1154260), wk =   0.0021471
        k(  472) = (   0.2222222  -0.5000000   0.1731390), wk =   0.0021471
        k(  473) = (   0.2222222  -0.5000000   0.2308520), wk =   0.0021471
        k(  474) = (   0.2222222  -0.5000000   0.2885650), wk =   0.0021471
        k(  475) = (   0.2222222  -0.5000000   0.3462780), wk =   0.0021471
        k(  476) = (   0.2222222  -0.5000000   0.4039910), wk =   0.0021471
        k(  477) = (   0.2222222  -0.5000000   0.4617040), wk =   0.0021471
        k(  478) = (   0.2222222  -0.5000000   0.5194170), wk =   0.0021471
        k(  479) = (   0.2222222  -0.5000000   0.5771300), wk =   0.0021471
        k(  480) = (   0.2222222  -0.5000000   0.6348430), wk =   0.0021471
        k(  481) = (   0.2777778   0.2777778   0.0000000), wk =   0.0010735
        k(  482) = (   0.2777778   0.2777778   0.0577130), wk =   0.0021471
        k(  483) = (   0.2777778   0.2777778   0.1154260), wk =   0.0021471
        k(  484) = (   0.2777778   0.2777778   0.1731390), wk =   0.0021471
        k(  485) = (   0.2777778   0.2777778   0.2308520), wk =   0.0021471
        k(  486) = (   0.2777778   0.2777778   0.2885650), wk =   0.0021471
        k(  487) = (   0.2777778   0.2777778   0.3462780), wk =   0.0021471
        k(  488) = (   0.2777778   0.2777778   0.4039910), wk =   0.0021471
        k(  489) = (   0.2777778   0.2777778   0.4617040), wk =   0.0021471
        k(  490) = (   0.2777778   0.2777778   0.5194170), wk =   0.0021471
        k(  491) = (   0.2777778   0.2777778   0.5771300), wk =   0.0021471
        k(  492) = (   0.2777778   0.2777778   0.6348430), wk =   0.0021471
        k(  493) = (   0.2777778   0.3333333   0.0000000), wk =   0.0021471
        k(  494) = (   0.2777778   0.3333333   0.0577130), wk =   0.0042941
        k(  495) = (   0.2777778   0.3333333   0.1154260), wk =   0.0042941
        k(  496) = (   0.2777778   0.3333333   0.1731390), wk =   0.0042941
        k(  497) = (   0.2777778   0.3333333   0.2308520), wk =   0.0042941
        k(  498) = (   0.2777778   0.3333333   0.2885650), wk =   0.0042941
        k(  499) = (   0.2777778   0.3333333   0.3462780), wk =   0.0042941
        k(  500) = (   0.2777778   0.3333333   0.4039910), wk =   0.0042941
        k(  501) = (   0.2777778   0.3333333   0.4617040), wk =   0.0042941
        k(  502) = (   0.2777778   0.3333333   0.5194170), wk =   0.0042941
        k(  503) = (   0.2777778   0.3333333   0.5771300), wk =   0.0042941
        k(  504) = (   0.2777778   0.3333333   0.6348430), wk =   0.0042941
        k(  505) = (   0.2777778   0.3888889   0.0000000), wk =   0.0021471
        k(  506) = (   0.2777778   0.3888889   0.0577130), wk =   0.0042941
        k(  507) = (   0.2777778   0.3888889   0.1154260), wk =   0.0042941
        k(  508) = (   0.2777778   0.3888889   0.1731390), wk =   0.0042941
        k(  509) = (   0.2777778   0.3888889   0.2308520), wk =   0.0042941
        k(  510) = (   0.2777778   0.3888889   0.2885650), wk =   0.0042941
        k(  511) = (   0.2777778   0.3888889   0.3462780), wk =   0.0042941
        k(  512) = (   0.2777778   0.3888889   0.4039910), wk =   0.0042941
        k(  513) = (   0.2777778   0.3888889   0.4617040), wk =   0.0042941
        k(  514) = (   0.2777778   0.3888889   0.5194170), wk =   0.0042941
        k(  515) = (   0.2777778   0.3888889   0.5771300), wk =   0.0042941
        k(  516) = (   0.2777778   0.3888889   0.6348430), wk =   0.0042941
        k(  517) = (   0.2777778   0.4444444   0.0000000), wk =   0.0021471
        k(  518) = (   0.2777778   0.4444444   0.0577130), wk =   0.0042941
        k(  519) = (   0.2777778   0.4444444   0.1154260), wk =   0.0042941
        k(  520) = (   0.2777778   0.4444444   0.1731390), wk =   0.0042941
        k(  521) = (   0.2777778   0.4444444   0.2308520), wk =   0.0042941
        k(  522) = (   0.2777778   0.4444444   0.2885650), wk =   0.0042941
        k(  523) = (   0.2777778   0.4444444   0.3462780), wk =   0.0042941
        k(  524) = (   0.2777778   0.4444444   0.4039910), wk =   0.0042941
        k(  525) = (   0.2777778   0.4444444   0.4617040), wk =   0.0042941
        k(  526) = (   0.2777778   0.4444444   0.5194170), wk =   0.0042941
        k(  527) = (   0.2777778   0.4444444   0.5771300), wk =   0.0042941
        k(  528) = (   0.2777778   0.4444444   0.6348430), wk =   0.0042941
        k(  529) = (   0.2777778  -0.5000000   0.0000000), wk =   0.0010735
        k(  530) = (   0.2777778  -0.5000000   0.0577130), wk =   0.0021471
        k(  531) = (   0.2777778  -0.5000000   0.1154260), wk =   0.0021471
        k(  532) = (   0.2777778  -0.5000000   0.1731390), wk =   0.0021471
        k(  533) = (   0.2777778  -0.5000000   0.2308520), wk =   0.0021471
        k(  534) = (   0.2777778  -0.5000000   0.2885650), wk =   0.0021471
        k(  535) = (   0.2777778  -0.5000000   0.3462780), wk =   0.0021471
        k(  536) = (   0.2777778  -0.5000000   0.4039910), wk =   0.0021471
        k(  537) = (   0.2777778  -0.5000000   0.4617040), wk =   0.0021471
        k(  538) = (   0.2777778  -0.5000000   0.5194170), wk =   0.0021471
        k(  539) = (   0.2777778  -0.5000000   0.5771300), wk =   0.0021471
        k(  540) = (   0.2777778  -0.5000000   0.6348430), wk =   0.0021471
        k(  541) = (   0.3333333   0.3333333   0.0000000), wk =   0.0010735
        k(  542) = (   0.3333333   0.3333333   0.0577130), wk =   0.0021471
        k(  543) = (   0.3333333   0.3333333   0.1154260), wk =   0.0021471
        k(  544) = (   0.3333333   0.3333333   0.1731390), wk =   0.0021471
        k(  545) = (   0.3333333   0.3333333   0.2308520), wk =   0.0021471
        k(  546) = (   0.3333333   0.3333333   0.2885650), wk =   0.0021471
        k(  547) = (   0.3333333   0.3333333   0.3462780), wk =   0.0021471
        k(  548) = (   0.3333333   0.3333333   0.4039910), wk =   0.0021471
        k(  549) = (   0.3333333   0.3333333   0.4617040), wk =   0.0021471
        k(  550) = (   0.3333333   0.3333333   0.5194170), wk =   0.0021471
        k(  551) = (   0.3333333   0.3333333   0.5771300), wk =   0.0021471
        k(  552) = (   0.3333333   0.3333333   0.6348430), wk =   0.0021471
        k(  553) = (   0.3333333   0.3888889   0.0000000), wk =   0.0021471
        k(  554) = (   0.3333333   0.3888889   0.0577130), wk =   0.0042941
        k(  555) = (   0.3333333   0.3888889   0.1154260), wk =   0.0042941
        k(  556) = (   0.3333333   0.3888889   0.1731390), wk =   0.0042941
        k(  557) = (   0.3333333   0.3888889   0.2308520), wk =   0.0042941
        k(  558) = (   0.3333333   0.3888889   0.2885650), wk =   0.0042941
        k(  559) = (   0.3333333   0.3888889   0.3462780), wk =   0.0042941
        k(  560) = (   0.3333333   0.3888889   0.4039910), wk =   0.0042941
        k(  561) = (   0.3333333   0.3888889   0.4617040), wk =   0.0042941
        k(  562) = (   0.3333333   0.3888889   0.5194170), wk =   0.0042941
        k(  563) = (   0.3333333   0.3888889   0.5771300), wk =   0.0042941
        k(  564) = (   0.3333333   0.3888889   0.6348430), wk =   0.0042941
        k(  565) = (   0.3333333   0.4444444   0.0000000), wk =   0.0021471
        k(  566) = (   0.3333333   0.4444444   0.0577130), wk =   0.0042941
        k(  567) = (   0.3333333   0.4444444   0.1154260), wk =   0.0042941
        k(  568) = (   0.3333333   0.4444444   0.1731390), wk =   0.0042941
        k(  569) = (   0.3333333   0.4444444   0.2308520), wk =   0.0042941
        k(  570) = (   0.3333333   0.4444444   0.2885650), wk =   0.0042941
        k(  571) = (   0.3333333   0.4444444   0.3462780), wk =   0.0042941
        k(  572) = (   0.3333333   0.4444444   0.4039910), wk =   0.0042941
        k(  573) = (   0.3333333   0.4444444   0.4617040), wk =   0.0042941
        k(  574) = (   0.3333333   0.4444444   0.5194170), wk =   0.0042941
        k(  575) = (   0.3333333   0.4444444   0.5771300), wk =   0.0042941
        k(  576) = (   0.3333333   0.4444444   0.6348430), wk =   0.0042941
        k(  577) = (   0.3333333  -0.5000000   0.0000000), wk =   0.0010735
        k(  578) = (   0.3333333  -0.5000000   0.0577130), wk =   0.0021471
        k(  579) = (   0.3333333  -0.5000000   0.1154260), wk =   0.0021471
        k(  580) = (   0.3333333  -0.5000000   0.1731390), wk =   0.0021471
        k(  581) = (   0.3333333  -0.5000000   0.2308520), wk =   0.0021471
        k(  582) = (   0.3333333  -0.5000000   0.2885650), wk =   0.0021471
        k(  583) = (   0.3333333  -0.5000000   0.3462780), wk =   0.0021471
        k(  584) = (   0.3333333  -0.5000000   0.4039910), wk =   0.0021471
        k(  585) = (   0.3333333  -0.5000000   0.4617040), wk =   0.0021471
        k(  586) = (   0.3333333  -0.5000000   0.5194170), wk =   0.0021471
        k(  587) = (   0.3333333  -0.5000000   0.5771300), wk =   0.0021471
        k(  588) = (   0.3333333  -0.5000000   0.6348430), wk =   0.0021471
        k(  589) = (   0.3888889   0.3888889   0.0000000), wk =   0.0010735
        k(  590) = (   0.3888889   0.3888889   0.0577130), wk =   0.0021471
        k(  591) = (   0.3888889   0.3888889   0.1154260), wk =   0.0021471
        k(  592) = (   0.3888889   0.3888889   0.1731390), wk =   0.0021471
        k(  593) = (   0.3888889   0.3888889   0.2308520), wk =   0.0021471
        k(  594) = (   0.3888889   0.3888889   0.2885650), wk =   0.0021471
        k(  595) = (   0.3888889   0.3888889   0.3462780), wk =   0.0021471
        k(  596) = (   0.3888889   0.3888889   0.4039910), wk =   0.0021471
        k(  597) = (   0.3888889   0.3888889   0.4617040), wk =   0.0021471
        k(  598) = (   0.3888889   0.3888889   0.5194170), wk =   0.0021471
        k(  599) = (   0.3888889   0.3888889   0.5771300), wk =   0.0021471
        k(  600) = (   0.3888889   0.3888889   0.6348430), wk =   0.0021471
        k(  601) = (   0.3888889   0.4444444   0.0000000), wk =   0.0021471
        k(  602) = (   0.3888889   0.4444444   0.0577130), wk =   0.0042941
        k(  603) = (   0.3888889   0.4444444   0.1154260), wk =   0.0042941
        k(  604) = (   0.3888889   0.4444444   0.1731390), wk =   0.0042941
        k(  605) = (   0.3888889   0.4444444   0.2308520), wk =   0.0042941
        k(  606) = (   0.3888889   0.4444444   0.2885650), wk =   0.0042941
        k(  607) = (   0.3888889   0.4444444   0.3462780), wk =   0.0042941
        k(  608) = (   0.3888889   0.4444444   0.4039910), wk =   0.0042941
        k(  609) = (   0.3888889   0.4444444   0.4617040), wk =   0.0042941
        k(  610) = (   0.3888889   0.4444444   0.5194170), wk =   0.0042941
        k(  611) = (   0.3888889   0.4444444   0.5771300), wk =   0.0042941
        k(  612) = (   0.3888889   0.4444444   0.6348430), wk =   0.0042941
        k(  613) = (   0.3888889  -0.5000000   0.0000000), wk =   0.0010735
        k(  614) = (   0.3888889  -0.5000000   0.0577130), wk =   0.0021471
        k(  615) = (   0.3888889  -0.5000000   0.1154260), wk =   0.0021471
        k(  616) = (   0.3888889  -0.5000000   0.1731390), wk =   0.0021471
        k(  617) = (   0.3888889  -0.5000000   0.2308520), wk =   0.0021471
        k(  618) = (   0.3888889  -0.5000000   0.2885650), wk =   0.0021471
        k(  619) = (   0.3888889  -0.5000000   0.3462780), wk =   0.0021471
        k(  620) = (   0.3888889  -0.5000000   0.4039910), wk =   0.0021471
        k(  621) = (   0.3888889  -0.5000000   0.4617040), wk =   0.0021471
        k(  622) = (   0.3888889  -0.5000000   0.5194170), wk =   0.0021471
        k(  623) = (   0.3888889  -0.5000000   0.5771300), wk =   0.0021471
        k(  624) = (   0.3888889  -0.5000000   0.6348430), wk =   0.0021471
        k(  625) = (   0.4444444   0.4444444   0.0000000), wk =   0.0010735
        k(  626) = (   0.4444444   0.4444444   0.0577130), wk =   0.0021471
        k(  627) = (   0.4444444   0.4444444   0.1154260), wk =   0.0021471
        k(  628) = (   0.4444444   0.4444444   0.1731390), wk =   0.0021471
        k(  629) = (   0.4444444   0.4444444   0.2308520), wk =   0.0021471
        k(  630) = (   0.4444444   0.4444444   0.2885650), wk =   0.0021471
        k(  631) = (   0.4444444   0.4444444   0.3462780), wk =   0.0021471
        k(  632) = (   0.4444444   0.4444444   0.4039910), wk =   0.0021471
        k(  633) = (   0.4444444   0.4444444   0.4617040), wk =   0.0021471
        k(  634) = (   0.4444444   0.4444444   0.5194170), wk =   0.0021471
        k(  635) = (   0.4444444   0.4444444   0.5771300), wk =   0.0021471
        k(  636) = (   0.4444444   0.4444444   0.6348430), wk =   0.0021471
        k(  637) = (   0.4444444  -0.5000000   0.0000000), wk =   0.0010735
        k(  638) = (   0.4444444  -0.5000000   0.0577130), wk =   0.0021471
        k(  639) = (   0.4444444  -0.5000000   0.1154260), wk =   0.0021471
        k(  640) = (   0.4444444  -0.5000000   0.1731390), wk =   0.0021471
        k(  641) = (   0.4444444  -0.5000000   0.2308520), wk =   0.0021471
        k(  642) = (   0.4444444  -0.5000000   0.2885650), wk =   0.0021471
        k(  643) = (   0.4444444  -0.5000000   0.3462780), wk =   0.0021471
        k(  644) = (   0.4444444  -0.5000000   0.4039910), wk =   0.0021471
        k(  645) = (   0.4444444  -0.5000000   0.4617040), wk =   0.0021471
        k(  646) = (   0.4444444  -0.5000000   0.5194170), wk =   0.0021471
        k(  647) = (   0.4444444  -0.5000000   0.5771300), wk =   0.0021471
        k(  648) = (   0.4444444  -0.5000000   0.6348430), wk =   0.0021471
        k(  649) = (  -0.5000000  -0.5000000   0.0000000), wk =   0.0002684
        k(  650) = (  -0.5000000  -0.5000000   0.0577130), wk =   0.0005368
        k(  651) = (  -0.5000000  -0.5000000   0.1154260), wk =   0.0005368
        k(  652) = (  -0.5000000  -0.5000000   0.1731390), wk =   0.0005368
        k(  653) = (  -0.5000000  -0.5000000   0.2308520), wk =   0.0005368
        k(  654) = (  -0.5000000  -0.5000000   0.2885650), wk =   0.0005368
        k(  655) = (  -0.5000000  -0.5000000   0.3462780), wk =   0.0005368
        k(  656) = (  -0.5000000  -0.5000000   0.4039910), wk =   0.0005368
        k(  657) = (  -0.5000000  -0.5000000   0.4617040), wk =   0.0005368
        k(  658) = (  -0.5000000  -0.5000000   0.5194170), wk =   0.0005368
        k(  659) = (  -0.5000000  -0.5000000   0.5771300), wk =   0.0005368
        k(  660) = (  -0.5000000  -0.5000000   0.6348430), wk =   0.0005368

                       cryst. coord.
        k(    1) = (   0.0000000   0.0000000   0.0000000), wk =   0.0002684
        k(    2) = (   0.0000000   0.0000000   0.0434783), wk =   0.0005368
        k(    3) = (   0.0000000   0.0000000   0.0869565), wk =   0.0005368
        k(    4) = (   0.0000000   0.0000000   0.1304348), wk =   0.0005368
        k(    5) = (   0.0000000   0.0000000   0.1739130), wk =   0.0005368
        k(    6) = (   0.0000000   0.0000000   0.2173913), wk =   0.0005368
        k(    7) = (   0.0000000   0.0000000   0.2608696), wk =   0.0005368
        k(    8) = (   0.0000000   0.0000000   0.3043478), wk =   0.0005368
        k(    9) = (   0.0000000   0.0000000   0.3478261), wk =   0.0005368
        k(   10) = (   0.0000000   0.0000000   0.3913043), wk =   0.0005368
        k(   11) = (   0.0000000   0.0000000   0.4347826), wk =   0.0005368
        k(   12) = (   0.0000000   0.0000000   0.4782609), wk =   0.0005368
        k(   13) = (   0.0000000   0.0555556   0.0000000), wk =   0.0010735
        k(   14) = (   0.0000000   0.0555556   0.0434783), wk =   0.0021471
        k(   15) = (   0.0000000   0.0555556   0.0869565), wk =   0.0021471
        k(   16) = (   0.0000000   0.0555556   0.1304348), wk =   0.0021471
        k(   17) = (   0.0000000   0.0555556   0.1739130), wk =   0.0021471
        k(   18) = (   0.0000000   0.0555556   0.2173913), wk =   0.0021471
        k(   19) = (   0.0000000   0.0555556   0.2608696), wk =   0.0021471
        k(   20) = (   0.0000000   0.0555556   0.3043478), wk =   0.0021471
        k(   21) = (   0.0000000   0.0555556   0.3478261), wk =   0.0021471
        k(   22) = (   0.0000000   0.0555556   0.3913043), wk =   0.0021471
        k(   23) = (   0.0000000   0.0555556   0.4347826), wk =   0.0021471
        k(   24) = (   0.0000000   0.0555556   0.4782609), wk =   0.0021471
        k(   25) = (   0.0000000   0.1111111   0.0000000), wk =   0.0010735
        k(   26) = (   0.0000000   0.1111111   0.0434783), wk =   0.0021471
        k(   27) = (   0.0000000   0.1111111   0.0869565), wk =   0.0021471
        k(   28) = (   0.0000000   0.1111111   0.1304348), wk =   0.0021471
        k(   29) = (   0.0000000   0.1111111   0.1739130), wk =   0.0021471
        k(   30) = (   0.0000000   0.1111111   0.2173913), wk =   0.0021471
        k(   31) = (   0.0000000   0.1111111   0.2608696), wk =   0.0021471
        k(   32) = (   0.0000000   0.1111111   0.3043478), wk =   0.0021471
        k(   33) = (   0.0000000   0.1111111   0.3478261), wk =   0.0021471
        k(   34) = (   0.0000000   0.1111111   0.3913043), wk =   0.0021471
        k(   35) = (   0.0000000   0.1111111   0.4347826), wk =   0.0021471
        k(   36) = (   0.0000000   0.1111111   0.4782609), wk =   0.0021471
        k(   37) = (   0.0000000   0.1666667   0.0000000), wk =   0.0010735
        k(   38) = (   0.0000000   0.1666667   0.0434783), wk =   0.0021471
        k(   39) = (   0.0000000   0.1666667   0.0869565), wk =   0.0021471
        k(   40) = (   0.0000000   0.1666667   0.1304348), wk =   0.0021471
        k(   41) = (   0.0000000   0.1666667   0.1739130), wk =   0.0021471
        k(   42) = (   0.0000000   0.1666667   0.2173913), wk =   0.0021471
        k(   43) = (   0.0000000   0.1666667   0.2608696), wk =   0.0021471
        k(   44) = (   0.0000000   0.1666667   0.3043478), wk =   0.0021471
        k(   45) = (   0.0000000   0.1666667   0.3478261), wk =   0.0021471
        k(   46) = (   0.0000000   0.1666667   0.3913043), wk =   0.0021471
        k(   47) = (   0.0000000   0.1666667   0.4347826), wk =   0.0021471
        k(   48) = (   0.0000000   0.1666667   0.4782609), wk =   0.0021471
        k(   49) = (   0.0000000   0.2222222   0.0000000), wk =   0.0010735
        k(   50) = (   0.0000000   0.2222222   0.0434783), wk =   0.0021471
        k(   51) = (   0.0000000   0.2222222   0.0869565), wk =   0.0021471
        k(   52) = (   0.0000000   0.2222222   0.1304348), wk =   0.0021471
        k(   53) = (   0.0000000   0.2222222   0.1739130), wk =   0.0021471
        k(   54) = (   0.0000000   0.2222222   0.2173913), wk =   0.0021471
        k(   55) = (   0.0000000   0.2222222   0.2608696), wk =   0.0021471
        k(   56) = (   0.0000000   0.2222222   0.3043478), wk =   0.0021471
        k(   57) = (   0.0000000   0.2222222   0.3478261), wk =   0.0021471
        k(   58) = (   0.0000000   0.2222222   0.3913043), wk =   0.0021471
        k(   59) = (   0.0000000   0.2222222   0.4347826), wk =   0.0021471
        k(   60) = (   0.0000000   0.2222222   0.4782609), wk =   0.0021471
        k(   61) = (   0.0000000   0.2777778   0.0000000), wk =   0.0010735
        k(   62) = (   0.0000000   0.2777778   0.0434783), wk =   0.0021471
        k(   63) = (   0.0000000   0.2777778   0.0869565), wk =   0.0021471
        k(   64) = (   0.0000000   0.2777778   0.1304348), wk =   0.0021471
        k(   65) = (   0.0000000   0.2777778   0.1739130), wk =   0.0021471
        k(   66) = (   0.0000000   0.2777778   0.2173913), wk =   0.0021471
        k(   67) = (   0.0000000   0.2777778   0.2608696), wk =   0.0021471
        k(   68) = (   0.0000000   0.2777778   0.3043478), wk =   0.0021471
        k(   69) = (   0.0000000   0.2777778   0.3478261), wk =   0.0021471
        k(   70) = (   0.0000000   0.2777778   0.3913043), wk =   0.0021471
        k(   71) = (   0.0000000   0.2777778   0.4347826), wk =   0.0021471
        k(   72) = (   0.0000000   0.2777778   0.4782609), wk =   0.0021471
        k(   73) = (   0.0000000   0.3333333   0.0000000), wk =   0.0010735
        k(   74) = (   0.0000000   0.3333333   0.0434783), wk =   0.0021471
        k(   75) = (   0.0000000   0.3333333   0.0869565), wk =   0.0021471
        k(   76) = (   0.0000000   0.3333333   0.1304348), wk =   0.0021471
        k(   77) = (   0.0000000   0.3333333   0.1739130), wk =   0.0021471
        k(   78) = (   0.0000000   0.3333333   0.2173913), wk =   0.0021471
        k(   79) = (   0.0000000   0.3333333   0.2608696), wk =   0.0021471
        k(   80) = (   0.0000000   0.3333333   0.3043478), wk =   0.0021471
        k(   81) = (   0.0000000   0.3333333   0.3478261), wk =   0.0021471
        k(   82) = (   0.0000000   0.3333333   0.3913043), wk =   0.0021471
        k(   83) = (   0.0000000   0.3333333   0.4347826), wk =   0.0021471
        k(   84) = (   0.0000000   0.3333333   0.4782609), wk =   0.0021471
        k(   85) = (   0.0000000   0.3888889   0.0000000), wk =   0.0010735
        k(   86) = (   0.0000000   0.3888889   0.0434783), wk =   0.0021471
        k(   87) = (   0.0000000   0.3888889   0.0869565), wk =   0.0021471
        k(   88) = (   0.0000000   0.3888889   0.1304348), wk =   0.0021471
        k(   89) = (   0.0000000   0.3888889   0.1739130), wk =   0.0021471
        k(   90) = (   0.0000000   0.3888889   0.2173913), wk =   0.0021471
        k(   91) = (   0.0000000   0.3888889   0.2608696), wk =   0.0021471
        k(   92) = (   0.0000000   0.3888889   0.3043478), wk =   0.0021471
        k(   93) = (   0.0000000   0.3888889   0.3478261), wk =   0.0021471
        k(   94) = (   0.0000000   0.3888889   0.3913043), wk =   0.0021471
        k(   95) = (   0.0000000   0.3888889   0.4347826), wk =   0.0021471
        k(   96) = (   0.0000000   0.3888889   0.4782609), wk =   0.0021471
        k(   97) = (   0.0000000   0.4444444   0.0000000), wk =   0.0010735
        k(   98) = (   0.0000000   0.4444444   0.0434783), wk =   0.0021471
        k(   99) = (   0.0000000   0.4444444   0.0869565), wk =   0.0021471
        k(  100) = (   0.0000000   0.4444444   0.1304348), wk =   0.0021471
        k(  101) = (   0.0000000   0.4444444   0.1739130), wk =   0.0021471
        k(  102) = (   0.0000000   0.4444444   0.2173913), wk =   0.0021471
        k(  103) = (   0.0000000   0.4444444   0.2608696), wk =   0.0021471
        k(  104) = (   0.0000000   0.4444444   0.3043478), wk =   0.0021471
        k(  105) = (   0.0000000   0.4444444   0.3478261), wk =   0.0021471
        k(  106) = (   0.0000000   0.4444444   0.3913043), wk =   0.0021471
        k(  107) = (   0.0000000   0.4444444   0.4347826), wk =   0.0021471
        k(  108) = (   0.0000000   0.4444444   0.4782609), wk =   0.0021471
        k(  109) = (   0.0000000  -0.5000000   0.0000000), wk =   0.0005368
        k(  110) = (   0.0000000  -0.5000000   0.0434783), wk =   0.0010735
        k(  111) = (   0.0000000  -0.5000000   0.0869565), wk =   0.0010735
        k(  112) = (   0.0000000  -0.5000000   0.1304348), wk =   0.0010735
        k(  113) = (   0.0000000  -0.5000000   0.1739130), wk =   0.0010735
        k(  114) = (   0.0000000  -0.5000000   0.2173913), wk =   0.0010735
        k(  115) = (   0.0000000  -0.5000000   0.2608696), wk =   0.0010735
        k(  116) = (   0.0000000  -0.5000000   0.3043478), wk =   0.0010735
        k(  117) = (   0.0000000  -0.5000000   0.3478261), wk =   0.0010735
        k(  118) = (   0.0000000  -0.5000000   0.3913043), wk =   0.0010735
        k(  119) = (   0.0000000  -0.5000000   0.4347826), wk =   0.0010735
        k(  120) = (   0.0000000  -0.5000000   0.4782609), wk =   0.0010735
        k(  121) = (   0.0555556   0.0555556   0.0000000), wk =   0.0010735
        k(  122) = (   0.0555556   0.0555556   0.0434783), wk =   0.0021471
        k(  123) = (   0.0555556   0.0555556   0.0869565), wk =   0.0021471
        k(  124) = (   0.0555556   0.0555556   0.1304348), wk =   0.0021471
        k(  125) = (   0.0555556   0.0555556   0.1739130), wk =   0.0021471
        k(  126) = (   0.0555556   0.0555556   0.2173913), wk =   0.0021471
        k(  127) = (   0.0555556   0.0555556   0.2608696), wk =   0.0021471
        k(  128) = (   0.0555556   0.0555556   0.3043478), wk =   0.0021471
        k(  129) = (   0.0555556   0.0555556   0.3478261), wk =   0.0021471
        k(  130) = (   0.0555556   0.0555556   0.3913043), wk =   0.0021471
        k(  131) = (   0.0555556   0.0555556   0.4347826), wk =   0.0021471
        k(  132) = (   0.0555556   0.0555556   0.4782609), wk =   0.0021471
        k(  133) = (   0.0555556   0.1111111   0.0000000), wk =   0.0021471
        k(  134) = (   0.0555556   0.1111111   0.0434783), wk =   0.0042941
        k(  135) = (   0.0555556   0.1111111   0.0869565), wk =   0.0042941
        k(  136) = (   0.0555556   0.1111111   0.1304348), wk =   0.0042941
        k(  137) = (   0.0555556   0.1111111   0.1739130), wk =   0.0042941
        k(  138) = (   0.0555556   0.1111111   0.2173913), wk =   0.0042941
        k(  139) = (   0.0555556   0.1111111   0.2608696), wk =   0.0042941
        k(  140) = (   0.0555556   0.1111111   0.3043478), wk =   0.0042941
        k(  141) = (   0.0555556   0.1111111   0.3478261), wk =   0.0042941
        k(  142) = (   0.0555556   0.1111111   0.3913043), wk =   0.0042941
        k(  143) = (   0.0555556   0.1111111   0.4347826), wk =   0.0042941
        k(  144) = (   0.0555556   0.1111111   0.4782609), wk =   0.0042941
        k(  145) = (   0.0555556   0.1666667   0.0000000), wk =   0.0021471
        k(  146) = (   0.0555556   0.1666667   0.0434783), wk =   0.0042941
        k(  147) = (   0.0555556   0.1666667   0.0869565), wk =   0.0042941
        k(  148) = (   0.0555556   0.1666667   0.1304348), wk =   0.0042941
        k(  149) = (   0.0555556   0.1666667   0.1739130), wk =   0.0042941
        k(  150) = (   0.0555556   0.1666667   0.2173913), wk =   0.0042941
        k(  151) = (   0.0555556   0.1666667   0.2608696), wk =   0.0042941
        k(  152) = (   0.0555556   0.1666667   0.3043478), wk =   0.0042941
        k(  153) = (   0.0555556   0.1666667   0.3478261), wk =   0.0042941
        k(  154) = (   0.0555556   0.1666667   0.3913043), wk =   0.0042941
        k(  155) = (   0.0555556   0.1666667   0.4347826), wk =   0.0042941
        k(  156) = (   0.0555556   0.1666667   0.4782609), wk =   0.0042941
        k(  157) = (   0.0555556   0.2222222   0.0000000), wk =   0.0021471
        k(  158) = (   0.0555556   0.2222222   0.0434783), wk =   0.0042941
        k(  159) = (   0.0555556   0.2222222   0.0869565), wk =   0.0042941
        k(  160) = (   0.0555556   0.2222222   0.1304348), wk =   0.0042941
        k(  161) = (   0.0555556   0.2222222   0.1739130), wk =   0.0042941
        k(  162) = (   0.0555556   0.2222222   0.2173913), wk =   0.0042941
        k(  163) = (   0.0555556   0.2222222   0.2608696), wk =   0.0042941
        k(  164) = (   0.0555556   0.2222222   0.3043478), wk =   0.0042941
        k(  165) = (   0.0555556   0.2222222   0.3478261), wk =   0.0042941
        k(  166) = (   0.0555556   0.2222222   0.3913043), wk =   0.0042941
        k(  167) = (   0.0555556   0.2222222   0.4347826), wk =   0.0042941
        k(  168) = (   0.0555556   0.2222222   0.4782609), wk =   0.0042941
        k(  169) = (   0.0555556   0.2777778   0.0000000), wk =   0.0021471
        k(  170) = (   0.0555556   0.2777778   0.0434783), wk =   0.0042941
        k(  171) = (   0.0555556   0.2777778   0.0869565), wk =   0.0042941
        k(  172) = (   0.0555556   0.2777778   0.1304348), wk =   0.0042941
        k(  173) = (   0.0555556   0.2777778   0.1739130), wk =   0.0042941
        k(  174) = (   0.0555556   0.2777778   0.2173913), wk =   0.0042941
        k(  175) = (   0.0555556   0.2777778   0.2608696), wk =   0.0042941
        k(  176) = (   0.0555556   0.2777778   0.3043478), wk =   0.0042941
        k(  177) = (   0.0555556   0.2777778   0.3478261), wk =   0.0042941
        k(  178) = (   0.0555556   0.2777778   0.3913043), wk =   0.0042941
        k(  179) = (   0.0555556   0.2777778   0.4347826), wk =   0.0042941
        k(  180) = (   0.0555556   0.2777778   0.4782609), wk =   0.0042941
        k(  181) = (   0.0555556   0.3333333   0.0000000), wk =   0.0021471
        k(  182) = (   0.0555556   0.3333333   0.0434783), wk =   0.0042941
        k(  183) = (   0.0555556   0.3333333   0.0869565), wk =   0.0042941
        k(  184) = (   0.0555556   0.3333333   0.1304348), wk =   0.0042941
        k(  185) = (   0.0555556   0.3333333   0.1739130), wk =   0.0042941
        k(  186) = (   0.0555556   0.3333333   0.2173913), wk =   0.0042941
        k(  187) = (   0.0555556   0.3333333   0.2608696), wk =   0.0042941
        k(  188) = (   0.0555556   0.3333333   0.3043478), wk =   0.0042941
        k(  189) = (   0.0555556   0.3333333   0.3478261), wk =   0.0042941
        k(  190) = (   0.0555556   0.3333333   0.3913043), wk =   0.0042941
        k(  191) = (   0.0555556   0.3333333   0.4347826), wk =   0.0042941
        k(  192) = (   0.0555556   0.3333333   0.4782609), wk =   0.0042941
        k(  193) = (   0.0555556   0.3888889   0.0000000), wk =   0.0021471
        k(  194) = (   0.0555556   0.3888889   0.0434783), wk =   0.0042941
        k(  195) = (   0.0555556   0.3888889   0.0869565), wk =   0.0042941
        k(  196) = (   0.0555556   0.3888889   0.1304348), wk =   0.0042941
        k(  197) = (   0.0555556   0.3888889   0.1739130), wk =   0.0042941
        k(  198) = (   0.0555556   0.3888889   0.2173913), wk =   0.0042941
        k(  199) = (   0.0555556   0.3888889   0.2608696), wk =   0.0042941
        k(  200) = (   0.0555556   0.3888889   0.3043478), wk =   0.0042941
        k(  201) = (   0.0555556   0.3888889   0.3478261), wk =   0.0042941
        k(  202) = (   0.0555556   0.3888889   0.3913043), wk =   0.0042941
        k(  203) = (   0.0555556   0.3888889   0.4347826), wk =   0.0042941
        k(  204) = (   0.0555556   0.3888889   0.4782609), wk =   0.0042941
        k(  205) = (   0.0555556   0.4444444   0.0000000), wk =   0.0021471
        k(  206) = (   0.0555556   0.4444444   0.0434783), wk =   0.0042941
        k(  207) = (   0.0555556   0.4444444   0.0869565), wk =   0.0042941
        k(  208) = (   0.0555556   0.4444444   0.1304348), wk =   0.0042941
        k(  209) = (   0.0555556   0.4444444   0.1739130), wk =   0.0042941
        k(  210) = (   0.0555556   0.4444444   0.2173913), wk =   0.0042941
        k(  211) = (   0.0555556   0.4444444   0.2608696), wk =   0.0042941
        k(  212) = (   0.0555556   0.4444444   0.3043478), wk =   0.0042941
        k(  213) = (   0.0555556   0.4444444   0.3478261), wk =   0.0042941
        k(  214) = (   0.0555556   0.4444444   0.3913043), wk =   0.0042941
        k(  215) = (   0.0555556   0.4444444   0.4347826), wk =   0.0042941
        k(  216) = (   0.0555556   0.4444444   0.4782609), wk =   0.0042941
        k(  217) = (   0.0555556  -0.5000000   0.0000000), wk =   0.0010735
        k(  218) = (   0.0555556  -0.5000000   0.0434783), wk =   0.0021471
        k(  219) = (   0.0555556  -0.5000000   0.0869565), wk =   0.0021471
        k(  220) = (   0.0555556  -0.5000000   0.1304348), wk =   0.0021471
        k(  221) = (   0.0555556  -0.5000000   0.1739130), wk =   0.0021471
        k(  222) = (   0.0555556  -0.5000000   0.2173913), wk =   0.0021471
        k(  223) = (   0.0555556  -0.5000000   0.2608696), wk =   0.0021471
        k(  224) = (   0.0555556  -0.5000000   0.3043478), wk =   0.0021471
        k(  225) = (   0.0555556  -0.5000000   0.3478261), wk =   0.0021471
        k(  226) = (   0.0555556  -0.5000000   0.3913043), wk =   0.0021471
        k(  227) = (   0.0555556  -0.5000000   0.4347826), wk =   0.0021471
        k(  228) = (   0.0555556  -0.5000000   0.4782609), wk =   0.0021471
        k(  229) = (   0.1111111   0.1111111   0.0000000), wk =   0.0010735
        k(  230) = (   0.1111111   0.1111111   0.0434783), wk =   0.0021471
        k(  231) = (   0.1111111   0.1111111   0.0869565), wk =   0.0021471
        k(  232) = (   0.1111111   0.1111111   0.1304348), wk =   0.0021471
        k(  233) = (   0.1111111   0.1111111   0.1739130), wk =   0.0021471
        k(  234) = (   0.1111111   0.1111111   0.2173913), wk =   0.0021471
        k(  235) = (   0.1111111   0.1111111   0.2608696), wk =   0.0021471
        k(  236) = (   0.1111111   0.1111111   0.3043478), wk =   0.0021471
        k(  237) = (   0.1111111   0.1111111   0.3478261), wk =   0.0021471
        k(  238) = (   0.1111111   0.1111111   0.3913043), wk =   0.0021471
        k(  239) = (   0.1111111   0.1111111   0.4347826), wk =   0.0021471
        k(  240) = (   0.1111111   0.1111111   0.4782609), wk =   0.0021471
        k(  241) = (   0.1111111   0.1666667   0.0000000), wk =   0.0021471
        k(  242) = (   0.1111111   0.1666667   0.0434783), wk =   0.0042941
        k(  243) = (   0.1111111   0.1666667   0.0869565), wk =   0.0042941
        k(  244) = (   0.1111111   0.1666667   0.1304348), wk =   0.0042941
        k(  245) = (   0.1111111   0.1666667   0.1739130), wk =   0.0042941
        k(  246) = (   0.1111111   0.1666667   0.2173913), wk =   0.0042941
        k(  247) = (   0.1111111   0.1666667   0.2608696), wk =   0.0042941
        k(  248) = (   0.1111111   0.1666667   0.3043478), wk =   0.0042941
[...]
    16.6235  16.6288

     occupation numbers 
     1.0000   1.0000   1.0000   1.0000   0.0000   0.0000   0.0000   0.0000
     0.0000   0.0000

          k = 0.3889 0.4444 0.0577 (   714 PWs)   bands (ev):

     1.0220   1.9989   2.9671   3.9270  14.3334  15.0795  15.9712  16.0566
    16.4694  16.9651

     occupation numbers 
     1.0000   1.0000   1.0000   1.0000   0.0000   0.0000   0.0000   0.0000
     0.0000   0.0000

          k = 0.3889 0.4444 0.1154 (   713 PWs)   bands (ev):

     1.1101   2.0861   3.0533   4.0118  13.3490  14.1689  15.0670  16.0297
    16.2171  16.7335

     occupation numbers 
     1.0000   1.0000   1.0000   1.0000   0.0000   0.0000   0.0000   0.0000
     0.0000   0.0000

          k = 0.3889 0.4444 0.1731 (   710 PWs)   bands (ev):

     1.2568   2.2312   3.1966   4.1527  12.3190  13.1793  14.0821  15.0222
    16.3738  16.9127

     occupation numbers 
     1.0000   1.0000   1.0000   1.0000   0.0000   0.0000   0.0000   0.0000
     0.0000   0.0000

          k = 0.3889 0.4444 0.2309 (   706 PWs)   bands (ev):

     1.4617   2.4340   3.3966   4.3488  11.3024  12.1835  13.0900  14.0192
    16.5650  17.1079

     occupation numbers 
     1.0000   1.0000   1.0000   1.0000   0.1300   0.0000   0.0000   0.0000
     0.0000   0.0000

          k = 0.3889 0.4444 0.2886 (   706 PWs)   bands (ev):

     1.7246   2.6938   3.6524   4.5985  10.3191  11.2105  12.1197  13.0440
    16.8005  17.3418

     occupation numbers 
     1.0000   1.0000   1.0000   1.0000   1.0000   0.5118   0.0000   0.0000
     0.0000   0.0000

          k = 0.3889 0.4444 0.3463 (   714 PWs)   bands (ev):

     2.0448   3.0098   3.9627   4.8983   9.3809  10.2745  11.1849  12.1068
    17.0823  17.6205

     occupation numbers 
     1.0000   1.0000   1.0000   1.0000   1.0000   1.0000   0.6536   0.0000
     0.0000   0.0000

          k = 0.3889 0.4444 0.4040 (   713 PWs)   bands (ev):

     2.4215   3.3810   4.3250   5.2402   8.5007   9.3845  10.2932  11.2137
    17.4097  17.9455

     occupation numbers 
     1.0000   1.0000   1.0000   1.0000   1.0000   1.0000   1.0000   0.4950
     0.0000   0.0000

          k = 0.3889 0.4444 0.4617 (   714 PWs)   bands (ev):

     2.8537   3.8052   4.7339   5.5977   7.7075   8.5497   9.4505  10.3684
    17.7796  18.3166

     occupation numbers 
     1.0000   1.0000   1.0000   1.0000   1.0000   1.0000   1.0000   1.0000
     0.0000   0.0000

          k = 0.3889 0.4444 0.5194 (   718 PWs)   bands (ev):

     3.3395   4.2786   5.1741   5.8480   7.1260   7.7873   8.6628   9.5747
    18.1848  18.7322

     occupation numbers 
     1.0000   1.0000   1.0000   1.0000   1.0000   1.0000   1.0000   1.0000
     0.0000   0.0000

          k = 0.3889 0.4444 0.5771 (   710 PWs)   bands (ev):

     3.8760   4.7916   5.5865   5.6284   7.1202   7.1582   7.9409   8.8365
    18.6092  19.1888

     occupation numbers 
     1.0000   1.0000   1.0000   1.0000   1.0000   1.0000   1.0000   1.0000
     0.0000   0.0000

          k = 0.3889 0.4444 0.6348 (   717 PWs)   bands (ev):

     4.4569   5.0645   5.3138   5.6995   6.9346   7.3163   7.5651   8.1607
    19.0096  19.2661

     occupation numbers 
     1.0000   1.0000   1.0000   1.0000   1.0000   1.0000   1.0000   1.0000
     0.0000   0.0000

          k = 0.3889-0.5000 0.0000 (   708 PWs)   bands (ev):

     1.4552   1.4552   3.3930   3.3931  15.3206  15.3208  15.9609  15.9610
    17.0271  17.0272

     occupation numbers 
     1.0000   1.0000   1.0000   1.0000   0.0000   0.0000   0.0000   0.0000
     0.0000   0.0000

          k = 0.3889-0.5000 0.0577 (   708 PWs)   bands (ev):

     1.4844   1.4844   3.4216   3.4216  14.7154  14.7155  16.2425  16.2426
    16.4785  16.4786

     occupation numbers 
     1.0000   1.0000   1.0000   1.0000   0.0000   0.0000   0.0000   0.0000
     0.0000   0.0000

          k = 0.3889-0.5000 0.1154 (   710 PWs)   bands (ev):

     1.5721   1.5721   3.5072   3.5072  13.7486  13.7486  15.5387  15.5388
    16.4768  16.4769

     occupation numbers 
     1.0000   1.0000   1.0000   1.0000   0.0000   0.0000   0.0000   0.0000
     0.0000   0.0000

          k = 0.3889-0.5000 0.1731 (   712 PWs)   bands (ev):

     1.7181   1.7181   3.6494   3.6494  12.7312  12.7312  14.5349  14.5349
    16.6625  16.6626

     occupation numbers 
     1.0000   1.0000   1.0000   1.0000   0.0000   0.0000   0.0000   0.0000
     0.0000   0.0000

          k = 0.3889-0.5000 0.2309 (   704 PWs)   bands (ev):

     1.9220   1.9221   3.8477   3.8478  11.7215  11.7216  13.5339  13.5340
    16.8656  16.8656

     occupation numbers 
     1.0000   1.0000   1.0000   1.0000   0.0000   0.0000   0.0000   0.0000
     0.0000   0.0000

          k = 0.3889-0.5000 0.2886 (   704 PWs)   bands (ev):

     2.1835   2.1835   4.1010   4.1010  10.7413  10.7414  12.5594  12.5594
    17.1064  17.1065

     occupation numbers 
     1.0000   1.0000   1.0000   1.0000   1.0001   1.0001   0.0000   0.0000
     0.0000   0.0000

          k = 0.3889-0.5000 0.3463 (   712 PWs)   bands (ev):

     2.5019   2.5019   4.4072   4.4072   9.8023   9.8023  11.6223  11.6223
    17.3910  17.3910

     occupation numbers 
     1.0000   1.0000   1.0000   1.0000   1.0000   1.0000   0.0000   0.0000
     0.0000   0.0000

          k = 0.3889-0.5000 0.4040 (   718 PWs)   bands (ev):

     2.8762   2.8762   4.7620   4.7620   8.9138   8.9139  10.7290  10.7290
    17.7207  17.7207

     occupation numbers 
     1.0000   1.0000   1.0000   1.0000   1.0000   1.0000   1.0000   1.0000
     0.0000   0.0000

          k = 0.3889-0.5000 0.4617 (   716 PWs)   bands (ev):

     3.3049   3.3050   5.1545   5.1545   8.0901   8.0902   9.8841   9.8842
    18.0949  18.0949

     occupation numbers 
     1.0000   1.0000   1.0000   1.0000   1.0000   1.0000   1.0000   1.0000
     0.0000   0.0000

          k = 0.3889-0.5000 0.5194 (   716 PWs)   bands (ev):

     3.7857   3.7858   5.5457   5.5457   7.3720   7.3721   9.0920   9.0921
    18.5100  18.5101

     occupation numbers 
     1.0000   1.0000   1.0000   1.0000   1.0000   1.0000   1.0000   1.0000
     0.0000   0.0000

          k = 0.3889-0.5000 0.5771 (   712 PWs)   bands (ev):

     4.3136   4.3136   5.7466   5.7466   6.9499   6.9500   8.3588   8.3589
    18.9587  18.9588

     occupation numbers 
     1.0000   1.0000   1.0000   1.0000   1.0000   1.0000   1.0000   1.0000
     0.0000   0.0000

          k = 0.3889-0.5000 0.6348 (   718 PWs)   bands (ev):

     4.8758   4.8759   5.4266   5.4266   7.1550   7.1551   7.6978   7.6978
    19.4220  19.4221

     occupation numbers 
     1.0000   1.0000   1.0000   1.0000   1.0000   1.0000   1.0000   1.0000
     0.0000   0.0000

          k = 0.4444 0.4444 0.0000 (   714 PWs)   bands (ev):

     1.4010   2.3747   2.3748   3.3401  15.2738  16.1268  16.1268  16.8305
    16.9805  17.3644

     occupation numbers 
     1.0000   1.0000   1.0000   1.0000   0.0000   0.0000   0.0000   0.0000
     0.0000   0.0000

          k = 0.4444 0.4444 0.0577 (   712 PWs)   bands (ev):

     1.4302   2.4037   2.4037   3.3687  14.7097  15.5497  15.5497  16.4647
    17.0807  17.0813

     occupation numbers 
     1.0000   1.0000   1.0000   1.0000   0.0000   0.0000   0.0000   0.0000
     0.0000   0.0000

          k = 0.4444 0.4444 0.1154 (   712 PWs)   bands (ev):

     1.5180   2.4905   2.4905   3.4543  13.7300  14.5956  14.5956  15.5172
    17.3010  17.3010

     occupation numbers 
     1.0000   1.0000   1.0000   1.0000   0.0000   0.0000   0.0000   0.0000
     0.0000   0.0000

          k = 0.4444 0.4444 0.1731 (   708 PWs)   bands (ev):

     1.6640   2.6349   2.6349   3.5966  12.7001  13.5844  13.5844  14.5031
    17.4808  17.5854

     occupation numbers 
     1.0000   1.0000   1.0000   1.0000   0.0000   0.0000   0.0000   0.0000
     0.0000   0.0000

          k = 0.4444 0.4444 0.2309 (   702 PWs)   bands (ev):

     1.8681   2.8365   2.8365   3.7951  11.6829  12.5785  12.5785  13.4956
    17.6796  17.7570

     occupation numbers 
     1.0000   1.0000   1.0000   1.0000   0.0000   0.0000   0.0000   0.0000
     0.0000   0.0000

          k = 0.4444 0.4444 0.2886 (   708 PWs)   bands (ev):

     2.1297   3.0947   3.0947   4.0485  10.6982  11.6001  11.6001  12.5171
    17.9156  17.9773

     occupation numbers 
     1.0000   1.0000   1.0000   1.0000   1.0000   0.0000   0.0000   0.0000
     0.0000   0.0000

          k = 0.4444 0.4444 0.3463 (   709 PWs)   bands (ev):

     2.4483   3.4085   3.4085   4.3549   9.7563  10.6604  10.6605  11.5774
    18.1938  18.2456

     occupation numbers 
     1.0000   1.0000   1.0000   1.0000   1.0000   1.0000   1.0000   0.0000
     0.0000   0.0000

          k = 0.4444 0.4444 0.4040 (   711 PWs)   bands (ev):

     2.8228   3.7763   3.7763   4.7100   8.8659   9.7663   9.7664  10.6824
    18.5139  18.5610

     occupation numbers 
     1.0000   1.0000   1.0000   1.0000   1.0000   1.0000   1.0000   1.0000
     0.0000   0.0000

          k = 0.4444 0.4444 0.4617 (   715 PWs)   bands (ev):

     3.2518   4.1948   4.1948   5.1028   8.0409   8.9241   8.9241   9.8363
    18.8716  18.9223

     occupation numbers 
     1.0000   1.0000   1.0000   1.0000   1.0000   1.0000   1.0000   1.0000
     0.0000   0.0000

          k = 0.4444 0.4444 0.5194 (   719 PWs)   bands (ev):

     3.7329   4.6570   4.6571   5.4943   7.3219   8.1427   8.1428   9.0432
    19.2558  19.3262

     occupation numbers 
     1.0000   1.0000   1.0000   1.0000   1.0000   1.0000   1.0000   1.0000
     0.0000   0.0000

          k = 0.4444 0.4444 0.5771 (   712 PWs)   bands (ev):

     4.2611   5.1419   5.1419   5.6954   6.8991   7.4446   7.4447   8.3092
    19.6351  19.7663

     occupation numbers 
     1.0000   1.0000   1.0000   1.0000   1.0000   1.0000   1.0000   1.0000
     0.0000   0.0000

          k = 0.4444 0.4444 0.6348 (   718 PWs)   bands (ev):

     4.8238   5.3750   5.5564   5.5564   6.9233   6.9233   7.1044   7.6476
    19.9167  19.9168

     occupation numbers 
     1.0000   1.0000   1.0000   1.0000   1.0000   1.0000   1.0000   1.0000
     0.0000   0.0000

          k = 0.4444-0.5000 0.0000 (   714 PWs)   bands (ev):

     1.8619   1.8620   2.8318   2.8318  15.6767  15.6769  16.5301  16.5303
    16.9805  16.9805

     occupation numbers 
     1.0000   1.0000   1.0000   1.0000   0.0000   0.0000   0.0000   0.0000
     0.0000   0.0000

          k = 0.4444-0.5000 0.0577 (   710 PWs)   bands (ev):

     1.8911   1.8911   2.8606   2.8606  15.1168  15.1168  15.9952  15.9953
    17.2636  17.2637

     occupation numbers 
     1.0000   1.0000   1.0000   1.0000   0.0000   0.0000   0.0000   0.0000
     0.0000   0.0000

          k = 0.4444-0.5000 0.1154 (   706 PWs)   bands (ev):

     1.9784   1.9784   2.9468   2.9468  14.1462  14.1463  15.0405  15.0405
    17.4987  17.4989

     occupation numbers 
     1.0000   1.0000   1.0000   1.0000   0.0000   0.0000   0.0000   0.0000
     0.0000   0.0000

          k = 0.4444-0.5000 0.1731 (   712 PWs)   bands (ev):

     2.1237   2.1237   3.0903   3.0903  13.1223  13.1223  14.0242  14.0242
    17.6700  17.6701

     occupation numbers 
     1.0000   1.0000   1.0000   1.0000   0.0000   0.0000   0.0000   0.0000
     0.0000   0.0000

          k = 0.4444-0.5000 0.2309 (   706 PWs)   bands (ev):

     2.3266   2.3267   3.2905   3.2906  12.1086  12.1087  13.0154  13.0154
    17.8612  17.8614

     occupation numbers 
     1.0000   1.0000   1.0000   1.0000   0.0000   0.0000   0.0000   0.0000
     0.0000   0.0000

          k = 0.4444-0.5000 0.2886 (   706 PWs)   bands (ev):

     2.5867   2.5868   3.5467   3.5467  11.1256  11.1257  12.0356  12.0356
    18.0917  18.0919

     occupation numbers 
     1.0000   1.0000   1.0000   1.0000   0.9375   0.9374   0.0000   0.0000
     0.0000   0.0000

          k = 0.4444-0.5000 0.3463 (   708 PWs)   bands (ev):

     2.9032   2.9032   3.8574   3.8574  10.1835  10.1836  11.0949  11.0950
    18.3662  18.3664

     occupation numbers 
     1.0000   1.0000   1.0000   1.0000   1.0000   1.0000   1.0283   1.0283
     0.0000   0.0000

          k = 0.4444-0.5000 0.4040 (   708 PWs)   bands (ev):

     3.2748   3.2748   4.2202   4.2202   9.2895   9.2896  10.1994  10.1995
    18.6853  18.6853

     occupation numbers 
     1.0000   1.0000   1.0000   1.0000   1.0000   1.0000   1.0000   1.0000
     0.0000   0.0000

          k = 0.4444-0.5000 0.4617 (   716 PWs)   bands (ev):

     3.6995   3.6996   4.6296   4.6296   8.4519   8.4519   9.3540   9.3541
    19.0467  19.0468

     occupation numbers 
     1.0000   1.0000   1.0000   1.0000   1.0000   1.0000   1.0000   1.0000
     0.0000   0.0000

          k = 0.4444-0.5000 0.5194 (   720 PWs)   bands (ev):

     4.1735   4.1735   5.0705   5.0705   7.6874   7.6875   8.5643   8.5644
    19.4453  19.4454

     occupation numbers 
     1.0000   1.0000   1.0000   1.0000   1.0000   1.0000   1.0000   1.0000
     0.0000   0.0000

          k = 0.4444-0.5000 0.5771 (   716 PWs)   bands (ev):

     4.6873   4.6874   5.4836   5.4836   7.0567   7.0568   7.8409   7.8410
    19.8676  19.8676

     occupation numbers 
     1.0000   1.0000   1.0000   1.0000   1.0000   1.0000   1.0000   1.0000
     0.0000   0.0000

          k = 0.4444-0.5000 0.6348 (   722 PWs)   bands (ev):

     5.2104   5.2104   5.5969   5.5970   6.8324   6.8325   7.2149   7.2150
    20.2744  20.2744

     occupation numbers 
     1.0000   1.0000   1.0000   1.0000   1.0000   1.0000   1.0000   1.0000
     0.0000   0.0000

          k =-0.5000-0.5000 0.0000 (   720 PWs)   bands (ev):

     2.3211   2.3211   2.3211   2.3211  16.0799  16.0800  16.0801  16.0802
    18.1531  18.1534

     occupation numbers 
     1.0000   1.0000   1.0000   1.0000   0.0000   0.0000   0.0000   0.0000
     0.0000   0.0000

          k =-0.5000-0.5000 0.0577 (   712 PWs)   bands (ev):

     2.3500   2.3500   2.3500   2.3501  15.5400  15.5400  15.5400  15.5401
    18.1777  18.1781

     occupation numbers 
     1.0000   1.0000   1.0000   1.0000   0.0000   0.0000   0.0000   0.0000
     0.0000   0.0000

          k =-0.5000-0.5000 0.1154 (   704 PWs)   bands (ev):

     2.4369   2.4369   2.4369   2.4369  14.5756  14.5756  14.5756  14.5756
    18.2512  18.2513

     occupation numbers 
     1.0000   1.0000   1.0000   1.0000   0.0000   0.0000   0.0000   0.0000
     0.0000   0.0000

          k =-0.5000-0.5000 0.1731 (   712 PWs)   bands (ev):

     2.5813   2.5814   2.5814   2.5814  13.5529  13.5529  13.5529  13.5530
    18.3730  18.3732

     occupation numbers 
     1.0000   1.0000   1.0000   1.0000   0.0000   0.0000   0.0000   0.0000
     0.0000   0.0000

          k =-0.5000-0.5000 0.2309 (   712 PWs)   bands (ev):

     2.7831   2.7831   2.7831   2.7832  12.5399  12.5399  12.5399  12.5399
    18.5434  18.5435

     occupation numbers 
     1.0000   1.0000   1.0000   1.0000   0.0000   0.0000   0.0000   0.0000
     0.0000   0.0000

          k =-0.5000-0.5000 0.2886 (   712 PWs)   bands (ev):

     3.0415   3.0415   3.0415   3.0415  11.5573  11.5573  11.5573  11.5573
    18.7611  18.7614

     occupation numbers 
     1.0000   1.0000   1.0000   1.0000   0.0000   0.0000   0.0000   0.0000
     0.0000   0.0000

          k =-0.5000-0.5000 0.3463 (   704 PWs)   bands (ev):

     3.3555   3.3555   3.3555   3.3555  10.6148  10.6149  10.6149  10.6149
    19.0257  19.0260

     occupation numbers 
     1.0000   1.0000   1.0000   1.0000   1.0000   1.0000   1.0000   1.0000
     0.0000   0.0000

          k =-0.5000-0.5000 0.4040 (   712 PWs)   bands (ev):

     3.7234   3.7235   3.7235   3.7235   9.7189   9.7189   9.7189   9.7190
    19.3346  19.3349

     occupation numbers 
     1.0000   1.0000   1.0000   1.0000   1.0000   1.0000   1.0000   1.0000
     0.0000   0.0000

          k =-0.5000-0.5000 0.4617 (   712 PWs)   bands (ev):

     4.1423   4.1423   4.1423   4.1423   8.8753   8.8754   8.8754   8.8755
    19.6836  19.6838

     occupation numbers 
     1.0000   1.0000   1.0000   1.0000   1.0000   1.0000   1.0000   1.0000
     0.0000   0.0000

          k =-0.5000-0.5000 0.5194 (   716 PWs)   bands (ev):

     4.6048   4.6048   4.6048   4.6049   8.0930   8.0930   8.0930   8.0931
    20.0625  20.0626

     occupation numbers 
     1.0000   1.0000   1.0000   1.0000   1.0000   1.0000   1.0000   1.0000
     0.0000   0.0000

          k =-0.5000-0.5000 0.5771 (   716 PWs)   bands (ev):

     5.0900   5.0900   5.0901   5.0901   7.3941   7.3941   7.3941   7.3942
    20.4427  20.4428

     occupation numbers 
     1.0000   1.0000   1.0000   1.0000   1.0000   1.0000   1.0000   1.0000
     0.0000   0.0000

          k =-0.5000-0.5000 0.6348 (   720 PWs)   bands (ev):

     5.5050   5.5050   5.5050   5.5050   6.8720   6.8721   6.8721   6.8723
    20.7330  20.7330

     occupation numbers 
     1.0000   1.0000   1.0000   1.0000   1.0000   1.0000   1.0000   1.0000
     0.0000   0.0000

     the Fermi energy is    11.2317 ev

!    total energy              =     -26.67227359 Ry
     Harris-Foulkes estimate   =     -26.67227363 Ry
     estimated scf accuracy    <       0.00000007 Ry

     The total energy is the sum of the following terms:

     one-electron contribution =      14.89864600 Ry
     hartree contribution      =       0.04884408 Ry
     xc contribution           =     -17.85301892 Ry
     ewald contribution        =     -23.76671067 Ry
     smearing contrib. (-TS)   =      -0.00003408 Ry

     convergence has been achieved in   5 iterations
 
     init_run     :    178.27s CPU     35.91s WALL (       1 calls)
     electrons    :   2258.27s CPU    482.78s WALL (       1 calls)

     Called by init_run:
     wfcinit      :    177.77s CPU     35.28s WALL (       1 calls)
     wfcinit:atom :      0.68s CPU      0.12s WALL (     660 calls)
     wfcinit:wfcr :    173.99s CPU     34.63s WALL (     660 calls)
     potinit      :      0.09s CPU      0.06s WALL (       1 calls)

     Called by electrons:
     c_bands      :   2060.71s CPU    442.70s WALL (       6 calls)
     sum_band     :    196.13s CPU     39.80s WALL (       6 calls)
     v_of_rho     :      0.59s CPU      0.13s WALL (       6 calls)
     v_h          :      0.01s CPU      0.00s WALL (       6 calls)
     v_xc         :      0.59s CPU      0.13s WALL (       6 calls)
     newd         :      0.71s CPU      0.14s WALL (       6 calls)
     mix_rho      :      0.13s CPU      0.03s WALL (       6 calls)

     Called by c_bands:
     init_us_2    :     12.41s CPU      2.24s WALL (    8580 calls)
     cegterg      :   2032.27s CPU    437.67s WALL (    3960 calls)

     Called by sum_band:
     sum_band:bec :      0.51s CPU      0.09s WALL (    3960 calls)
     addusdens    :      0.48s CPU      0.10s WALL (       6 calls)

     Called by *egterg:
     h_psi        :   1637.39s CPU    349.00s WALL (   13577 calls)
     s_psi        :    112.36s CPU     23.66s WALL (   13577 calls)
     g_psi        :      2.10s CPU      0.37s WALL (    8957 calls)
     cdiaghg      :     70.98s CPU     14.45s WALL (   12257 calls)
     cegterg:over :    106.07s CPU     26.96s WALL (    8957 calls)
     cegterg:upda :    147.60s CPU     31.32s WALL (    8957 calls)
     cegterg:last :     45.17s CPU      9.65s WALL (    3963 calls)

     Called by h_psi:
     h_psi:pot    :   1634.79s CPU    348.52s WALL (   13577 calls)
     h_psi:calbec :    194.12s CPU     41.80s WALL (   13577 calls)
     vloc_psi     :   1302.62s CPU    277.58s WALL (   13577 calls)
     add_vuspsi   :    136.36s CPU     28.86s WALL (   13577 calls)

     General routines
     calbec       :    333.61s CPU     71.33s WALL (   17537 calls)
     fft          :      0.72s CPU      0.19s WALL (      80 calls)
     fftw         :   1314.24s CPU    279.71s WALL (  259052 calls)
 
     Parallel routines
 
     PWSCF        : 40m36.79s CPU     8m38.77s WALL

 
   This run was terminated on:  17: 8:51  24Jan2019            

=------------------------------------------------------------------------------=
   JOB DONE.
=------------------------------------------------------------------------------=
