
     Program PWSCF v.6.2 (svn rev. 14038) starts on 24Jan2019 at 17: 0:41 

     This program is part of the open-source Quantum ESPRESSO suite
     for quantum simulation of materials; please cite
         "P. Giannozzi et al., J. Phys.:Condens. Matter 21 395502 (2009);
         "P. Giannozzi et al., J. Phys.:Condens. Matter 29 465901 (2017);
          URL http://www.quantum-espresso.org", 
     in publications or presentations arising from this work. More details at
     http://www.quantum-espresso.org/quote

     Parallel version (MPI), running on     1 processors

     MPI processes distributed on     1 nodes
     Reading input from ./AlfccSEPNEG0DOT27747778624432345.in
Warning: card &IONS ignored
Warning: card / ignored
Warning: card &CELL ignored
Warning: card / ignored

     Current dimensions of program PWSCF are:
     Max number of different atomic species (ntypx) = 10
     Max number of k-points (npk) =  40000
     Max angular momentum in pseudopotentials (lmaxx) =  3
     Message from routine iosys:
     minimal I/O required, wf_collect reset to FALSE

     Subspace diagonalization in iterative solution of the eigenvalue problem:
     a serial algorithm will be used

     Found symmetry operation: I + ( -0.5000 -0.5000  0.0000)
     This is a supercell, fractional translations are disabled
 
     G-vector sticks info
     --------------------
     sticks:   dense  smooth     PW     G-vecs:    dense   smooth      PW
     Sum         465     465    149                 5409     5409    1047
 


     bravais-lattice index     =            0
     lattice parameter (alat)  =       7.6325  a.u.
     unit-cell volume          =     321.2526 (a.u.)^3
     number of atoms/cell      =            4
     number of atomic types    =            1
     number of electrons       =        12.00
     number of Kohn-Sham states=           10
     kinetic-energy cutoff     =      25.0000  Ry
     charge density cutoff     =     100.0000  Ry
     convergence threshold     =      1.0E-07
     mixing beta               =       0.7000
     number of iterations used =            8  plain     mixing
     Exchange-correlation      = SLA  PW   PBE  PBE ( 1  4  3  4 0 0)

     celldm(1)=   7.632472  celldm(2)=   0.000000  celldm(3)=   0.000000
     celldm(4)=   0.000000  celldm(5)=   0.000000  celldm(6)=   0.000000

     crystal axes: (cart. coord. in units of alat)
               a(1) = (   1.000000   0.000000   0.000000 )  
               a(2) = (   0.000000   1.000000   0.000000 )  
               a(3) = (   0.000000   0.000000   0.722522 )  

     reciprocal axes: (cart. coord. in units 2 pi/alat)
               b(1) = (  1.000000  0.000000  0.000000 )  
               b(2) = (  0.000000  1.000000  0.000000 )  
               b(3) = (  0.000000  0.000000  1.384041 )  


     PseudoPot. # 1 for Al read from file:
     ./al_pbe_v1.uspp.F.UPF
     MD5 check sum: 0a6289f5291fc8f409219462bc851e1f
     Pseudo is Ultrasoft + core correction, Zval =  3.0
     Generated by new atomic code, or converted to UPF format
     Using radial grid of  893 points,  3 beta functions with: 
                l(1) =   0
                l(2) =   1
                l(3) =   2
     Q(r) pseudized with  8 coefficients,  rinner =    0.900   0.900   0.900
                                                       0.900   0.900

     atomic species   valence    mass     pseudopotential
        Al             3.00    26.98150     Al( 1.00)

     16 Sym. Ops., with inversion, found


                                    s                        frac. trans.

      isym =  1     identity                                     

 cryst.   s( 1) = (     1          0          0      )
                  (     0          1          0      )
                  (     0          0          1      )

 cart.    s( 1) = (  1.0000000  0.0000000  0.0000000 )
                  (  0.0000000  1.0000000  0.0000000 )
                  (  0.0000000  0.0000000  1.0000000 )


      isym =  2     180 deg rotation - cart. axis [0,0,1]        

 cryst.   s( 2) = (    -1          0          0      )
                  (     0         -1          0      )
                  (     0          0          1      )

 cart.    s( 2) = ( -1.0000000  0.0000000  0.0000000 )
                  (  0.0000000 -1.0000000  0.0000000 )
                  (  0.0000000  0.0000000  1.0000000 )


      isym =  3     180 deg rotation - cart. axis [0,1,0]        

 cryst.   s( 3) = (    -1          0          0      )
                  (     0          1          0      )
                  (     0          0         -1      )

 cart.    s( 3) = ( -1.0000000  0.0000000  0.0000000 )
                  (  0.0000000  1.0000000  0.0000000 )
                  (  0.0000000  0.0000000 -1.0000000 )


      isym =  4     180 deg rotation - cart. axis [1,0,0]        

 cryst.   s( 4) = (     1          0          0      )
                  (     0         -1          0      )
                  (     0          0         -1      )

 cart.    s( 4) = (  1.0000000  0.0000000  0.0000000 )
                  (  0.0000000 -1.0000000  0.0000000 )
                  (  0.0000000  0.0000000 -1.0000000 )


      isym =  5     180 deg rotation - cart. axis [1,1,0]        

 cryst.   s( 5) = (     0          1          0      )
                  (     1          0          0      )
                  (     0          0         -1      )

 cart.    s( 5) = (  0.0000000  1.0000000  0.0000000 )
                  (  1.0000000  0.0000000  0.0000000 )
                  (  0.0000000  0.0000000 -1.0000000 )


      isym =  6     180 deg rotation - cart. axis [1,-1,0]       

 cryst.   s( 6) = (     0         -1          0      )
                  (    -1          0          0      )
                  (     0          0         -1      )

 cart.    s( 6) = (  0.0000000 -1.0000000  0.0000000 )
                  ( -1.0000000  0.0000000  0.0000000 )
                  (  0.0000000  0.0000000 -1.0000000 )


      isym =  7      90 deg rotation - cart. axis [0,0,-1]       

 cryst.   s( 7) = (     0         -1          0      )
                  (     1          0          0      )
                  (     0          0          1      )

 cart.    s( 7) = (  0.0000000  1.0000000  0.0000000 )
                  ( -1.0000000  0.0000000  0.0000000 )
                  (  0.0000000  0.0000000  1.0000000 )


      isym =  8      90 deg rotation - cart. axis [0,0,1]        

 cryst.   s( 8) = (     0          1          0      )
                  (    -1          0          0      )
                  (     0          0          1      )

 cart.    s( 8) = (  0.0000000 -1.0000000  0.0000000 )
                  (  1.0000000  0.0000000  0.0000000 )
                  (  0.0000000  0.0000000  1.0000000 )


      isym =  9     inversion                                    

 cryst.   s( 9) = (    -1          0          0      )
                  (     0         -1          0      )
                  (     0          0         -1      )

 cart.    s( 9) = ( -1.0000000  0.0000000  0.0000000 )
                  (  0.0000000 -1.0000000  0.0000000 )
                  (  0.0000000  0.0000000 -1.0000000 )


      isym = 10     inv. 180 deg rotation - cart. axis [0,0,1]   

 cryst.   s(10) = (     1          0          0      )
                  (     0          1          0      )
                  (     0          0         -1      )

 cart.    s(10) = (  1.0000000  0.0000000  0.0000000 )
                  (  0.0000000  1.0000000  0.0000000 )
                  (  0.0000000  0.0000000 -1.0000000 )


      isym = 11     inv. 180 deg rotation - cart. axis [0,1,0]   

 cryst.   s(11) = (     1          0          0      )
                  (     0         -1          0      )
                  (     0          0          1      )

 cart.    s(11) = (  1.0000000  0.0000000  0.0000000 )
                  (  0.0000000 -1.0000000  0.0000000 )
                  (  0.0000000  0.0000000  1.0000000 )


      isym = 12     inv. 180 deg rotation - cart. axis [1,0,0]   

 cryst.   s(12) = (    -1          0          0      )
                  (     0          1          0      )
                  (     0          0          1      )

 cart.    s(12) = ( -1.0000000  0.0000000  0.0000000 )
                  (  0.0000000  1.0000000  0.0000000 )
                  (  0.0000000  0.0000000  1.0000000 )


      isym = 13     inv. 180 deg rotation - cart. axis [1,1,0]   

 cryst.   s(13) = (     0         -1          0      )
                  (    -1          0          0      )
                  (     0          0          1      )

 cart.    s(13) = (  0.0000000 -1.0000000  0.0000000 )
                  ( -1.0000000  0.0000000  0.0000000 )
                  (  0.0000000  0.0000000  1.0000000 )


      isym = 14     inv. 180 deg rotation - cart. axis [1,-1,0]  

 cryst.   s(14) = (     0          1          0      )
                  (     1          0          0      )
                  (     0          0          1      )

 cart.    s(14) = (  0.0000000  1.0000000  0.0000000 )
                  (  1.0000000  0.0000000  0.0000000 )
                  (  0.0000000  0.0000000  1.0000000 )


      isym = 15     inv.  90 deg rotation - cart. axis [0,0,-1]  

 cryst.   s(15) = (     0          1          0      )
                  (    -1          0          0      )
                  (     0          0         -1      )

 cart.    s(15) = (  0.0000000 -1.0000000  0.0000000 )
                  (  1.0000000  0.0000000  0.0000000 )
                  (  0.0000000  0.0000000 -1.0000000 )


      isym = 16     inv.  90 deg rotation - cart. axis [0,0,1]   

 cryst.   s(16) = (     0         -1          0      )
                  (     1          0          0      )
                  (     0          0         -1      )

 cart.    s(16) = (  0.0000000  1.0000000  0.0000000 )
                  ( -1.0000000  0.0000000  0.0000000 )
                  (  0.0000000  0.0000000 -1.0000000 )


   Cartesian axes

     site n.     atom                  positions (alat units)
         1           Al  tau(   1) = (   0.0000000   0.0000000   0.0000000  )
         2           Al  tau(   2) = (   0.5000000   0.5000000   0.0000000  )
         3           Al  tau(   3) = (   0.5000000   0.0000000   0.3612610  )
         4           Al  tau(   4) = (   0.0000000   0.5000000   0.3612610  )

   Crystallographic axes

     site n.     atom                  positions (cryst. coord.)
         1           Al  tau(   1) = (  0.0000000  0.0000000  0.0000000  )
         2           Al  tau(   2) = (  0.5000000  0.5000000  0.0000000  )
         3           Al  tau(   3) = (  0.5000000  0.0000000  0.5000000  )
         4           Al  tau(   4) = (  0.0000000  0.5000000  0.5000000  )

     number of k points=   715  Marzari-Vanderbilt smearing, width (Ry)=  0.0100
                       cart. coord. in units 2pi/alat
        k(    1) = (   0.0000000   0.0000000   0.0000000), wk =   0.0002572
        k(    2) = (   0.0000000   0.0000000   0.0576684), wk =   0.0005144
        k(    3) = (   0.0000000   0.0000000   0.1153367), wk =   0.0005144
        k(    4) = (   0.0000000   0.0000000   0.1730051), wk =   0.0005144
        k(    5) = (   0.0000000   0.0000000   0.2306735), wk =   0.0005144
        k(    6) = (   0.0000000   0.0000000   0.2883418), wk =   0.0005144
        k(    7) = (   0.0000000   0.0000000   0.3460102), wk =   0.0005144
        k(    8) = (   0.0000000   0.0000000   0.4036786), wk =   0.0005144
        k(    9) = (   0.0000000   0.0000000   0.4613469), wk =   0.0005144
        k(   10) = (   0.0000000   0.0000000   0.5190153), wk =   0.0005144
        k(   11) = (   0.0000000   0.0000000   0.5766837), wk =   0.0005144
        k(   12) = (   0.0000000   0.0000000   0.6343520), wk =   0.0005144
        k(   13) = (   0.0000000   0.0000000  -0.6920204), wk =   0.0002572
        k(   14) = (   0.0000000   0.0555556   0.0000000), wk =   0.0010288
        k(   15) = (   0.0000000   0.0555556   0.0576684), wk =   0.0020576
        k(   16) = (   0.0000000   0.0555556   0.1153367), wk =   0.0020576
        k(   17) = (   0.0000000   0.0555556   0.1730051), wk =   0.0020576
        k(   18) = (   0.0000000   0.0555556   0.2306735), wk =   0.0020576
        k(   19) = (   0.0000000   0.0555556   0.2883418), wk =   0.0020576
        k(   20) = (   0.0000000   0.0555556   0.3460102), wk =   0.0020576
        k(   21) = (   0.0000000   0.0555556   0.4036786), wk =   0.0020576
        k(   22) = (   0.0000000   0.0555556   0.4613469), wk =   0.0020576
        k(   23) = (   0.0000000   0.0555556   0.5190153), wk =   0.0020576
        k(   24) = (   0.0000000   0.0555556   0.5766837), wk =   0.0020576
        k(   25) = (   0.0000000   0.0555556   0.6343520), wk =   0.0020576
        k(   26) = (   0.0000000   0.0555556  -0.6920204), wk =   0.0010288
        k(   27) = (   0.0000000   0.1111111   0.0000000), wk =   0.0010288
        k(   28) = (   0.0000000   0.1111111   0.0576684), wk =   0.0020576
        k(   29) = (   0.0000000   0.1111111   0.1153367), wk =   0.0020576
        k(   30) = (   0.0000000   0.1111111   0.1730051), wk =   0.0020576
        k(   31) = (   0.0000000   0.1111111   0.2306735), wk =   0.0020576
        k(   32) = (   0.0000000   0.1111111   0.2883418), wk =   0.0020576
        k(   33) = (   0.0000000   0.1111111   0.3460102), wk =   0.0020576
        k(   34) = (   0.0000000   0.1111111   0.4036786), wk =   0.0020576
        k(   35) = (   0.0000000   0.1111111   0.4613469), wk =   0.0020576
        k(   36) = (   0.0000000   0.1111111   0.5190153), wk =   0.0020576
        k(   37) = (   0.0000000   0.1111111   0.5766837), wk =   0.0020576
        k(   38) = (   0.0000000   0.1111111   0.6343520), wk =   0.0020576
        k(   39) = (   0.0000000   0.1111111  -0.6920204), wk =   0.0010288
        k(   40) = (   0.0000000   0.1666667   0.0000000), wk =   0.0010288
        k(   41) = (   0.0000000   0.1666667   0.0576684), wk =   0.0020576
        k(   42) = (   0.0000000   0.1666667   0.1153367), wk =   0.0020576
        k(   43) = (   0.0000000   0.1666667   0.1730051), wk =   0.0020576
        k(   44) = (   0.0000000   0.1666667   0.2306735), wk =   0.0020576
        k(   45) = (   0.0000000   0.1666667   0.2883418), wk =   0.0020576
        k(   46) = (   0.0000000   0.1666667   0.3460102), wk =   0.0020576
        k(   47) = (   0.0000000   0.1666667   0.4036786), wk =   0.0020576
        k(   48) = (   0.0000000   0.1666667   0.4613469), wk =   0.0020576
        k(   49) = (   0.0000000   0.1666667   0.5190153), wk =   0.0020576
        k(   50) = (   0.0000000   0.1666667   0.5766837), wk =   0.0020576
        k(   51) = (   0.0000000   0.1666667   0.6343520), wk =   0.0020576
        k(   52) = (   0.0000000   0.1666667  -0.6920204), wk =   0.0010288
        k(   53) = (   0.0000000   0.2222222   0.0000000), wk =   0.0010288
        k(   54) = (   0.0000000   0.2222222   0.0576684), wk =   0.0020576
        k(   55) = (   0.0000000   0.2222222   0.1153367), wk =   0.0020576
        k(   56) = (   0.0000000   0.2222222   0.1730051), wk =   0.0020576
        k(   57) = (   0.0000000   0.2222222   0.2306735), wk =   0.0020576
        k(   58) = (   0.0000000   0.2222222   0.2883418), wk =   0.0020576
        k(   59) = (   0.0000000   0.2222222   0.3460102), wk =   0.0020576
        k(   60) = (   0.0000000   0.2222222   0.4036786), wk =   0.0020576
        k(   61) = (   0.0000000   0.2222222   0.4613469), wk =   0.0020576
        k(   62) = (   0.0000000   0.2222222   0.5190153), wk =   0.0020576
        k(   63) = (   0.0000000   0.2222222   0.5766837), wk =   0.0020576
        k(   64) = (   0.0000000   0.2222222   0.6343520), wk =   0.0020576
        k(   65) = (   0.0000000   0.2222222  -0.6920204), wk =   0.0010288
        k(   66) = (   0.0000000   0.2777778   0.0000000), wk =   0.0010288
        k(   67) = (   0.0000000   0.2777778   0.0576684), wk =   0.0020576
        k(   68) = (   0.0000000   0.2777778   0.1153367), wk =   0.0020576
        k(   69) = (   0.0000000   0.2777778   0.1730051), wk =   0.0020576
        k(   70) = (   0.0000000   0.2777778   0.2306735), wk =   0.0020576
        k(   71) = (   0.0000000   0.2777778   0.2883418), wk =   0.0020576
        k(   72) = (   0.0000000   0.2777778   0.3460102), wk =   0.0020576
        k(   73) = (   0.0000000   0.2777778   0.4036786), wk =   0.0020576
        k(   74) = (   0.0000000   0.2777778   0.4613469), wk =   0.0020576
        k(   75) = (   0.0000000   0.2777778   0.5190153), wk =   0.0020576
        k(   76) = (   0.0000000   0.2777778   0.5766837), wk =   0.0020576
        k(   77) = (   0.0000000   0.2777778   0.6343520), wk =   0.0020576
        k(   78) = (   0.0000000   0.2777778  -0.6920204), wk =   0.0010288
        k(   79) = (   0.0000000   0.3333333   0.0000000), wk =   0.0010288
        k(   80) = (   0.0000000   0.3333333   0.0576684), wk =   0.0020576
        k(   81) = (   0.0000000   0.3333333   0.1153367), wk =   0.0020576
        k(   82) = (   0.0000000   0.3333333   0.1730051), wk =   0.0020576
        k(   83) = (   0.0000000   0.3333333   0.2306735), wk =   0.0020576
        k(   84) = (   0.0000000   0.3333333   0.2883418), wk =   0.0020576
        k(   85) = (   0.0000000   0.3333333   0.3460102), wk =   0.0020576
        k(   86) = (   0.0000000   0.3333333   0.4036786), wk =   0.0020576
        k(   87) = (   0.0000000   0.3333333   0.4613469), wk =   0.0020576
        k(   88) = (   0.0000000   0.3333333   0.5190153), wk =   0.0020576
        k(   89) = (   0.0000000   0.3333333   0.5766837), wk =   0.0020576
        k(   90) = (   0.0000000   0.3333333   0.6343520), wk =   0.0020576
        k(   91) = (   0.0000000   0.3333333  -0.6920204), wk =   0.0010288
        k(   92) = (   0.0000000   0.3888889   0.0000000), wk =   0.0010288
        k(   93) = (   0.0000000   0.3888889   0.0576684), wk =   0.0020576
        k(   94) = (   0.0000000   0.3888889   0.1153367), wk =   0.0020576
        k(   95) = (   0.0000000   0.3888889   0.1730051), wk =   0.0020576
        k(   96) = (   0.0000000   0.3888889   0.2306735), wk =   0.0020576
        k(   97) = (   0.0000000   0.3888889   0.2883418), wk =   0.0020576
        k(   98) = (   0.0000000   0.3888889   0.3460102), wk =   0.0020576
        k(   99) = (   0.0000000   0.3888889   0.4036786), wk =   0.0020576
        k(  100) = (   0.0000000   0.3888889   0.4613469), wk =   0.0020576
        k(  101) = (   0.0000000   0.3888889   0.5190153), wk =   0.0020576
        k(  102) = (   0.0000000   0.3888889   0.5766837), wk =   0.0020576
        k(  103) = (   0.0000000   0.3888889   0.6343520), wk =   0.0020576
        k(  104) = (   0.0000000   0.3888889  -0.6920204), wk =   0.0010288
        k(  105) = (   0.0000000   0.4444444   0.0000000), wk =   0.0010288
        k(  106) = (   0.0000000   0.4444444   0.0576684), wk =   0.0020576
        k(  107) = (   0.0000000   0.4444444   0.1153367), wk =   0.0020576
        k(  108) = (   0.0000000   0.4444444   0.1730051), wk =   0.0020576
        k(  109) = (   0.0000000   0.4444444   0.2306735), wk =   0.0020576
        k(  110) = (   0.0000000   0.4444444   0.2883418), wk =   0.0020576
        k(  111) = (   0.0000000   0.4444444   0.3460102), wk =   0.0020576
        k(  112) = (   0.0000000   0.4444444   0.4036786), wk =   0.0020576
        k(  113) = (   0.0000000   0.4444444   0.4613469), wk =   0.0020576
        k(  114) = (   0.0000000   0.4444444   0.5190153), wk =   0.0020576
        k(  115) = (   0.0000000   0.4444444   0.5766837), wk =   0.0020576
        k(  116) = (   0.0000000   0.4444444   0.6343520), wk =   0.0020576
        k(  117) = (   0.0000000   0.4444444  -0.6920204), wk =   0.0010288
        k(  118) = (   0.0000000  -0.5000000   0.0000000), wk =   0.0005144
        k(  119) = (   0.0000000  -0.5000000   0.0576684), wk =   0.0010288
        k(  120) = (   0.0000000  -0.5000000   0.1153367), wk =   0.0010288
        k(  121) = (   0.0000000  -0.5000000   0.1730051), wk =   0.0010288
        k(  122) = (   0.0000000  -0.5000000   0.2306735), wk =   0.0010288
        k(  123) = (   0.0000000  -0.5000000   0.2883418), wk =   0.0010288
        k(  124) = (   0.0000000  -0.5000000   0.3460102), wk =   0.0010288
        k(  125) = (   0.0000000  -0.5000000   0.4036786), wk =   0.0010288
        k(  126) = (   0.0000000  -0.5000000   0.4613469), wk =   0.0010288
        k(  127) = (   0.0000000  -0.5000000   0.5190153), wk =   0.0010288
        k(  128) = (   0.0000000  -0.5000000   0.5766837), wk =   0.0010288
        k(  129) = (   0.0000000  -0.5000000   0.6343520), wk =   0.0010288
        k(  130) = (   0.0000000  -0.5000000  -0.6920204), wk =   0.0005144
        k(  131) = (   0.0555556   0.0555556   0.0000000), wk =   0.0010288
        k(  132) = (   0.0555556   0.0555556   0.0576684), wk =   0.0020576
        k(  133) = (   0.0555556   0.0555556   0.1153367), wk =   0.0020576
        k(  134) = (   0.0555556   0.0555556   0.1730051), wk =   0.0020576
        k(  135) = (   0.0555556   0.0555556   0.2306735), wk =   0.0020576
        k(  136) = (   0.0555556   0.0555556   0.2883418), wk =   0.0020576
        k(  137) = (   0.0555556   0.0555556   0.3460102), wk =   0.0020576
        k(  138) = (   0.0555556   0.0555556   0.4036786), wk =   0.0020576
        k(  139) = (   0.0555556   0.0555556   0.4613469), wk =   0.0020576
        k(  140) = (   0.0555556   0.0555556   0.5190153), wk =   0.0020576
        k(  141) = (   0.0555556   0.0555556   0.5766837), wk =   0.0020576
        k(  142) = (   0.0555556   0.0555556   0.6343520), wk =   0.0020576
        k(  143) = (   0.0555556   0.0555556  -0.6920204), wk =   0.0010288
        k(  144) = (   0.0555556   0.1111111   0.0000000), wk =   0.0020576
        k(  145) = (   0.0555556   0.1111111   0.0576684), wk =   0.0041152
        k(  146) = (   0.0555556   0.1111111   0.1153367), wk =   0.0041152
        k(  147) = (   0.0555556   0.1111111   0.1730051), wk =   0.0041152
        k(  148) = (   0.0555556   0.1111111   0.2306735), wk =   0.0041152
        k(  149) = (   0.0555556   0.1111111   0.2883418), wk =   0.0041152
        k(  150) = (   0.0555556   0.1111111   0.3460102), wk =   0.0041152
        k(  151) = (   0.0555556   0.1111111   0.4036786), wk =   0.0041152
        k(  152) = (   0.0555556   0.1111111   0.4613469), wk =   0.0041152
        k(  153) = (   0.0555556   0.1111111   0.5190153), wk =   0.0041152
        k(  154) = (   0.0555556   0.1111111   0.5766837), wk =   0.0041152
        k(  155) = (   0.0555556   0.1111111   0.6343520), wk =   0.0041152
        k(  156) = (   0.0555556   0.1111111  -0.6920204), wk =   0.0020576
        k(  157) = (   0.0555556   0.1666667   0.0000000), wk =   0.0020576
        k(  158) = (   0.0555556   0.1666667   0.0576684), wk =   0.0041152
        k(  159) = (   0.0555556   0.1666667   0.1153367), wk =   0.0041152
        k(  160) = (   0.0555556   0.1666667   0.1730051), wk =   0.0041152
        k(  161) = (   0.0555556   0.1666667   0.2306735), wk =   0.0041152
        k(  162) = (   0.0555556   0.1666667   0.2883418), wk =   0.0041152
        k(  163) = (   0.0555556   0.1666667   0.3460102), wk =   0.0041152
        k(  164) = (   0.0555556   0.1666667   0.4036786), wk =   0.0041152
        k(  165) = (   0.0555556   0.1666667   0.4613469), wk =   0.0041152
        k(  166) = (   0.0555556   0.1666667   0.5190153), wk =   0.0041152
        k(  167) = (   0.0555556   0.1666667   0.5766837), wk =   0.0041152
        k(  168) = (   0.0555556   0.1666667   0.6343520), wk =   0.0041152
        k(  169) = (   0.0555556   0.1666667  -0.6920204), wk =   0.0020576
        k(  170) = (   0.0555556   0.2222222   0.0000000), wk =   0.0020576
        k(  171) = (   0.0555556   0.2222222   0.0576684), wk =   0.0041152
        k(  172) = (   0.0555556   0.2222222   0.1153367), wk =   0.0041152
        k(  173) = (   0.0555556   0.2222222   0.1730051), wk =   0.0041152
        k(  174) = (   0.0555556   0.2222222   0.2306735), wk =   0.0041152
        k(  175) = (   0.0555556   0.2222222   0.2883418), wk =   0.0041152
        k(  176) = (   0.0555556   0.2222222   0.3460102), wk =   0.0041152
        k(  177) = (   0.0555556   0.2222222   0.4036786), wk =   0.0041152
        k(  178) = (   0.0555556   0.2222222   0.4613469), wk =   0.0041152
        k(  179) = (   0.0555556   0.2222222   0.5190153), wk =   0.0041152
        k(  180) = (   0.0555556   0.2222222   0.5766837), wk =   0.0041152
        k(  181) = (   0.0555556   0.2222222   0.6343520), wk =   0.0041152
        k(  182) = (   0.0555556   0.2222222  -0.6920204), wk =   0.0020576
        k(  183) = (   0.0555556   0.2777778   0.0000000), wk =   0.0020576
        k(  184) = (   0.0555556   0.2777778   0.0576684), wk =   0.0041152
        k(  185) = (   0.0555556   0.2777778   0.1153367), wk =   0.0041152
        k(  186) = (   0.0555556   0.2777778   0.1730051), wk =   0.0041152
        k(  187) = (   0.0555556   0.2777778   0.2306735), wk =   0.0041152
        k(  188) = (   0.0555556   0.2777778   0.2883418), wk =   0.0041152
        k(  189) = (   0.0555556   0.2777778   0.3460102), wk =   0.0041152
        k(  190) = (   0.0555556   0.2777778   0.4036786), wk =   0.0041152
        k(  191) = (   0.0555556   0.2777778   0.4613469), wk =   0.0041152
        k(  192) = (   0.0555556   0.2777778   0.5190153), wk =   0.0041152
        k(  193) = (   0.0555556   0.2777778   0.5766837), wk =   0.0041152
        k(  194) = (   0.0555556   0.2777778   0.6343520), wk =   0.0041152
        k(  195) = (   0.0555556   0.2777778  -0.6920204), wk =   0.0020576
        k(  196) = (   0.0555556   0.3333333   0.0000000), wk =   0.0020576
        k(  197) = (   0.0555556   0.3333333   0.0576684), wk =   0.0041152
        k(  198) = (   0.0555556   0.3333333   0.1153367), wk =   0.0041152
        k(  199) = (   0.0555556   0.3333333   0.1730051), wk =   0.0041152
        k(  200) = (   0.0555556   0.3333333   0.2306735), wk =   0.0041152
        k(  201) = (   0.0555556   0.3333333   0.2883418), wk =   0.0041152
        k(  202) = (   0.0555556   0.3333333   0.3460102), wk =   0.0041152
        k(  203) = (   0.0555556   0.3333333   0.4036786), wk =   0.0041152
        k(  204) = (   0.0555556   0.3333333   0.4613469), wk =   0.0041152
        k(  205) = (   0.0555556   0.3333333   0.5190153), wk =   0.0041152
        k(  206) = (   0.0555556   0.3333333   0.5766837), wk =   0.0041152
        k(  207) = (   0.0555556   0.3333333   0.6343520), wk =   0.0041152
        k(  208) = (   0.0555556   0.3333333  -0.6920204), wk =   0.0020576
        k(  209) = (   0.0555556   0.3888889   0.0000000), wk =   0.0020576
        k(  210) = (   0.0555556   0.3888889   0.0576684), wk =   0.0041152
        k(  211) = (   0.0555556   0.3888889   0.1153367), wk =   0.0041152
        k(  212) = (   0.0555556   0.3888889   0.1730051), wk =   0.0041152
        k(  213) = (   0.0555556   0.3888889   0.2306735), wk =   0.0041152
        k(  214) = (   0.0555556   0.3888889   0.2883418), wk =   0.0041152
        k(  215) = (   0.0555556   0.3888889   0.3460102), wk =   0.0041152
        k(  216) = (   0.0555556   0.3888889   0.4036786), wk =   0.0041152
        k(  217) = (   0.0555556   0.3888889   0.4613469), wk =   0.0041152
        k(  218) = (   0.0555556   0.3888889   0.5190153), wk =   0.0041152
        k(  219) = (   0.0555556   0.3888889   0.5766837), wk =   0.0041152
        k(  220) = (   0.0555556   0.3888889   0.6343520), wk =   0.0041152
        k(  221) = (   0.0555556   0.3888889  -0.6920204), wk =   0.0020576
        k(  222) = (   0.0555556   0.4444444   0.0000000), wk =   0.0020576
        k(  223) = (   0.0555556   0.4444444   0.0576684), wk =   0.0041152
        k(  224) = (   0.0555556   0.4444444   0.1153367), wk =   0.0041152
        k(  225) = (   0.0555556   0.4444444   0.1730051), wk =   0.0041152
        k(  226) = (   0.0555556   0.4444444   0.2306735), wk =   0.0041152
        k(  227) = (   0.0555556   0.4444444   0.2883418), wk =   0.0041152
        k(  228) = (   0.0555556   0.4444444   0.3460102), wk =   0.0041152
        k(  229) = (   0.0555556   0.4444444   0.4036786), wk =   0.0041152
        k(  230) = (   0.0555556   0.4444444   0.4613469), wk =   0.0041152
        k(  231) = (   0.0555556   0.4444444   0.5190153), wk =   0.0041152
        k(  232) = (   0.0555556   0.4444444   0.5766837), wk =   0.0041152
        k(  233) = (   0.0555556   0.4444444   0.6343520), wk =   0.0041152
        k(  234) = (   0.0555556   0.4444444  -0.6920204), wk =   0.0020576
        k(  235) = (   0.0555556  -0.5000000   0.0000000), wk =   0.0010288
        k(  236) = (   0.0555556  -0.5000000   0.0576684), wk =   0.0020576
        k(  237) = (   0.0555556  -0.5000000   0.1153367), wk =   0.0020576
        k(  238) = (   0.0555556  -0.5000000   0.1730051), wk =   0.0020576
        k(  239) = (   0.0555556  -0.5000000   0.2306735), wk =   0.0020576
        k(  240) = (   0.0555556  -0.5000000   0.2883418), wk =   0.0020576
        k(  241) = (   0.0555556  -0.5000000   0.3460102), wk =   0.0020576
        k(  242) = (   0.0555556  -0.5000000   0.4036786), wk =   0.0020576
        k(  243) = (   0.0555556  -0.5000000   0.4613469), wk =   0.0020576
        k(  244) = (   0.0555556  -0.5000000   0.5190153), wk =   0.0020576
        k(  245) = (   0.0555556  -0.5000000   0.5766837), wk =   0.0020576
        k(  246) = (   0.0555556  -0.5000000   0.6343520), wk =   0.0020576
        k(  247) = (   0.0555556  -0.5000000  -0.6920204), wk =   0.0010288
        k(  248) = (   0.1111111   0.1111111   0.0000000), wk =   0.0010288
        k(  249) = (   0.1111111   0.1111111   0.0576684), wk =   0.0020576
        k(  250) = (   0.1111111   0.1111111   0.1153367), wk =   0.0020576
        k(  251) = (   0.1111111   0.1111111   0.1730051), wk =   0.0020576
        k(  252) = (   0.1111111   0.1111111   0.2306735), wk =   0.0020576
        k(  253) = (   0.1111111   0.1111111   0.2883418), wk =   0.0020576
        k(  254) = (   0.1111111   0.1111111   0.3460102), wk =   0.0020576
        k(  255) = (   0.1111111   0.1111111   0.4036786), wk =   0.0020576
        k(  256) = (   0.1111111   0.1111111   0.4613469), wk =   0.0020576
        k(  257) = (   0.1111111   0.1111111   0.5190153), wk =   0.0020576
        k(  258) = (   0.1111111   0.1111111   0.5766837), wk =   0.0020576
        k(  259) = (   0.1111111   0.1111111   0.6343520), wk =   0.0020576
        k(  260) = (   0.1111111   0.1111111  -0.6920204), wk =   0.0010288
        k(  261) = (   0.1111111   0.1666667   0.0000000), wk =   0.0020576
        k(  262) = (   0.1111111   0.1666667   0.0576684), wk =   0.0041152
        k(  263) = (   0.1111111   0.1666667   0.1153367), wk =   0.0041152
        k(  264) = (   0.1111111   0.1666667   0.1730051), wk =   0.0041152
        k(  265) = (   0.1111111   0.1666667   0.2306735), wk =   0.0041152
        k(  266) = (   0.1111111   0.1666667   0.2883418), wk =   0.0041152
        k(  267) = (   0.1111111   0.1666667   0.3460102), wk =   0.0041152
        k(  268) = (   0.1111111   0.1666667   0.4036786), wk =   0.0041152
        k(  269) = (   0.1111111   0.1666667   0.4613469), wk =   0.0041152
        k(  270) = (   0.1111111   0.1666667   0.5190153), wk =   0.0041152
        k(  271) = (   0.1111111   0.1666667   0.5766837), wk =   0.0041152
        k(  272) = (   0.1111111   0.1666667   0.6343520), wk =   0.0041152
        k(  273) = (   0.1111111   0.1666667  -0.6920204), wk =   0.0020576
        k(  274) = (   0.1111111   0.2222222   0.0000000), wk =   0.0020576
        k(  275) = (   0.1111111   0.2222222   0.0576684), wk =   0.0041152
        k(  276) = (   0.1111111   0.2222222   0.1153367), wk =   0.0041152
        k(  277) = (   0.1111111   0.2222222   0.1730051), wk =   0.0041152
        k(  278) = (   0.1111111   0.2222222   0.2306735), wk =   0.0041152
        k(  279) = (   0.1111111   0.2222222   0.2883418), wk =   0.0041152
        k(  280) = (   0.1111111   0.2222222   0.3460102), wk =   0.0041152
        k(  281) = (   0.1111111   0.2222222   0.4036786), wk =   0.0041152
        k(  282) = (   0.1111111   0.2222222   0.4613469), wk =   0.0041152
        k(  283) = (   0.1111111   0.2222222   0.5190153), wk =   0.0041152
        k(  284) = (   0.1111111   0.2222222   0.5766837), wk =   0.0041152
        k(  285) = (   0.1111111   0.2222222   0.6343520), wk =   0.0041152
        k(  286) = (   0.1111111   0.2222222  -0.6920204), wk =   0.0020576
        k(  287) = (   0.1111111   0.2777778   0.0000000), wk =   0.0020576
        k(  288) = (   0.1111111   0.2777778   0.0576684), wk =   0.0041152
        k(  289) = (   0.1111111   0.2777778   0.1153367), wk =   0.0041152
        k(  290) = (   0.1111111   0.2777778   0.1730051), wk =   0.0041152
        k(  291) = (   0.1111111   0.2777778   0.2306735), wk =   0.0041152
        k(  292) = (   0.1111111   0.2777778   0.2883418), wk =   0.0041152
        k(  293) = (   0.1111111   0.2777778   0.3460102), wk =   0.0041152
        k(  294) = (   0.1111111   0.2777778   0.4036786), wk =   0.0041152
        k(  295) = (   0.1111111   0.2777778   0.4613469), wk =   0.0041152
        k(  296) = (   0.1111111   0.2777778   0.5190153), wk =   0.0041152
        k(  297) = (   0.1111111   0.2777778   0.5766837), wk =   0.0041152
        k(  298) = (   0.1111111   0.2777778   0.6343520), wk =   0.0041152
        k(  299) = (   0.1111111   0.2777778  -0.6920204), wk =   0.0020576
        k(  300) = (   0.1111111   0.3333333   0.0000000), wk =   0.0020576
        k(  301) = (   0.1111111   0.3333333   0.0576684), wk =   0.0041152
        k(  302) = (   0.1111111   0.3333333   0.1153367), wk =   0.0041152
        k(  303) = (   0.1111111   0.3333333   0.1730051), wk =   0.0041152
        k(  304) = (   0.1111111   0.3333333   0.2306735), wk =   0.0041152
        k(  305) = (   0.1111111   0.3333333   0.2883418), wk =   0.0041152
        k(  306) = (   0.1111111   0.3333333   0.3460102), wk =   0.0041152
        k(  307) = (   0.1111111   0.3333333   0.4036786), wk =   0.0041152
        k(  308) = (   0.1111111   0.3333333   0.4613469), wk =   0.0041152
        k(  309) = (   0.1111111   0.3333333   0.5190153), wk =   0.0041152
        k(  310) = (   0.1111111   0.3333333   0.5766837), wk =   0.0041152
        k(  311) = (   0.1111111   0.3333333   0.6343520), wk =   0.0041152
        k(  312) = (   0.1111111   0.3333333  -0.6920204), wk =   0.0020576
        k(  313) = (   0.1111111   0.3888889   0.0000000), wk =   0.0020576
        k(  314) = (   0.1111111   0.3888889   0.0576684), wk =   0.0041152
        k(  315) = (   0.1111111   0.3888889   0.1153367), wk =   0.0041152
        k(  316) = (   0.1111111   0.3888889   0.1730051), wk =   0.0041152
        k(  317) = (   0.1111111   0.3888889   0.2306735), wk =   0.0041152
        k(  318) = (   0.1111111   0.3888889   0.2883418), wk =   0.0041152
        k(  319) = (   0.1111111   0.3888889   0.3460102), wk =   0.0041152
        k(  320) = (   0.1111111   0.3888889   0.4036786), wk =   0.0041152
        k(  321) = (   0.1111111   0.3888889   0.4613469), wk =   0.0041152
        k(  322) = (   0.1111111   0.3888889   0.5190153), wk =   0.0041152
        k(  323) = (   0.1111111   0.3888889   0.5766837), wk =   0.0041152
        k(  324) = (   0.1111111   0.3888889   0.6343520), wk =   0.0041152
        k(  325) = (   0.1111111   0.3888889  -0.6920204), wk =   0.0020576
        k(  326) = (   0.1111111   0.4444444   0.0000000), wk =   0.0020576
        k(  327) = (   0.1111111   0.4444444   0.0576684), wk =   0.0041152
        k(  328) = (   0.1111111   0.4444444   0.1153367), wk =   0.0041152
        k(  329) = (   0.1111111   0.4444444   0.1730051), wk =   0.0041152
        k(  330) = (   0.1111111   0.4444444   0.2306735), wk =   0.0041152
        k(  331) = (   0.1111111   0.4444444   0.2883418), wk =   0.0041152
        k(  332) = (   0.1111111   0.4444444   0.3460102), wk =   0.0041152
        k(  333) = (   0.1111111   0.4444444   0.4036786), wk =   0.0041152
        k(  334) = (   0.1111111   0.4444444   0.4613469), wk =   0.0041152
        k(  335) = (   0.1111111   0.4444444   0.5190153), wk =   0.0041152
        k(  336) = (   0.1111111   0.4444444   0.5766837), wk =   0.0041152
        k(  337) = (   0.1111111   0.4444444   0.6343520), wk =   0.0041152
        k(  338) = (   0.1111111   0.4444444  -0.6920204), wk =   0.0020576
        k(  339) = (   0.1111111  -0.5000000   0.0000000), wk =   0.0010288
        k(  340) = (   0.1111111  -0.5000000   0.0576684), wk =   0.0020576
        k(  341) = (   0.1111111  -0.5000000   0.1153367), wk =   0.0020576
        k(  342) = (   0.1111111  -0.5000000   0.1730051), wk =   0.0020576
        k(  343) = (   0.1111111  -0.5000000   0.2306735), wk =   0.0020576
        k(  344) = (   0.1111111  -0.5000000   0.2883418), wk =   0.0020576
        k(  345) = (   0.1111111  -0.5000000   0.3460102), wk =   0.0020576
        k(  346) = (   0.1111111  -0.5000000   0.4036786), wk =   0.0020576
        k(  347) = (   0.1111111  -0.5000000   0.4613469), wk =   0.0020576
        k(  348) = (   0.1111111  -0.5000000   0.5190153), wk =   0.0020576
        k(  349) = (   0.1111111  -0.5000000   0.5766837), wk =   0.0020576
        k(  350) = (   0.1111111  -0.5000000   0.6343520), wk =   0.0020576
        k(  351) = (   0.1111111  -0.5000000  -0.6920204), wk =   0.0010288
        k(  352) = (   0.1666667   0.1666667   0.0000000), wk =   0.0010288
        k(  353) = (   0.1666667   0.1666667   0.0576684), wk =   0.0020576
        k(  354) = (   0.1666667   0.1666667   0.1153367), wk =   0.0020576
        k(  355) = (   0.1666667   0.1666667   0.1730051), wk =   0.0020576
        k(  356) = (   0.1666667   0.1666667   0.2306735), wk =   0.0020576
        k(  357) = (   0.1666667   0.1666667   0.2883418), wk =   0.0020576
        k(  358) = (   0.1666667   0.1666667   0.3460102), wk =   0.0020576
        k(  359) = (   0.1666667   0.1666667   0.4036786), wk =   0.0020576
        k(  360) = (   0.1666667   0.1666667   0.4613469), wk =   0.0020576
        k(  361) = (   0.1666667   0.1666667   0.5190153), wk =   0.0020576
        k(  362) = (   0.1666667   0.1666667   0.5766837), wk =   0.0020576
        k(  363) = (   0.1666667   0.1666667   0.6343520), wk =   0.0020576
        k(  364) = (   0.1666667   0.1666667  -0.6920204), wk =   0.0010288
        k(  365) = (   0.1666667   0.2222222   0.0000000), wk =   0.0020576
        k(  366) = (   0.1666667   0.2222222   0.0576684), wk =   0.0041152
        k(  367) = (   0.1666667   0.2222222   0.1153367), wk =   0.0041152
        k(  368) = (   0.1666667   0.2222222   0.1730051), wk =   0.0041152
        k(  369) = (   0.1666667   0.2222222   0.2306735), wk =   0.0041152
        k(  370) = (   0.1666667   0.2222222   0.2883418), wk =   0.0041152
        k(  371) = (   0.1666667   0.2222222   0.3460102), wk =   0.0041152
        k(  372) = (   0.1666667   0.2222222   0.4036786), wk =   0.0041152
        k(  373) = (   0.1666667   0.2222222   0.4613469), wk =   0.0041152
        k(  374) = (   0.1666667   0.2222222   0.5190153), wk =   0.0041152
        k(  375) = (   0.1666667   0.2222222   0.5766837), wk =   0.0041152
        k(  376) = (   0.1666667   0.2222222   0.6343520), wk =   0.0041152
        k(  377) = (   0.1666667   0.2222222  -0.6920204), wk =   0.0020576
        k(  378) = (   0.1666667   0.2777778   0.0000000), wk =   0.0020576
        k(  379) = (   0.1666667   0.2777778   0.0576684), wk =   0.0041152
        k(  380) = (   0.1666667   0.2777778   0.1153367), wk =   0.0041152
        k(  381) = (   0.1666667   0.2777778   0.1730051), wk =   0.0041152
        k(  382) = (   0.1666667   0.2777778   0.2306735), wk =   0.0041152
        k(  383) = (   0.1666667   0.2777778   0.2883418), wk =   0.0041152
        k(  384) = (   0.1666667   0.2777778   0.3460102), wk =   0.0041152
        k(  385) = (   0.1666667   0.2777778   0.4036786), wk =   0.0041152
        k(  386) = (   0.1666667   0.2777778   0.4613469), wk =   0.0041152
        k(  387) = (   0.1666667   0.2777778   0.5190153), wk =   0.0041152
        k(  388) = (   0.1666667   0.2777778   0.5766837), wk =   0.0041152
        k(  389) = (   0.1666667   0.2777778   0.6343520), wk =   0.0041152
        k(  390) = (   0.1666667   0.2777778  -0.6920204), wk =   0.0020576
        k(  391) = (   0.1666667   0.3333333   0.0000000), wk =   0.0020576
        k(  392) = (   0.1666667   0.3333333   0.0576684), wk =   0.0041152
        k(  393) = (   0.1666667   0.3333333   0.1153367), wk =   0.0041152
        k(  394) = (   0.1666667   0.3333333   0.1730051), wk =   0.0041152
        k(  395) = (   0.1666667   0.3333333   0.2306735), wk =   0.0041152
        k(  396) = (   0.1666667   0.3333333   0.2883418), wk =   0.0041152
        k(  397) = (   0.1666667   0.3333333   0.3460102), wk =   0.0041152
        k(  398) = (   0.1666667   0.3333333   0.4036786), wk =   0.0041152
        k(  399) = (   0.1666667   0.3333333   0.4613469), wk =   0.0041152
        k(  400) = (   0.1666667   0.3333333   0.5190153), wk =   0.0041152
        k(  401) = (   0.1666667   0.3333333   0.5766837), wk =   0.0041152
        k(  402) = (   0.1666667   0.3333333   0.6343520), wk =   0.0041152
        k(  403) = (   0.1666667   0.3333333  -0.6920204), wk =   0.0020576
        k(  404) = (   0.1666667   0.3888889   0.0000000), wk =   0.0020576
        k(  405) = (   0.1666667   0.3888889   0.0576684), wk =   0.0041152
        k(  406) = (   0.1666667   0.3888889   0.1153367), wk =   0.0041152
        k(  407) = (   0.1666667   0.3888889   0.1730051), wk =   0.0041152
        k(  408) = (   0.1666667   0.3888889   0.2306735), wk =   0.0041152
        k(  409) = (   0.1666667   0.3888889   0.2883418), wk =   0.0041152
        k(  410) = (   0.1666667   0.3888889   0.3460102), wk =   0.0041152
        k(  411) = (   0.1666667   0.3888889   0.4036786), wk =   0.0041152
        k(  412) = (   0.1666667   0.3888889   0.4613469), wk =   0.0041152
        k(  413) = (   0.1666667   0.3888889   0.5190153), wk =   0.0041152
        k(  414) = (   0.1666667   0.3888889   0.5766837), wk =   0.0041152
        k(  415) = (   0.1666667   0.3888889   0.6343520), wk =   0.0041152
        k(  416) = (   0.1666667   0.3888889  -0.6920204), wk =   0.0020576
        k(  417) = (   0.1666667   0.4444444   0.0000000), wk =   0.0020576
        k(  418) = (   0.1666667   0.4444444   0.0576684), wk =   0.0041152
        k(  419) = (   0.1666667   0.4444444   0.1153367), wk =   0.0041152
        k(  420) = (   0.1666667   0.4444444   0.1730051), wk =   0.0041152
        k(  421) = (   0.1666667   0.4444444   0.2306735), wk =   0.0041152
        k(  422) = (   0.1666667   0.4444444   0.2883418), wk =   0.0041152
        k(  423) = (   0.1666667   0.4444444   0.3460102), wk =   0.0041152
        k(  424) = (   0.1666667   0.4444444   0.4036786), wk =   0.0041152
        k(  425) = (   0.1666667   0.4444444   0.4613469), wk =   0.0041152
        k(  426) = (   0.1666667   0.4444444   0.5190153), wk =   0.0041152
        k(  427) = (   0.1666667   0.4444444   0.5766837), wk =   0.0041152
        k(  428) = (   0.1666667   0.4444444   0.6343520), wk =   0.0041152
        k(  429) = (   0.1666667   0.4444444  -0.6920204), wk =   0.0020576
        k(  430) = (   0.1666667  -0.5000000   0.0000000), wk =   0.0010288
        k(  431) = (   0.1666667  -0.5000000   0.0576684), wk =   0.0020576
        k(  432) = (   0.1666667  -0.5000000   0.1153367), wk =   0.0020576
        k(  433) = (   0.1666667  -0.5000000   0.1730051), wk =   0.0020576
        k(  434) = (   0.1666667  -0.5000000   0.2306735), wk =   0.0020576
        k(  435) = (   0.1666667  -0.5000000   0.2883418), wk =   0.0020576
        k(  436) = (   0.1666667  -0.5000000   0.3460102), wk =   0.0020576
        k(  437) = (   0.1666667  -0.5000000   0.4036786), wk =   0.0020576
        k(  438) = (   0.1666667  -0.5000000   0.4613469), wk =   0.0020576
        k(  439) = (   0.1666667  -0.5000000   0.5190153), wk =   0.0020576
        k(  440) = (   0.1666667  -0.5000000   0.5766837), wk =   0.0020576
        k(  441) = (   0.1666667  -0.5000000   0.6343520), wk =   0.0020576
        k(  442) = (   0.1666667  -0.5000000  -0.6920204), wk =   0.0010288
        k(  443) = (   0.2222222   0.2222222   0.0000000), wk =   0.0010288
        k(  444) = (   0.2222222   0.2222222   0.0576684), wk =   0.0020576
        k(  445) = (   0.2222222   0.2222222   0.1153367), wk =   0.0020576
        k(  446) = (   0.2222222   0.2222222   0.1730051), wk =   0.0020576
        k(  447) = (   0.2222222   0.2222222   0.2306735), wk =   0.0020576
        k(  448) = (   0.2222222   0.2222222   0.2883418), wk =   0.0020576
        k(  449) = (   0.2222222   0.2222222   0.3460102), wk =   0.0020576
        k(  450) = (   0.2222222   0.2222222   0.4036786), wk =   0.0020576
        k(  451) = (   0.2222222   0.2222222   0.4613469), wk =   0.0020576
        k(  452) = (   0.2222222   0.2222222   0.5190153), wk =   0.0020576
        k(  453) = (   0.2222222   0.2222222   0.5766837), wk =   0.0020576
        k(  454) = (   0.2222222   0.2222222   0.6343520), wk =   0.0020576
        k(  455) = (   0.2222222   0.2222222  -0.6920204), wk =   0.0010288
        k(  456) = (   0.2222222   0.2777778   0.0000000), wk =   0.0020576
        k(  457) = (   0.2222222   0.2777778   0.0576684), wk =   0.0041152
        k(  458) = (   0.2222222   0.2777778   0.1153367), wk =   0.0041152
        k(  459) = (   0.2222222   0.2777778   0.1730051), wk =   0.0041152
        k(  460) = (   0.2222222   0.2777778   0.2306735), wk =   0.0041152
        k(  461) = (   0.2222222   0.2777778   0.2883418), wk =   0.0041152
        k(  462) = (   0.2222222   0.2777778   0.3460102), wk =   0.0041152
        k(  463) = (   0.2222222   0.2777778   0.4036786), wk =   0.0041152
        k(  464) = (   0.2222222   0.2777778   0.4613469), wk =   0.0041152
        k(  465) = (   0.2222222   0.2777778   0.5190153), wk =   0.0041152
        k(  466) = (   0.2222222   0.2777778   0.5766837), wk =   0.0041152
        k(  467) = (   0.2222222   0.2777778   0.6343520), wk =   0.0041152
        k(  468) = (   0.2222222   0.2777778  -0.6920204), wk =   0.0020576
        k(  469) = (   0.2222222   0.3333333   0.0000000), wk =   0.0020576
        k(  470) = (   0.2222222   0.3333333   0.0576684), wk =   0.0041152
        k(  471) = (   0.2222222   0.3333333   0.1153367), wk =   0.0041152
        k(  472) = (   0.2222222   0.3333333   0.1730051), wk =   0.0041152
        k(  473) = (   0.2222222   0.3333333   0.2306735), wk =   0.0041152
        k(  474) = (   0.2222222   0.3333333   0.2883418), wk =   0.0041152
        k(  475) = (   0.2222222   0.3333333   0.3460102), wk =   0.0041152
        k(  476) = (   0.2222222   0.3333333   0.4036786), wk =   0.0041152
        k(  477) = (   0.2222222   0.3333333   0.4613469), wk =   0.0041152
        k(  478) = (   0.2222222   0.3333333   0.5190153), wk =   0.0041152
        k(  479) = (   0.2222222   0.3333333   0.5766837), wk =   0.0041152
        k(  480) = (   0.2222222   0.3333333   0.6343520), wk =   0.0041152
        k(  481) = (   0.2222222   0.3333333  -0.6920204), wk =   0.0020576
        k(  482) = (   0.2222222   0.3888889   0.0000000), wk =   0.0020576
        k(  483) = (   0.2222222   0.3888889   0.0576684), wk =   0.0041152
        k(  484) = (   0.2222222   0.3888889   0.1153367), wk =   0.0041152
        k(  485) = (   0.2222222   0.3888889   0.1730051), wk =   0.0041152
        k(  486) = (   0.2222222   0.3888889   0.2306735), wk =   0.0041152
        k(  487) = (   0.2222222   0.3888889   0.2883418), wk =   0.0041152
        k(  488) = (   0.2222222   0.3888889   0.3460102), wk =   0.0041152
        k(  489) = (   0.2222222   0.3888889   0.4036786), wk =   0.0041152
        k(  490) = (   0.2222222   0.3888889   0.4613469), wk =   0.0041152
        k(  491) = (   0.2222222   0.3888889   0.5190153), wk =   0.0041152
        k(  492) = (   0.2222222   0.3888889   0.5766837), wk =   0.0041152
        k(  493) = (   0.2222222   0.3888889   0.6343520), wk =   0.0041152
        k(  494) = (   0.2222222   0.3888889  -0.6920204), wk =   0.0020576
        k(  495) = (   0.2222222   0.4444444   0.0000000), wk =   0.0020576
        k(  496) = (   0.2222222   0.4444444   0.0576684), wk =   0.0041152
        k(  497) = (   0.2222222   0.4444444   0.1153367), wk =   0.0041152
        k(  498) = (   0.2222222   0.4444444   0.1730051), wk =   0.0041152
        k(  499) = (   0.2222222   0.4444444   0.2306735), wk =   0.0041152
        k(  500) = (   0.2222222   0.4444444   0.2883418), wk =   0.0041152
        k(  501) = (   0.2222222   0.4444444   0.3460102), wk =   0.0041152
        k(  502) = (   0.2222222   0.4444444   0.4036786), wk =   0.0041152
        k(  503) = (   0.2222222   0.4444444   0.4613469), wk =   0.0041152
        k(  504) = (   0.2222222   0.4444444   0.5190153), wk =   0.0041152
        k(  505) = (   0.2222222   0.4444444   0.5766837), wk =   0.0041152
        k(  506) = (   0.2222222   0.4444444   0.6343520), wk =   0.0041152
        k(  507) = (   0.2222222   0.4444444  -0.6920204), wk =   0.0020576
        k(  508) = (   0.2222222  -0.5000000   0.0000000), wk =   0.0010288
        k(  509) = (   0.2222222  -0.5000000   0.0576684), wk =   0.0020576
        k(  510) = (   0.2222222  -0.5000000   0.1153367), wk =   0.0020576
        k(  511) = (   0.2222222  -0.5000000   0.1730051), wk =   0.0020576
        k(  512) = (   0.2222222  -0.5000000   0.2306735), wk =   0.0020576
        k(  513) = (   0.2222222  -0.5000000   0.2883418), wk =   0.0020576
        k(  514) = (   0.2222222  -0.5000000   0.3460102), wk =   0.0020576
        k(  515) = (   0.2222222  -0.5000000   0.4036786), wk =   0.0020576
        k(  516) = (   0.2222222  -0.5000000   0.4613469), wk =   0.0020576
        k(  517) = (   0.2222222  -0.5000000   0.5190153), wk =   0.0020576
        k(  518) = (   0.2222222  -0.5000000   0.5766837), wk =   0.0020576
        k(  519) = (   0.2222222  -0.5000000   0.6343520), wk =   0.0020576
        k(  520) = (   0.2222222  -0.5000000  -0.6920204), wk =   0.0010288
        k(  521) = (   0.2777778   0.2777778   0.0000000), wk =   0.0010288
        k(  522) = (   0.2777778   0.2777778   0.0576684), wk =   0.0020576
        k(  523) = (   0.2777778   0.2777778   0.1153367), wk =   0.0020576
        k(  524) = (   0.2777778   0.2777778   0.1730051), wk =   0.0020576
        k(  525) = (   0.2777778   0.2777778   0.2306735), wk =   0.0020576
        k(  526) = (   0.2777778   0.2777778   0.2883418), wk =   0.0020576
        k(  527) = (   0.2777778   0.2777778   0.3460102), wk =   0.0020576
        k(  528) = (   0.2777778   0.2777778   0.4036786), wk =   0.0020576
        k(  529) = (   0.2777778   0.2777778   0.4613469), wk =   0.0020576
        k(  530) = (   0.2777778   0.2777778   0.5190153), wk =   0.0020576
        k(  531) = (   0.2777778   0.2777778   0.5766837), wk =   0.0020576
        k(  532) = (   0.2777778   0.2777778   0.6343520), wk =   0.0020576
        k(  533) = (   0.2777778   0.2777778  -0.6920204), wk =   0.0010288
        k(  534) = (   0.2777778   0.3333333   0.0000000), wk =   0.0020576
        k(  535) = (   0.2777778   0.3333333   0.0576684), wk =   0.0041152
        k(  536) = (   0.2777778   0.3333333   0.1153367), wk =   0.0041152
        k(  537) = (   0.2777778   0.3333333   0.1730051), wk =   0.0041152
        k(  538) = (   0.2777778   0.3333333   0.2306735), wk =   0.0041152
        k(  539) = (   0.2777778   0.3333333   0.2883418), wk =   0.0041152
        k(  540) = (   0.2777778   0.3333333   0.3460102), wk =   0.0041152
        k(  541) = (   0.2777778   0.3333333   0.4036786), wk =   0.0041152
        k(  542) = (   0.2777778   0.3333333   0.4613469), wk =   0.0041152
        k(  543) = (   0.2777778   0.3333333   0.5190153), wk =   0.0041152
        k(  544) = (   0.2777778   0.3333333   0.5766837), wk =   0.0041152
        k(  545) = (   0.2777778   0.3333333   0.6343520), wk =   0.0041152
        k(  546) = (   0.2777778   0.3333333  -0.6920204), wk =   0.0020576
        k(  547) = (   0.2777778   0.3888889   0.0000000), wk =   0.0020576
        k(  548) = (   0.2777778   0.3888889   0.0576684), wk =   0.0041152
        k(  549) = (   0.2777778   0.3888889   0.1153367), wk =   0.0041152
        k(  550) = (   0.2777778   0.3888889   0.1730051), wk =   0.0041152
        k(  551) = (   0.2777778   0.3888889   0.2306735), wk =   0.0041152
        k(  552) = (   0.2777778   0.3888889   0.2883418), wk =   0.0041152
        k(  553) = (   0.2777778   0.3888889   0.3460102), wk =   0.0041152
        k(  554) = (   0.2777778   0.3888889   0.4036786), wk =   0.0041152
        k(  555) = (   0.2777778   0.3888889   0.4613469), wk =   0.0041152
        k(  556) = (   0.2777778   0.3888889   0.5190153), wk =   0.0041152
        k(  557) = (   0.2777778   0.3888889   0.5766837), wk =   0.0041152
        k(  558) = (   0.2777778   0.3888889   0.6343520), wk =   0.0041152
        k(  559) = (   0.2777778   0.3888889  -0.6920204), wk =   0.0020576
        k(  560) = (   0.2777778   0.4444444   0.0000000), wk =   0.0020576
        k(  561) = (   0.2777778   0.4444444   0.0576684), wk =   0.0041152
        k(  562) = (   0.2777778   0.4444444   0.1153367), wk =   0.0041152
        k(  563) = (   0.2777778   0.4444444   0.1730051), wk =   0.0041152
        k(  564) = (   0.2777778   0.4444444   0.2306735), wk =   0.0041152
        k(  565) = (   0.2777778   0.4444444   0.2883418), wk =   0.0041152
        k(  566) = (   0.2777778   0.4444444   0.3460102), wk =   0.0041152
        k(  567) = (   0.2777778   0.4444444   0.4036786), wk =   0.0041152
        k(  568) = (   0.2777778   0.4444444   0.4613469), wk =   0.0041152
        k(  569) = (   0.2777778   0.4444444   0.5190153), wk =   0.0041152
        k(  570) = (   0.2777778   0.4444444   0.5766837), wk =   0.0041152
        k(  571) = (   0.2777778   0.4444444   0.6343520), wk =   0.0041152
        k(  572) = (   0.2777778   0.4444444  -0.6920204), wk =   0.0020576
        k(  573) = (   0.2777778  -0.5000000   0.0000000), wk =   0.0010288
        k(  574) = (   0.2777778  -0.5000000   0.0576684), wk =   0.0020576
        k(  575) = (   0.2777778  -0.5000000   0.1153367), wk =   0.0020576
        k(  576) = (   0.2777778  -0.5000000   0.1730051), wk =   0.0020576
        k(  577) = (   0.2777778  -0.5000000   0.2306735), wk =   0.0020576
        k(  578) = (   0.2777778  -0.5000000   0.2883418), wk =   0.0020576
        k(  579) = (   0.2777778  -0.5000000   0.3460102), wk =   0.0020576
        k(  580) = (   0.2777778  -0.5000000   0.4036786), wk =   0.0020576
        k(  581) = (   0.2777778  -0.5000000   0.4613469), wk =   0.0020576
        k(  582) = (   0.2777778  -0.5000000   0.5190153), wk =   0.0020576
        k(  583) = (   0.2777778  -0.5000000   0.5766837), wk =   0.0020576
        k(  584) = (   0.2777778  -0.5000000   0.6343520), wk =   0.0020576
        k(  585) = (   0.2777778  -0.5000000  -0.6920204), wk =   0.0010288
        k(  586) = (   0.3333333   0.3333333   0.0000000), wk =   0.0010288
        k(  587) = (   0.3333333   0.3333333   0.0576684), wk =   0.0020576
        k(  588) = (   0.3333333   0.3333333   0.1153367), wk =   0.0020576
        k(  589) = (   0.3333333   0.3333333   0.1730051), wk =   0.0020576
        k(  590) = (   0.3333333   0.3333333   0.2306735), wk =   0.0020576
        k(  591) = (   0.3333333   0.3333333   0.2883418), wk =   0.0020576
        k(  592) = (   0.3333333   0.3333333   0.3460102), wk =   0.0020576
        k(  593) = (   0.3333333   0.3333333   0.4036786), wk =   0.0020576
        k(  594) = (   0.3333333   0.3333333   0.4613469), wk =   0.0020576
        k(  595) = (   0.3333333   0.3333333   0.5190153), wk =   0.0020576
        k(  596) = (   0.3333333   0.3333333   0.5766837), wk =   0.0020576
        k(  597) = (   0.3333333   0.3333333   0.6343520), wk =   0.0020576
        k(  598) = (   0.3333333   0.3333333  -0.6920204), wk =   0.0010288
        k(  599) = (   0.3333333   0.3888889   0.0000000), wk =   0.0020576
        k(  600) = (   0.3333333   0.3888889   0.0576684), wk =   0.0041152
        k(  601) = (   0.3333333   0.3888889   0.1153367), wk =   0.0041152
        k(  602) = (   0.3333333   0.3888889   0.1730051), wk =   0.0041152
        k(  603) = (   0.3333333   0.3888889   0.2306735), wk =   0.0041152
        k(  604) = (   0.3333333   0.3888889   0.2883418), wk =   0.0041152
        k(  605) = (   0.3333333   0.3888889   0.3460102), wk =   0.0041152
        k(  606) = (   0.3333333   0.3888889   0.4036786), wk =   0.0041152
        k(  607) = (   0.3333333   0.3888889   0.4613469), wk =   0.0041152
        k(  608) = (   0.3333333   0.3888889   0.5190153), wk =   0.0041152
        k(  609) = (   0.3333333   0.3888889   0.5766837), wk =   0.0041152
        k(  610) = (   0.3333333   0.3888889   0.6343520), wk =   0.0041152
        k(  611) = (   0.3333333   0.3888889  -0.6920204), wk =   0.0020576
        k(  612) = (   0.3333333   0.4444444   0.0000000), wk =   0.0020576
        k(  613) = (   0.3333333   0.4444444   0.0576684), wk =   0.0041152
        k(  614) = (   0.3333333   0.4444444   0.1153367), wk =   0.0041152
        k(  615) = (   0.3333333   0.4444444   0.1730051), wk =   0.0041152
        k(  616) = (   0.3333333   0.4444444   0.2306735), wk =   0.0041152
        k(  617) = (   0.3333333   0.4444444   0.2883418), wk =   0.0041152
        k(  618) = (   0.3333333   0.4444444   0.3460102), wk =   0.0041152
        k(  619) = (   0.3333333   0.4444444   0.4036786), wk =   0.0041152
        k(  620) = (   0.3333333   0.4444444   0.4613469), wk =   0.0041152
        k(  621) = (   0.3333333   0.4444444   0.5190153), wk =   0.0041152
        k(  622) = (   0.3333333   0.4444444   0.5766837), wk =   0.0041152
        k(  623) = (   0.3333333   0.4444444   0.6343520), wk =   0.0041152
        k(  624) = (   0.3333333   0.4444444  -0.6920204), wk =   0.0020576
        k(  625) = (   0.3333333  -0.5000000   0.0000000), wk =   0.0010288
        k(  626) = (   0.3333333  -0.5000000   0.0576684), wk =   0.0020576
        k(  627) = (   0.3333333  -0.5000000   0.1153367), wk =   0.0020576
        k(  628) = (   0.3333333  -0.5000000   0.1730051), wk =   0.0020576
        k(  629) = (   0.3333333  -0.5000000   0.2306735), wk =   0.0020576
        k(  630) = (   0.3333333  -0.5000000   0.2883418), wk =   0.0020576
        k(  631) = (   0.3333333  -0.5000000   0.3460102), wk =   0.0020576
        k(  632) = (   0.3333333  -0.5000000   0.4036786), wk =   0.0020576
        k(  633) = (   0.3333333  -0.5000000   0.4613469), wk =   0.0020576
        k(  634) = (   0.3333333  -0.5000000   0.5190153), wk =   0.0020576
        k(  635) = (   0.3333333  -0.5000000   0.5766837), wk =   0.0020576
        k(  636) = (   0.3333333  -0.5000000   0.6343520), wk =   0.0020576
        k(  637) = (   0.3333333  -0.5000000  -0.6920204), wk =   0.0010288
        k(  638) = (   0.3888889   0.3888889   0.0000000), wk =   0.0010288
        k(  639) = (   0.3888889   0.3888889   0.0576684), wk =   0.0020576
        k(  640) = (   0.3888889   0.3888889   0.1153367), wk =   0.0020576
        k(  641) = (   0.3888889   0.3888889   0.1730051), wk =   0.0020576
        k(  642) = (   0.3888889   0.3888889   0.2306735), wk =   0.0020576
        k(  643) = (   0.3888889   0.3888889   0.2883418), wk =   0.0020576
        k(  644) = (   0.3888889   0.3888889   0.3460102), wk =   0.0020576
        k(  645) = (   0.3888889   0.3888889   0.4036786), wk =   0.0020576
        k(  646) = (   0.3888889   0.3888889   0.4613469), wk =   0.0020576
        k(  647) = (   0.3888889   0.3888889   0.5190153), wk =   0.0020576
        k(  648) = (   0.3888889   0.3888889   0.5766837), wk =   0.0020576
        k(  649) = (   0.3888889   0.3888889   0.6343520), wk =   0.0020576
        k(  650) = (   0.3888889   0.3888889  -0.6920204), wk =   0.0010288
        k(  651) = (   0.3888889   0.4444444   0.0000000), wk =   0.0020576
        k(  652) = (   0.3888889   0.4444444   0.0576684), wk =   0.0041152
        k(  653) = (   0.3888889   0.4444444   0.1153367), wk =   0.0041152
        k(  654) = (   0.3888889   0.4444444   0.1730051), wk =   0.0041152
        k(  655) = (   0.3888889   0.4444444   0.2306735), wk =   0.0041152
        k(  656) = (   0.3888889   0.4444444   0.2883418), wk =   0.0041152
        k(  657) = (   0.3888889   0.4444444   0.3460102), wk =   0.0041152
        k(  658) = (   0.3888889   0.4444444   0.4036786), wk =   0.0041152
        k(  659) = (   0.3888889   0.4444444   0.4613469), wk =   0.0041152
        k(  660) = (   0.3888889   0.4444444   0.5190153), wk =   0.0041152
        k(  661) = (   0.3888889   0.4444444   0.5766837), wk =   0.0041152
        k(  662) = (   0.3888889   0.4444444   0.6343520), wk =   0.0041152
        k(  663) = (   0.3888889   0.4444444  -0.6920204), wk =   0.0020576
        k(  664) = (   0.3888889  -0.5000000   0.0000000), wk =   0.0010288
        k(  665) = (   0.3888889  -0.5000000   0.0576684), wk =   0.0020576
        k(  666) = (   0.3888889  -0.5000000   0.1153367), wk =   0.0020576
        k(  667) = (   0.3888889  -0.5000000   0.1730051), wk =   0.0020576
        k(  668) = (   0.3888889  -0.5000000   0.2306735), wk =   0.0020576
        k(  669) = (   0.3888889  -0.5000000   0.2883418), wk =   0.0020576
        k(  670) = (   0.3888889  -0.5000000   0.3460102), wk =   0.0020576
        k(  671) = (   0.3888889  -0.5000000   0.4036786), wk =   0.0020576
        k(  672) = (   0.3888889  -0.5000000   0.4613469), wk =   0.0020576
        k(  673) = (   0.3888889  -0.5000000   0.5190153), wk =   0.0020576
        k(  674) = (   0.3888889  -0.5000000   0.5766837), wk =   0.0020576
        k(  675) = (   0.3888889  -0.5000000   0.6343520), wk =   0.0020576
        k(  676) = (   0.3888889  -0.5000000  -0.6920204), wk =   0.0010288
        k(  677) = (   0.4444444   0.4444444   0.0000000), wk =   0.0010288
        k(  678) = (   0.4444444   0.4444444   0.0576684), wk =   0.0020576
        k(  679) = (   0.4444444   0.4444444   0.1153367), wk =   0.0020576
        k(  680) = (   0.4444444   0.4444444   0.1730051), wk =   0.0020576
        k(  681) = (   0.4444444   0.4444444   0.2306735), wk =   0.0020576
        k(  682) = (   0.4444444   0.4444444   0.2883418), wk =   0.0020576
        k(  683) = (   0.4444444   0.4444444   0.3460102), wk =   0.0020576
        k(  684) = (   0.4444444   0.4444444   0.4036786), wk =   0.0020576
        k(  685) = (   0.4444444   0.4444444   0.4613469), wk =   0.0020576
        k(  686) = (   0.4444444   0.4444444   0.5190153), wk =   0.0020576
        k(  687) = (   0.4444444   0.4444444   0.5766837), wk =   0.0020576
        k(  688) = (   0.4444444   0.4444444   0.6343520), wk =   0.0020576
        k(  689) = (   0.4444444   0.4444444  -0.6920204), wk =   0.0010288
        k(  690) = (   0.4444444  -0.5000000   0.0000000), wk =   0.0010288
        k(  691) = (   0.4444444  -0.5000000   0.0576684), wk =   0.0020576
        k(  692) = (   0.4444444  -0.5000000   0.1153367), wk =   0.0020576
        k(  693) = (   0.4444444  -0.5000000   0.1730051), wk =   0.0020576
        k(  694) = (   0.4444444  -0.5000000   0.2306735), wk =   0.0020576
        k(  695) = (   0.4444444  -0.5000000   0.2883418), wk =   0.0020576
        k(  696) = (   0.4444444  -0.5000000   0.3460102), wk =   0.0020576
        k(  697) = (   0.4444444  -0.5000000   0.4036786), wk =   0.0020576
        k(  698) = (   0.4444444  -0.5000000   0.4613469), wk =   0.0020576
        k(  699) = (   0.4444444  -0.5000000   0.5190153), wk =   0.0020576
        k(  700) = (   0.4444444  -0.5000000   0.5766837), wk =   0.0020576
        k(  701) = (   0.4444444  -0.5000000   0.6343520), wk =   0.0020576
        k(  702) = (   0.4444444  -0.5000000  -0.6920204), wk =   0.0010288
        k(  703) = (  -0.5000000  -0.5000000   0.0000000), wk =   0.0002572
        k(  704) = (  -0.5000000  -0.5000000   0.0576684), wk =   0.0005144
        k(  705) = (  -0.5000000  -0.5000000   0.1153367), wk =   0.0005144
        k(  706) = (  -0.5000000  -0.5000000   0.1730051), wk =   0.0005144
        k(  707) = (  -0.5000000  -0.5000000   0.2306735), wk =   0.0005144
        k(  708) = (  -0.5000000  -0.5000000   0.2883418), wk =   0.0005144
        k(  709) = (  -0.5000000  -0.5000000   0.3460102), wk =   0.0005144
        k(  710) = (  -0.5000000  -0.5000000   0.4036786), wk =   0.0005144
        k(  711) = (  -0.5000000  -0.5000000   0.4613469), wk =   0.0005144
        k(  712) = (  -0.5000000  -0.5000000   0.5190153), wk =   0.0005144
        k(  713) = (  -0.5000000  -0.5000000   0.5766837), wk =   0.0005144
        k(  714) = (  -0.5000000  -0.5000000   0.6343520), wk =   0.0005144
        k(  715) = (  -0.5000000  -0.5000000  -0.6920204), wk =   0.0002572

                       cryst. coord.
        k(    1) = (   0.0000000   0.0000000   0.0000000), wk =   0.0002572
        k(    2) = (   0.0000000   0.0000000   0.0416667), wk =   0.0005144
        k(    3) = (   0.0000000   0.0000000   0.0833333), wk =   0.0005144
        k(    4) = (   0.0000000   0.0000000   0.1250000), wk =   0.0005144
        k(    5) = (   0.0000000   0.0000000   0.1666667), wk =   0.0005144
        k(    6) = (   0.0000000   0.0000000   0.2083333), wk =   0.0005144
        k(    7) = (   0.0000000   0.0000000   0.2500000), wk =   0.0005144
        k(    8) = (   0.0000000   0.0000000   0.2916667), wk =   0.0005144
        k(    9) = (   0.0000000   0.0000000   0.3333333), wk =   0.0005144
        k(   10) = (   0.0000000   0.0000000   0.3750000), wk =   0.0005144
        k(   11) = (   0.0000000   0.0000000   0.4166667), wk =   0.0005144
        k(   12) = (   0.0000000   0.0000000   0.4583333), wk =   0.0005144
        k(   13) = (   0.0000000   0.0000000  -0.5000000), wk =   0.0002572
        k(   14) = (   0.0000000   0.0555556   0.0000000), wk =   0.0010288
        k(   15) = (   0.0000000   0.0555556   0.0416667), wk =   0.0020576
        k(   16) = (   0.0000000   0.0555556   0.0833333), wk =   0.0020576
        k(   17) = (   0.0000000   0.0555556   0.1250000), wk =   0.0020576
        k(   18) = (   0.0000000   0.0555556   0.1666667), wk =   0.0020576
        k(   19) = (   0.0000000   0.0555556   0.2083333), wk =   0.0020576
        k(   20) = (   0.0000000   0.0555556   0.2500000), wk =   0.0020576
        k(   21) = (   0.0000000   0.0555556   0.2916667), wk =   0.0020576
        k(   22) = (   0.0000000   0.0555556   0.3333333), wk =   0.0020576
        k(   23) = (   0.0000000   0.0555556   0.3750000), wk =   0.0020576
        k(   24) = (   0.0000000   0.0555556   0.4166667), wk =   0.0020576
        k(   25) = (   0.0000000   0.0555556   0.4583333), wk =   0.0020576
        k(   26) = (   0.0000000   0.0555556  -0.5000000), wk =   0.0010288
        k(   27) = (   0.0000000   0.1111111   0.0000000), wk =   0.0010288
        k(   28) = (   0.0000000   0.1111111   0.0416667), wk =   0.0020576
        k(   29) = (   0.0000000   0.1111111   0.0833333), wk =   0.0020576
        k(   30) = (   0.0000000   0.1111111   0.1250000), wk =   0.0020576
        k(   31) = (   0.0000000   0.1111111   0.1666667), wk =   0.0020576
        k(   32) = (   0.0000000   0.1111111   0.2083333), wk =   0.0020576
        k(   33) = (   0.0000000   0.1111111   0.2500000), wk =   0.0020576
        k(   34) = (   0.0000000   0.1111111   0.2916667), wk =   0.0020576
        k(   35) = (   0.0000000   0.1111111   0.3333333), wk =   0.0020576
        k(   36) = (   0.0000000   0.1111111   0.3750000), wk =   0.0020576
        k(   37) = (   0.0000000   0.1111111   0.4166667), wk =   0.0020576
        k(   38) = (   0.0000000   0.1111111   0.4583333), wk =   0.0020576
        k(   39) = (   0.0000000   0.1111111  -0.5000000), wk =   0.0010288
        k(   40) = (   0.0000000   0.1666667   0.0000000), wk =   0.0010288
        k(   41) = (   0.0000000   0.1666667   0.0416667), wk =   0.0020576
        k(   42) = (   0.0000000   0.1666667   0.0833333), wk =   0.0020576
        k(   43) = (   0.0000000   0.1666667   0.1250000), wk =   0.0020576
        k(   44) = (   0.0000000   0.1666667   0.1666667), wk =   0.0020576
        k(   45) = (   0.0000000   0.1666667   0.2083333), wk =   0.0020576
        k(   46) = (   0.0000000   0.1666667   0.2500000), wk =   0.0020576
        k(   47) = (   0.0000000   0.1666667   0.2916667), wk =   0.0020576
        k(   48) = (   0.0000000   0.1666667   0.3333333), wk =   0.0020576
        k(   49) = (   0.0000000   0.1666667   0.3750000), wk =   0.0020576
        k(   50) = (   0.0000000   0.1666667   0.4166667), wk =   0.0020576
        k(   51) = (   0.0000000   0.1666667   0.4583333), wk =   0.0020576
        k(   52) = (   0.0000000   0.1666667  -0.5000000), wk =   0.0010288
        k(   53) = (   0.0000000   0.2222222   0.0000000), wk =   0.0010288
        k(   54) = (   0.0000000   0.2222222   0.0416667), wk =   0.0020576
        k(   55) = (   0.0000000   0.2222222   0.0833333), wk =   0.0020576
        k(   56) = (   0.0000000   0.2222222   0.1250000), wk =   0.0020576
        k(   57) = (   0.0000000   0.2222222   0.1666667), wk =   0.0020576
        k(   58) = (   0.0000000   0.2222222   0.2083333), wk =   0.0020576
        k(   59) = (   0.0000000   0.2222222   0.2500000), wk =   0.0020576
        k(   60) = (   0.0000000   0.2222222   0.2916667), wk =   0.0020576
        k(   61) = (   0.0000000   0.2222222   0.3333333), wk =   0.0020576
        k(   62) = (   0.0000000   0.2222222   0.3750000), wk =   0.0020576
        k(   63) = (   0.0000000   0.2222222   0.4166667), wk =   0.0020576
        k(   64) = (   0.0000000   0.2222222   0.4583333), wk =   0.0020576
        k(   65) = (   0.0000000   0.2222222  -0.5000000), wk =   0.0010288
        k(   66) = (   0.0000000   0.2777778   0.0000000), wk =   0.0010288
        k(   67) = (   0.0000000   0.2777778   0.0416667), wk =   0.0020576
        k(   68) = (   0.0000000   0.2777778   0.0833333), wk =   0.0020576
        k(   69) = (   0.0000000   0.2777778   0.1250000), wk =   0.0020576
        k(   70) = (   0.0000000   0.2777778   0.1666667), wk =   0.0020576
        k(   71) = (   0.0000000   0.2777778   0.2083333), wk =   0.0020576
        k(   72) = (   0.0000000   0.2777778   0.2500000), wk =   0.0020576
        k(   73) = (   0.0000000   0.2777778   0.2916667), wk =   0.0020576
        k(   74) = (   0.0000000   0.2777778   0.3333333), wk =   0.0020576
        k(   75) = (   0.0000000   0.2777778   0.3750000), wk =   0.0020576
        k(   76) = (   0.0000000   0.2777778   0.4166667), wk =   0.0020576
        k(   77) = (   0.0000000   0.2777778   0.4583333), wk =   0.0020576
        k(   78) = (   0.0000000   0.2777778  -0.5000000), wk =   0.0010288
        k(   79) = (   0.0000000   0.3333333   0.0000000), wk =   0.0010288
        k(   80) = (   0.0000000   0.3333333   0.0416667), wk =   0.0020576
        k(   81) = (   0.0000000   0.3333333   0.0833333), wk =   0.0020576
        k(   82) = (   0.0000000   0.3333333   0.1250000), wk =   0.0020576
        k(   83) = (   0.0000000   0.3333333   0.1666667), wk =   0.0020576
        k(   84) = (   0.0000000   0.3333333   0.2083333), wk =   0.0020576
        k(   85) = (   0.0000000   0.3333333   0.2500000), wk =   0.0020576
        k(   86) = (   0.0000000   0.3333333   0.2916667), wk =   0.0020576
        k(   87) = (   0.0000000   0.3333333   0.3333333), wk =   0.0020576
        k(   88) = (   0.0000000   0.3333333   0.3750000), wk =   0.0020576
        k(   89) = (   0.0000000   0.3333333   0.4166667), wk =   0.0020576
        k(   90) = (   0.0000000   0.3333333   0.4583333), wk =   0.0020576
        k(   91) = (   0.0000000   0.3333333  -0.5000000), wk =   0.0010288
        k(   92) = (   0.0000000   0.3888889   0.0000000), wk =   0.0010288
        k(   93) = (   0.0000000   0.3888889   0.0416667), wk =   0.0020576
        k(   94) = (   0.0000000   0.3888889   0.0833333), wk =   0.0020576
        k(   95) = (   0.0000000   0.3888889   0.1250000), wk =   0.0020576
        k(   96) = (   0.0000000   0.3888889   0.1666667), wk =   0.0020576
        k(   97) = (   0.0000000   0.3888889   0.2083333), wk =   0.0020576
        k(   98) = (   0.0000000   0.3888889   0.2500000), wk =   0.0020576
        k(   99) = (   0.0000000   0.3888889   0.2916667), wk =   0.0020576
        k(  100) = (   0.0000000   0.3888889   0.3333333), wk =   0.0020576
        k(  101) = (   0.0000000   0.3888889   0.3750000), wk =   0.0020576
        k(  102) = (   0.0000000   0.3888889   0.4166667), wk =   0.0020576
        k(  103) = (   0.0000000   0.3888889   0.4583333), wk =   0.0020576
        k(  104) = (   0.0000000   0.3888889  -0.5000000), wk =   0.0010288
        k(  105) = (   0.0000000   0.4444444   0.0000000), wk =   0.0010288
        k(  106) = (   0.0000000   0.4444444   0.0416667), wk =   0.0020576
        k(  107) = (   0.0000000   0.4444444   0.0833333), wk =   0.0020576
        k(  108) = (   0.0000000   0.4444444   0.1250000), wk =   0.0020576
        k(  109) = (   0.0000000   0.4444444   0.1666667), wk =   0.0020576
        k(  110) = (   0.0000000   0.4444444   0.2083333), wk =   0.0020576
        k(  111) = (   0.0000000   0.4444444   0.2500000), wk =   0.0020576
        k(  112) = (   0.0000000   0.4444444   0.2916667), wk =   0.0020576
        k(  113) = (   0.0000000   0.4444444   0.3333333), wk =   0.0020576
        k(  114) = (   0.0000000   0.4444444   0.3750000), wk =   0.0020576
        k(  115) = (   0.0000000   0.4444444   0.4166667), wk =   0.0020576
        k(  116) = (   0.0000000   0.4444444   0.4583333), wk =   0.0020576
        k(  117) = (   0.0000000   0.4444444  -0.5000000), wk =   0.0010288
        k(  118) = (   0.0000000  -0.5000000   0.0000000), wk =   0.0005144
        k(  119) = (   0.0000000  -0.5000000   0.0416667), wk =   0.0010288
        k(  120) = (   0.0000000  -0.5000000   0.0833333), wk =   0.0010288
        k(  121) = (   0.0000000  -0.5000000   0.1250000), wk =   0.0010288
        k(  122) = (   0.0000000  -0.5000000   0.1666667), wk =   0.0010288
        k(  123) = (   0.0000000  -0.5000000   0.2083333), wk =   0.0010288
        k(  124) = (   0.0000000  -0.5000000   0.2500000), wk =   0.0010288
        k(  125) = (   0.0000000  -0.5000000   0.2916667), wk =   0.0010288
        k(  126) = (   0.0000000  -0.5000000   0.3333333), wk =   0.0010288
        k(  127) = (   0.0000000  -0.5000000   0.3750000), wk =   0.0010288
        k(  128) = (   0.0000000  -0.5000000   0.4166667), wk =   0.0010288
        k(  129) = (   0.0000000  -0.5000000   0.4583333), wk =   0.0010288
        k(  130) = (   0.0000000  -0.5000000  -0.5000000), wk =   0.0005144
        k(  131) = (   0.0555556   0.0555556   0.0000000), wk =   0.0010288
        k(  132) = (   0.0555556   0.0555556   0.0416667), wk =   0.0020576
        k(  133) = (   0.0555556   0.0555556   0.0833333), wk =   0.0020576
        k(  134) = (   0.0555556   0.0555556   0.1250000), wk =   0.0020576
        k(  135) = (   0.0555556   0.0555556   0.1666667), wk =   0.0020576
        k(  136) = (   0.0555556   0.0555556   0.2083333), wk =   0.0020576
        k(  137) = (   0.0555556   0.0555556   0.2500000), wk =   0.0020576
        k(  138) = (   0.0555556   0.0555556   0.2916667), wk =   0.0020576
        k(  139) = (   0.0555556   0.0555556   0.3333333), wk =   0.0020576
        k(  140) = (   0.0555556   0.0555556   0.3750000), wk =   0.0020576
        k(  141) = (   0.0555556   0.0555556   0.4166667), wk =   0.0020576
        k(  142) = (   0.0555556   0.0555556   0.4583333), wk =   0.0020576
        k(  143) = (   0.0555556   0.0555556  -0.5000000), wk =   0.0010288
        k(  144) = (   0.0555556   0.1111111   0.0000000), wk =   0.0020576
        k(  145) = (   0.0555556   0.1111111   0.0416667), wk =   0.0041152
        k(  146) = (   0.0555556   0.1111111   0.0833333), wk =   0.0041152
        k(  147) = (   0.0555556   0.1111111   0.1250000), wk =   0.0041152
        k(  148) = (   0.0555556   0.1111111   0.1666667), wk =   0.0041152
        k(  149) = (   0.0555556   0.1111111   0.2083333), wk =   0.0041152
        k(  150) = (   0.0555556   0.1111111   0.2500000), wk =   0.0041152
        k(  151) = (   0.0555556   0.1111111   0.2916667), wk =   0.0041152
        k(  152) = (   0.0555556   0.1111111   0.3333333), wk =   0.0041152
        k(  153) = (   0.0555556   0.1111111   0.3750000), wk =   0.0041152
        k(  154) = (   0.0555556   0.1111111   0.4166667), wk =   0.0041152
        k(  155) = (   0.0555556   0.1111111   0.4583333), wk =   0.0041152
        k(  156) = (   0.0555556   0.1111111  -0.5000000), wk =   0.0020576
        k(  157) = (   0.0555556   0.1666667   0.0000000), wk =   0.0020576
        k(  158) = (   0.0555556   0.1666667   0.0416667), wk =   0.0041152
        k(  159) = (   0.0555556   0.1666667   0.0833333), wk =   0.0041152
        k(  160) = (   0.0555556   0.1666667   0.1250000), wk =   0.0041152
        k(  161) = (   0.0555556   0.1666667   0.1666667), wk =   0.0041152
        k(  162) = (   0.0555556   0.1666667   0.2083333), wk =   0.0041152
        k(  163) = (   0.0555556   0.1666667   0.2500000), wk =   0.0041152
        k(  164) = (   0.0555556   0.1666667   0.2916667), wk =   0.0041152
        k(  165) = (   0.0555556   0.1666667   0.3333333), wk =   0.0041152
        k(  166) = (   0.0555556   0.1666667   0.3750000), wk =   0.0041152
        k(  167) = (   0.0555556   0.1666667   0.4166667), wk =   0.0041152
        k(  168) = (   0.0555556   0.1666667   0.4583333), wk =   0.0041152
        k(  169) = (   0.0555556   0.1666667  -0.5000000), wk =   0.0020576
        k(  170) = (   0.0555556   0.2222222   0.0000000), wk =   0.0020576
        k(  171) = (   0.0555556   0.2222222   0.0416667), wk =   0.0041152
        k(  172) = (   0.0555556   0.2222222   0.0833333), wk =   0.0041152
        k(  173) = (   0.0555556   0.2222222   0.1250000), wk =   0.0041152
        k(  174) = (   0.0555556   0.2222222   0.1666667), wk =   0.0041152
        k(  175) = (   0.0555556   0.2222222   0.2083333), wk =   0.0041152
        k(  176) = (   0.0555556   0.2222222   0.2500000), wk =   0.0041152
        k(  177) = (   0.0555556   0.2222222   0.2916667), wk =   0.0041152
        k(  178) = (   0.0555556   0.2222222   0.3333333), wk =   0.0041152
        k(  179) = (   0.0555556   0.2222222   0.3750000), wk =   0.0041152
        k(  180) = (   0.0555556   0.2222222   0.4166667), wk =   0.0041152
        k(  181) = (   0.0555556   0.2222222   0.4583333), wk =   0.0041152
        k(  182) = (   0.0555556   0.2222222  -0.5000000), wk =   0.0020576
        k(  183) = (   0.0555556   0.2777778   0.0000000), wk =   0.0020576
        k(  184) = (   0.0555556   0.2777778   0.0416667), wk =   0.0041152
        k(  185) = (   0.0555556   0.2777778   0.0833333), wk =   0.0041152
        k(  186) = (   0.0555556   0.2777778   0.1250000), wk =   0.0041152
        k(  187) = (   0.0555556   0.2777778   0.1666667), wk =   0.0041152
        k(  188) = (   0.0555556   0.2777778   0.2083333), wk =   0.0041152
        k(  189) = (   0.0555556   0.2777778   0.2500000), wk =   0.0041152
        k(  190) = (   0.0555556   0.2777778   0.2916667), wk =   0.0041152
        k(  191) = (   0.0555556   0.2777778   0.3333333), wk =   0.0041152
        k(  192) = (   0.0555556   0.2777778   0.3750000), wk =   0.0041152
        k(  193) = (   0.0555556   0.2777778   0.4166667), wk =   0.0041152
[...]
    17.0096  17.5006

     occupation numbers 
     1.0000   1.0000   1.0000   1.0000   1.0411   0.0000   0.0000   0.0000
     0.0000   0.0000

          k = 0.3889 0.4444 0.3460 (   683 PWs)   bands (ev):

     2.2403   3.2036   4.1551   5.0912  10.5217  11.4029  12.3074  13.2313
    17.2753  17.7727

     occupation numbers 
     1.0000   1.0000   1.0000   1.0000   1.0000   1.0048   0.0000   0.0000
     0.0000   0.0000

          k = 0.3889 0.4444 0.4037 (   684 PWs)   bands (ev):

     2.6156   3.5734   4.5167   5.4369   9.5948  10.4738  11.3771  12.2961
    17.5913  18.0917

     occupation numbers 
     1.0000   1.0000   1.0000   1.0000   1.0000   1.0000   1.0022   0.0000
     0.0000   0.0000

          k = 0.3889 0.4444 0.4613 (   683 PWs)   bands (ev):

     3.0460   3.9962   4.9263   5.8129   8.7376   9.5944  10.4919  11.4069
    17.9522  18.4569

     occupation numbers 
     1.0000   1.0000   1.0000   1.0000   1.0000   1.0000   1.0000   1.0054
     0.0000   0.0000

          k = 0.3889 0.4444 0.5190 (   683 PWs)   bands (ev):

     3.5300   4.4686   5.3738   6.1647   8.0068   8.7782   9.6585  10.5675
    18.3506  18.8664

     occupation numbers 
     1.0000   1.0000   1.0000   1.0000   1.0000   1.0000   1.0000   1.0000
     0.0000   0.0000

          k = 0.3889 0.4444 0.5767 (   684 PWs)   bands (ev):

     4.0647   4.9835   5.8274   6.2637   7.6326   8.0588   8.8860   9.7818
    18.7729  19.3165

     occupation numbers 
     1.0000   1.0000   1.0000   1.0000   1.0000   1.0000   1.0000   1.0000
     0.0000   0.0000

          k = 0.3889 0.4444 0.6344 (   686 PWs)   bands (ev):

     4.6446   5.5212   5.8582   6.1520   7.5726   7.8675   8.1950   9.0560
    19.1874  19.7991

     occupation numbers 
     1.0000   1.0000   1.0000   1.0000   1.0000   1.0000   1.0000   1.0000
     0.0000   0.0000

          k = 0.3889 0.4444-0.6920 (   684 PWs)   bands (ev):

     5.2568   5.2569   6.0064   6.0064   7.6615   7.6615   8.4036   8.4036
    19.5161  19.5161

     occupation numbers 
     1.0000   1.0000   1.0000   1.0000   1.0000   1.0000   1.0000   1.0000
     0.0000   0.0000

          k = 0.3889-0.5000 0.0000 (   676 PWs)   bands (ev):

     1.6537   1.6538   3.5883   3.5884  16.2466  16.2467  16.8059  16.8059
    18.0401  18.4763

     occupation numbers 
     1.0000   1.0000   1.0000   1.0000   0.0000   0.0000   0.0000   0.0000
     0.0000   0.0000

          k = 0.3889-0.5000 0.0577 (   676 PWs)   bands (ev):

     1.6828   1.6829   3.6167   3.6168  15.8608  15.8608  16.7445  16.7446
    17.6507  17.6507

     occupation numbers 
     1.0000   1.0000   1.0000   1.0000   0.0000   0.0000   0.0000   0.0000
     0.0000   0.0000

          k = 0.3889-0.5000 0.1153 (   678 PWs)   bands (ev):

     1.7702   1.7703   3.7019   3.7020  14.9723  14.9723  16.7645  16.7646
    16.7807  16.7808

     occupation numbers 
     1.0000   1.0000   1.0000   1.0000   0.0000   0.0000   0.0000   0.0000
     0.0000   0.0000

          k = 0.3889-0.5000 0.1730 (   682 PWs)   bands (ev):

     1.9157   1.9158   3.8437   3.8438  13.9567  13.9568  15.7545  15.7546
    16.8963  16.8964

     occupation numbers 
     1.0000   1.0000   1.0000   1.0000   0.0000   0.0000   0.0000   0.0000
     0.0000   0.0000

          k = 0.3889-0.5000 0.2307 (   684 PWs)   bands (ev):

     2.1189   2.1190   4.0413   4.0413  12.9261  12.9262  14.7291  14.7292
    17.0686  17.0686

     occupation numbers 
     1.0000   1.0000   1.0000   1.0000   0.0000   0.0000   0.0000   0.0000
     0.0000   0.0000

          k = 0.3889-0.5000 0.2883 (   690 PWs)   bands (ev):

     2.3794   2.3795   4.2937   4.2938  11.9149  11.9150  13.7218  13.7219
    17.2925  17.2926

     occupation numbers 
     1.0000   1.0000   1.0000   1.0000   0.0249   0.0248   0.0000   0.0000
     0.0000   0.0000

          k = 0.3889-0.5000 0.3460 (   684 PWs)   bands (ev):

     2.6965   2.6966   4.5994   4.5995  10.9387  10.9388  12.7472  12.7473
    17.5659  17.5660

     occupation numbers 
     1.0000   1.0000   1.0000   1.0000   1.0000   1.0000   0.0000   0.0000
     0.0000   0.0000

          k = 0.3889-0.5000 0.4037 (   680 PWs)   bands (ev):

     3.0694   3.0695   4.9548   4.9549  10.0079  10.0080  11.8131  11.8132
    17.8870  17.8871

     occupation numbers 
     1.0000   1.0000   1.0000   1.0000   1.0000   1.0000   0.2221   0.2216
     0.0000   0.0000

          k = 0.3889-0.5000 0.4613 (   684 PWs)   bands (ev):

     3.4965   3.4966   5.3524   5.3525   9.1341   9.1343  10.9248  10.9250
    18.2535  18.2536

     occupation numbers 
     1.0000   1.0000   1.0000   1.0000   1.0000   1.0000   1.0000   1.0000
     0.0000   0.0000

          k = 0.3889-0.5000 0.5190 (   682 PWs)   bands (ev):

     3.9757   3.9758   5.7708   5.7709   8.3415   8.3417  10.0871  10.0873
    18.6616  18.6617

     occupation numbers 
     1.0000   1.0000   1.0000   1.0000   1.0000   1.0000   1.0000   1.0000
     0.0000   0.0000

          k = 0.3889-0.5000 0.5767 (   684 PWs)   bands (ev):

     4.5026   4.5027   6.1245   6.1245   7.7171   7.7174   9.3056   9.3058
    19.1042  19.1043

     occupation numbers 
     1.0000   1.0000   1.0000   1.0000   1.0000   1.0000   1.0000   1.0000
     0.0000   0.0000

          k = 0.3889-0.5000 0.6344 (   684 PWs)   bands (ev):

     5.0678   5.0678   6.1072   6.1073   7.5681   7.5684   8.5909   8.5910
    19.5656  19.5658

     occupation numbers 
     1.0000   1.0000   1.0000   1.0000   1.0000   1.0000   1.0000   1.0000
     0.0000   0.0000

          k = 0.3889-0.5000-0.6920 (   684 PWs)   bands (ev):

     5.6424   5.6424   5.6425   5.6425   7.9718   7.9719   7.9720   7.9722
    20.0070  20.0070

     occupation numbers 
     1.0000   1.0000   1.0000   1.0000   1.0000   1.0000   1.0000   1.0000
     0.0000   0.0000

          k = 0.4444 0.4444 0.0000 (   674 PWs)   bands (ev):

     1.5996   2.5719   2.5719   3.5355  16.7603  17.0965  17.0965  17.5055
    17.5953  17.5957

     occupation numbers 
     1.0000   1.0000   1.0000   1.0000   0.0000   0.0000   0.0000   0.0000
     0.0000   0.0000

          k = 0.4444 0.4444 0.0577 (   680 PWs)   bands (ev):

     1.6288   2.6007   2.6007   3.5640  16.0570  16.7083  16.7084  17.5298
    17.5445  17.5446

     occupation numbers 
     1.0000   1.0000   1.0000   1.0000   0.0000   0.0000   0.0000   0.0000
     0.0000   0.0000

          k = 0.4444 0.4444 0.1153 (   682 PWs)   bands (ev):

     1.7162   2.6871   2.6871   3.6492  15.0170  15.8204  15.8204  16.8000
    17.5869  17.6027

     occupation numbers 
     1.0000   1.0000   1.0000   1.0000   0.0000   0.0000   0.0000   0.0000
     0.0000   0.0000

          k = 0.4444 0.4444 0.1730 (   681 PWs)   bands (ev):

     1.8618   2.8310   2.8310   3.7910  13.9516  14.8072  14.8072  15.7467
    17.7029  17.7240

     occupation numbers 
     1.0000   1.0000   1.0000   1.0000   0.0000   0.0000   0.0000   0.0000
     0.0000   0.0000

          k = 0.4444 0.4444 0.2307 (   682 PWs)   bands (ev):

     2.0651   3.0318   3.0318   3.9888  12.9002  13.7787  13.7787  14.7027
    17.8732  17.8938

     occupation numbers 
     1.0000   1.0000   1.0000   1.0000   0.0000   0.0000   0.0000   0.0000
     0.0000   0.0000

          k = 0.4444 0.4444 0.2883 (   688 PWs)   bands (ev):

     2.3257   3.2890   3.2890   4.2414  11.8789  12.7687  12.7687  13.6863
    18.0934  18.1116

     occupation numbers 
     1.0000   1.0000   1.0000   1.0000   0.0609   0.0000   0.0000   0.0000
     0.0000   0.0000

          k = 0.4444 0.4444 0.3460 (   682 PWs)   bands (ev):

     2.6431   3.6017   3.6017   4.5473  10.8971  11.7920  11.7920  12.7065
    18.3610  18.3767

     occupation numbers 
     1.0000   1.0000   1.0000   1.0000   1.0000   0.3076   0.3075   0.0000
     0.0000   0.0000

          k = 0.4444 0.4444 0.4037 (   684 PWs)   bands (ev):

     3.0161   3.9682   3.9682   4.9029   9.9630  10.8571  10.8571  11.7693
    18.6730  18.6884

     occupation numbers 
     1.0000   1.0000   1.0000   1.0000   1.0000   1.0000   1.0000   0.4160
     0.0000   0.0000

          k = 0.4444 0.4444 0.4613 (   686 PWs)   bands (ev):

     3.4435   4.3860   4.3860   5.3008   9.0870   9.9707   9.9708  10.8790
    19.0242  19.0451

     occupation numbers 
     1.0000   1.0000   1.0000   1.0000   1.0000   1.0000   1.0000   1.0000
     0.0000   0.0000

          k = 0.4444 0.4444 0.5190 (   680 PWs)   bands (ev):

     3.9230   4.8494   4.8494   5.7195   8.2930   9.1409   9.1409  10.0399
    19.4050  19.4438

     occupation numbers 
     1.0000   1.0000   1.0000   1.0000   1.0000   1.0000   1.0000   1.0000
     0.0000   0.0000

          k = 0.4444 0.4444 0.5767 (   684 PWs)   bands (ev):

     4.4503   5.3446   5.3446   6.0735   7.6676   8.3831   8.3831   9.2574
    19.7926  19.8785

     occupation numbers 
     1.0000   1.0000   1.0000   1.0000   1.0000   1.0000   1.0000   1.0000
     0.0000   0.0000

          k = 0.4444 0.4444 0.6344 (   686 PWs)   bands (ev):

     5.0159   5.8235   5.8235   6.0563   7.5182   7.7463   7.7463   8.5418
    20.1283  20.1283

     occupation numbers 
     1.0000   1.0000   1.0000   1.0000   1.0000   1.0000   1.0000   1.0000
     0.0000   0.0000

          k = 0.4444 0.4444-0.6920 (   686 PWs)   bands (ev):

     5.5910   5.5910   6.0787   6.0788   7.4383   7.4383   7.9222   7.9222
    20.2770  20.7798

     occupation numbers 
     1.0000   1.0000   1.0000   1.0000   1.0000   1.0000   1.0000   1.0000
     0.0000   0.0000

          k = 0.4444-0.5000 0.0000 (   674 PWs)   bands (ev):

     2.0598   2.0600   3.0281   3.0282  17.1548  17.1549  17.3448  17.3450
    17.9908  17.9909

     occupation numbers 
     1.0000   1.0000   1.0000   1.0000   0.0000   0.0000   0.0000   0.0000
     0.0000   0.0000

          k = 0.4444-0.5000 0.0577 (   680 PWs)   bands (ev):

     2.0889   2.0890   3.0567   3.0568  16.4322  16.4322  17.3135  17.3135
    17.5829  17.5831

     occupation numbers 
     1.0000   1.0000   1.0000   1.0000   0.0000   0.0000   0.0000   0.0000
     0.0000   0.0000

          k = 0.4444-0.5000 0.1153 (   680 PWs)   bands (ev):

     2.1758   2.1760   3.1426   3.1428  15.4197  15.4197  16.3125  16.3126
    17.7083  17.7084

     occupation numbers 
     1.0000   1.0000   1.0000   1.0000   0.0000   0.0000   0.0000   0.0000
     0.0000   0.0000

          k = 0.4444-0.5000 0.1730 (   678 PWs)   bands (ev):

     2.3206   2.3207   3.2856   3.2857  14.3663  14.3664  15.2644  15.2646
    17.8447  17.8448

     occupation numbers 
     1.0000   1.0000   1.0000   1.0000   0.0000   0.0000   0.0000   0.0000
     0.0000   0.0000

          k = 0.4444-0.5000 0.2307 (   684 PWs)   bands (ev):

     2.5228   2.5229   3.4850   3.4851  13.3208  13.3209  14.2224  14.2225
    18.0213  18.0214

     occupation numbers 
     1.0000   1.0000   1.0000   1.0000   0.0000   0.0000   0.0000   0.0000
     0.0000   0.0000

          k = 0.4444-0.5000 0.2883 (   688 PWs)   bands (ev):

     2.7819   2.7820   3.7403   3.7403  12.3022  12.3023  13.2063  13.2065
    18.2433  18.2434

     occupation numbers 
     1.0000   1.0000   1.0000   1.0000   0.0000   0.0000   0.0000   0.0000
     0.0000   0.0000

          k = 0.4444-0.5000 0.3460 (   682 PWs)   bands (ev):

     3.0972   3.0973   4.0500   4.0501  11.3211  11.3212  12.2264  12.2266
    18.5114  18.5114

     occupation numbers 
     1.0000   1.0000   1.0000   1.0000   1.0003   1.0003   0.0000   0.0000
     0.0000   0.0000

          k = 0.4444-0.5000 0.4037 (   686 PWs)   bands (ev):

     3.4674   3.4675   4.4121   4.4122  10.3848  10.3849  11.2892  11.2893
    18.8244  18.8245

     occupation numbers 
     1.0000   1.0000   1.0000   1.0000   1.0000   1.0000   1.0001   1.0001
     0.0000   0.0000

          k = 0.4444-0.5000 0.4613 (   686 PWs)   bands (ev):

     3.8907   3.8908   4.8223   4.8223   9.5008   9.5010  10.3996  10.3997
    19.1801  19.1802

     occupation numbers 
     1.0000   1.0000   1.0000   1.0000   1.0000   1.0000   1.0000   1.0000
     0.0000   0.0000

          k = 0.4444-0.5000 0.5190 (   680 PWs)   bands (ev):

     4.3638   4.3639   5.2704   5.2705   8.6815   8.6817   9.5632   9.5634
    19.5733  19.5733

     occupation numbers 
     1.0000   1.0000   1.0000   1.0000   1.0000   1.0000   1.0000   1.0000
     0.0000   0.0000

          k = 0.4444-0.5000 0.5767 (   682 PWs)   bands (ev):

     4.8795   4.8796   5.7248   5.7248   7.9598   7.9601   8.7884   8.7886
    19.9926  19.9927

     occupation numbers 
     1.0000   1.0000   1.0000   1.0000   1.0000   1.0000   1.0000   1.0000
     0.0000   0.0000

          k = 0.4444-0.5000 0.6344 (   686 PWs)   bands (ev):

     5.4181   5.4181   6.0501   6.0501   7.4721   7.4724   8.0958   8.0960
    20.4104  20.4105

     occupation numbers 
     1.0000   1.0000   1.0000   1.0000   1.0000   1.0000   1.0000   1.0000
     0.0000   0.0000

          k = 0.4444-0.5000-0.6920 (   688 PWs)   bands (ev):

     5.9041   5.9042   5.9042   5.9042   7.5609   7.5612   7.5612   7.5615
    20.7501  20.7502

     occupation numbers 
     1.0000   1.0000   1.0000   1.0000   1.0000   1.0000   1.0000   1.0000
     0.0000   0.0000

          k =-0.5000-0.5000 0.0000 (   672 PWs)   bands (ev):

     2.5182   2.5183   2.5183   2.5184  17.5499  17.5499  17.5500  17.5501
    18.2885  18.2889

     occupation numbers 
     1.0000   1.0000   1.0000   1.0000   0.0000   0.0000   0.0000   0.0000
     0.0000   0.0000

          k =-0.5000-0.5000 0.0577 (   680 PWs)   bands (ev):

     2.5470   2.5471   2.5471   2.5473  16.8875  16.8876  16.8876  16.8876
    18.3130  18.3132

     occupation numbers 
     1.0000   1.0000   1.0000   1.0000   0.0000   0.0000   0.0000   0.0000
     0.0000   0.0000

          k =-0.5000-0.5000 0.1153 (   688 PWs)   bands (ev):

     2.6335   2.6336   2.6336   2.6338  15.8608  15.8609  15.8609  15.8610
    18.3852  18.3857

     occupation numbers 
     1.0000   1.0000   1.0000   1.0000   0.0000   0.0000   0.0000   0.0000
     0.0000   0.0000

          k =-0.5000-0.5000 0.1730 (   676 PWs)   bands (ev):

     2.7775   2.7776   2.7776   2.7777  14.8007  14.8008  14.8008  14.8009
    18.5060  18.5063

     occupation numbers 
     1.0000   1.0000   1.0000   1.0000   0.0000   0.0000   0.0000   0.0000
     0.0000   0.0000

          k =-0.5000-0.5000 0.2307 (   684 PWs)   bands (ev):

     2.9784   2.9785   2.9785   2.9787  13.7524  13.7525  13.7525  13.7526
    18.6740  18.6743

     occupation numbers 
     1.0000   1.0000   1.0000   1.0000   0.0000   0.0000   0.0000   0.0000
     0.0000   0.0000

          k =-0.5000-0.5000 0.2883 (   692 PWs)   bands (ev):

     3.2358   3.2359   3.2359   3.2360  12.7327  12.7328  12.7328  12.7329
    18.8895  18.8898

     occupation numbers 
     1.0000   1.0000   1.0000   1.0000   0.0000   0.0000   0.0000   0.0000
     0.0000   0.0000

          k =-0.5000-0.5000 0.3460 (   684 PWs)   bands (ev):

     3.5487   3.5488   3.5488   3.5489  11.7505  11.7507  11.7507  11.7508
    19.1507  19.1509

     occupation numbers 
     1.0000   1.0000   1.0000   1.0000   0.5155   0.5148   0.5148   0.5140
     0.0000   0.0000

          k =-0.5000-0.5000 0.4037 (   692 PWs)   bands (ev):

     3.9155   3.9155   3.9155   3.9156  10.8124  10.8125  10.8125  10.8127
    19.4557  19.4558

     occupation numbers 
     1.0000   1.0000   1.0000   1.0000   1.0000   1.0000   1.0000   1.0000
     0.0000   0.0000

          k =-0.5000-0.5000 0.4613 (   684 PWs)   bands (ev):

     4.3335   4.3336   4.3336   4.3337   9.9239   9.9241   9.9241   9.9242
    19.8005  19.8006

     occupation numbers 
     1.0000   1.0000   1.0000   1.0000   1.0000   1.0000   1.0000   1.0000
     0.0000   0.0000

          k =-0.5000-0.5000 0.5190 (   680 PWs)   bands (ev):

     4.7973   4.7973   4.7973   4.7974   9.0926   9.0927   9.0927   9.0929
    20.1764  20.1767

     occupation numbers 
     1.0000   1.0000   1.0000   1.0000   1.0000   1.0000   1.0000   1.0000
     0.0000   0.0000

          k =-0.5000-0.5000 0.5767 (   680 PWs)   bands (ev):

     5.2929   5.2930   5.2930   5.2930   8.3336   8.3338   8.3338   8.3340
    20.5633  20.5634

     occupation numbers 
     1.0000   1.0000   1.0000   1.0000   1.0000   1.0000   1.0000   1.0000
     0.0000   0.0000

          k =-0.5000-0.5000 0.6344 (   680 PWs)   bands (ev):

     5.7722   5.7722   5.7722   5.7722   7.6960   7.6962   7.6962   7.6965
    20.9047  20.9048

     occupation numbers 
     1.0000   1.0000   1.0000   1.0000   1.0000   1.0000   1.0000   1.0000
     0.0000   0.0000

          k =-0.5000-0.5000-0.6920 (   696 PWs)   bands (ev):

     6.0278   6.0278   6.0278   6.0279   7.3875   7.3877   7.3877   7.3881
    21.0595  21.0595

     occupation numbers 
     1.0000   1.0000   1.0000   1.0000   1.0000   1.0000   1.0000   1.0000
     0.0000   0.0000

     the Fermi energy is    11.7723 ev

!    total energy              =     -26.62783432 Ry
     Harris-Foulkes estimate   =     -26.62783436 Ry
     estimated scf accuracy    <       0.00000007 Ry

     The total energy is the sum of the following terms:

     one-electron contribution =      15.38221885 Ry
     hartree contribution      =       0.05458005 Ry
     xc contribution           =     -17.96359499 Ry
     ewald contribution        =     -24.10110259 Ry
     smearing contrib. (-TS)   =       0.00006435 Ry

     convergence has been achieved in   5 iterations
 
     init_run     :    137.14s CPU      5.99s WALL (       1 calls)
     electrons    :   1662.81s CPU     70.90s WALL (       1 calls)

     Called by init_run:
     wfcinit      :    136.89s CPU      5.84s WALL (       1 calls)
     wfcinit:atom :      2.65s CPU      0.11s WALL (     715 calls)
     wfcinit:wfcr :    122.62s CPU      5.23s WALL (     715 calls)
     potinit      :      0.03s CPU      0.01s WALL (       1 calls)

     Called by electrons:
     c_bands      :   1429.54s CPU     60.95s WALL (       6 calls)
     sum_band     :    231.57s CPU      9.88s WALL (       6 calls)
     v_of_rho     :      0.54s CPU      0.03s WALL (       6 calls)
     v_h          :      0.03s CPU      0.00s WALL (       6 calls)
     v_xc         :      0.51s CPU      0.02s WALL (       6 calls)
     newd         :      0.49s CPU      0.03s WALL (       6 calls)
     mix_rho      :      0.13s CPU      0.01s WALL (       6 calls)

     Called by c_bands:
     init_us_2    :     44.37s CPU      1.89s WALL (    9295 calls)
     cegterg      :   1305.87s CPU     55.62s WALL (    4290 calls)

     Called by sum_band:
     sum_band:bec :      1.42s CPU      0.06s WALL (    4290 calls)
     addusdens    :      0.56s CPU      0.03s WALL (       6 calls)

     Called by *egterg:
     h_psi        :   1244.38s CPU     53.03s WALL (   14489 calls)
     s_psi        :     10.31s CPU      0.46s WALL (   14489 calls)
     g_psi        :      5.22s CPU      0.23s WALL (    9484 calls)
     cdiaghg      :     68.24s CPU      2.97s WALL (   13059 calls)
     cegterg:over :     15.38s CPU      0.66s WALL (    9484 calls)
     cegterg:upda :     16.04s CPU      0.71s WALL (    9484 calls)
     cegterg:last :      7.23s CPU      0.33s WALL (    4293 calls)

     Called by h_psi:
     h_psi:pot    :   1232.85s CPU     52.52s WALL (   14489 calls)
     h_psi:calbec :     43.37s CPU      1.84s WALL (   14489 calls)
     vloc_psi     :   1162.17s CPU     49.56s WALL (   14489 calls)
     add_vuspsi   :     15.41s CPU      0.68s WALL (   14489 calls)

     General routines
     calbec       :     44.48s CPU      2.00s WALL (   18779 calls)
     fft          :      0.26s CPU      0.03s WALL (      80 calls)
     fftw         :   1114.97s CPU     47.62s WALL (  279980 calls)
 
     Parallel routines
 
     PWSCF        : 30m 0.19s CPU     1m16.95s WALL

 
   This run was terminated on:  17: 1:58  24Jan2019            

=------------------------------------------------------------------------------=
   JOB DONE.
=------------------------------------------------------------------------------=
