
     Program PWSCF v.6.2 (svn rev. 14038) starts on 31Jan2019 at  0:10:14 

     This program is part of the open-source Quantum ESPRESSO suite
     for quantum simulation of materials; please cite
         "P. Giannozzi et al., J. Phys.:Condens. Matter 21 395502 (2009);
         "P. Giannozzi et al., J. Phys.:Condens. Matter 29 465901 (2017);
          URL http://www.quantum-espresso.org", 
     in publications or presentations arising from this work. More details at
     http://www.quantum-espresso.org/quote

     Parallel version (MPI), running on     1 processors

     MPI processes distributed on     1 nodes
     Reading input from ./53a345208415.in
Warning: card &CELL ignored
Warning: card / ignored

     Current dimensions of program PWSCF are:
     Max number of different atomic species (ntypx) = 10
     Max number of k-points (npk) =  40000
     Max angular momentum in pseudopotentials (lmaxx) =  3
     Message from routine iosys:
     minimal I/O required, wf_collect reset to FALSE

     Subspace diagonalization in iterative solution of the eigenvalue problem:
     a serial algorithm will be used

 
     G-vector sticks info
     --------------------
     sticks:   dense  smooth     PW     G-vecs:    dense   smooth      PW
     Sum         313     313    109                 3527     3527     725
 


     bravais-lattice index     =            0
     lattice parameter (alat)  =       5.6507  a.u.
     unit-cell volume          =     127.5811 (a.u.)^3
     number of atoms/cell      =            1
     number of atomic types    =            1
     number of electrons       =         4.00
     number of Kohn-Sham states=            6
     kinetic-energy cutoff     =      35.0000  Ry
     charge density cutoff     =     140.0000  Ry
     convergence threshold     =      1.0E-06
     mixing beta               =       0.7000
     number of iterations used =            8  plain     mixing
     Exchange-correlation      = SLA  PW   PBE  PBE ( 1  4  3  4 0 0)
     nstep                     =           50


     celldm(1)=   5.650676  celldm(2)=   0.000000  celldm(3)=   0.000000
     celldm(4)=   0.000000  celldm(5)=   0.000000  celldm(6)=   0.000000

     crystal axes: (cart. coord. in units of alat)
               a(1) = (   0.866025   0.000000   0.500000 )  
               a(2) = (   0.288675   0.816496   0.500000 )  
               a(3) = (   0.000000   0.000000   1.000000 )  

     reciprocal axes: (cart. coord. in units 2 pi/alat)
               b(1) = (  1.154700 -0.408248  0.000000 )  
               b(2) = (  0.000000  1.224745  0.000000 )  
               b(3) = ( -0.577350 -0.408248  1.000000 )  


     PseudoPot. # 1 for Si read from file:
     ./si_pbe_v1.uspp.F.UPF
     MD5 check sum: a056efeee980c13900f22a371efd63c1
     Pseudo is Ultrasoft + core correction, Zval =  4.0
     Generated by new atomic code, or converted to UPF format
     Using radial grid of  899 points,  6 beta functions with: 
                l(1) =   0
                l(2) =   0
                l(3) =   1
                l(4) =   1
                l(5) =   2
                l(6) =   2
     Q(r) pseudized with  8 coefficients,  rinner =    0.900   0.900   0.900
                                                       0.900   0.900

     atomic species   valence    mass     pseudopotential
        Si             4.00    28.08550     Si( 1.00)

      4 Sym. Ops., with inversion, found


                                    s                        frac. trans.

      isym =  1     identity                                     

 cryst.   s( 1) = (     1          0          0      )
                  (     0          1          0      )
                  (     0          0          1      )

 cart.    s( 1) = (  1.0000000  0.0000000  0.0000000 )
                  (  0.0000000  1.0000000  0.0000000 )
                  (  0.0000000 -0.0000000  1.0000000 )


      isym =  2     180 deg rotation - cart. axis [0,0,1]        

 cryst.   s( 2) = (    -1          0          1      )
                  (     0         -1          1      )
                  (     0          0          1      )

 cart.    s( 2) = ( -1.0000000 -0.0000000  0.0000000 )
                  (  0.0000000 -1.0000000  0.0000000 )
                  (  0.0000004  0.0000003  1.0000000 )


      isym =  3     inversion                                    

 cryst.   s( 3) = (    -1          0          0      )
                  (     0         -1          0      )
                  (     0          0         -1      )

 cart.    s( 3) = ( -1.0000000 -0.0000000  0.0000000 )
                  (  0.0000000 -1.0000000  0.0000000 )
                  (  0.0000000  0.0000000 -1.0000000 )


      isym =  4     inv. 180 deg rotation - cart. axis [0,0,1]   

 cryst.   s( 4) = (     1          0         -1      )
                  (     0          1         -1      )
                  (     0          0         -1      )

 cart.    s( 4) = (  1.0000000  0.0000000  0.0000000 )
                  (  0.0000000  1.0000000  0.0000000 )
                  ( -0.0000004 -0.0000003 -1.0000000 )


   Cartesian axes

     site n.     atom                  positions (alat units)
         1           Si  tau(   1) = (   0.0000000   0.0000000   0.0000000  )

   Crystallographic axes

     site n.     atom                  positions (cryst. coord.)
         1           Si  tau(   1) = (  0.0000000  0.0000000  0.0000000  )

     number of k points=   476  Marzari-Vanderbilt smearing, width (Ry)=  0.0038
                       cart. coord. in units 2pi/alat
        k(    1) = (   0.0000000   0.0000000   0.0000000), wk =   0.0011574
        k(    2) = (  -0.0481125  -0.0340207   0.0833333), wk =   0.0046296
        k(    3) = (  -0.0962250  -0.0680414   0.1666667), wk =   0.0046296
        k(    4) = (  -0.1443375  -0.1020620   0.2500000), wk =   0.0046296
        k(    5) = (  -0.1924500  -0.1360827   0.3333333), wk =   0.0046296
        k(    6) = (  -0.2405625  -0.1701034   0.4166666), wk =   0.0046296
        k(    7) = (   0.2886750   0.2041241  -0.5000000), wk =   0.0023148
        k(    8) = (   0.0000000   0.1020621   0.0000000), wk =   0.0023148
        k(    9) = (  -0.0481125   0.0680414   0.0833333), wk =   0.0046296
        k(   10) = (  -0.0962250   0.0340207   0.1666667), wk =   0.0046296
        k(   11) = (  -0.1443375   0.0000000   0.2500000), wk =   0.0046296
        k(   12) = (  -0.1924500  -0.0340206   0.3333333), wk =   0.0046296
        k(   13) = (  -0.2405625  -0.0680413   0.4166666), wk =   0.0046296
        k(   14) = (   0.2886750   0.3061862  -0.5000000), wk =   0.0046296
        k(   15) = (   0.2405625   0.2721655  -0.4166666), wk =   0.0046296
        k(   16) = (   0.1924500   0.2381448  -0.3333333), wk =   0.0046296
        k(   17) = (   0.1443375   0.2041241  -0.2500000), wk =   0.0046296
        k(   18) = (   0.0962250   0.1701034  -0.1666667), wk =   0.0046296
        k(   19) = (   0.0481125   0.1360828  -0.0833333), wk =   0.0046296
        k(   20) = (   0.0000000   0.2041242   0.0000000), wk =   0.0023148
        k(   21) = (  -0.0481125   0.1701035   0.0833333), wk =   0.0046296
        k(   22) = (  -0.0962250   0.1360828   0.1666667), wk =   0.0046296
        k(   23) = (  -0.1443375   0.1020621   0.2500000), wk =   0.0046296
        k(   24) = (  -0.1924500   0.0680414   0.3333333), wk =   0.0046296
        k(   25) = (  -0.2405625   0.0340208   0.4166666), wk =   0.0046296
        k(   26) = (   0.2886750   0.4082483  -0.5000000), wk =   0.0046296
        k(   27) = (   0.2405625   0.3742276  -0.4166666), wk =   0.0046296
        k(   28) = (   0.1924500   0.3402069  -0.3333333), wk =   0.0046296
        k(   29) = (   0.1443375   0.3061862  -0.2500000), wk =   0.0046296
        k(   30) = (   0.0962250   0.2721655  -0.1666667), wk =   0.0046296
        k(   31) = (   0.0481125   0.2381448  -0.0833333), wk =   0.0046296
        k(   32) = (   0.0000000   0.3061862   0.0000000), wk =   0.0023148
        k(   33) = (  -0.0481125   0.2721656   0.0833333), wk =   0.0046296
        k(   34) = (  -0.0962250   0.2381449   0.1666667), wk =   0.0046296
        k(   35) = (  -0.1443375   0.2041242   0.2500000), wk =   0.0046296
        k(   36) = (  -0.1924500   0.1701035   0.3333333), wk =   0.0046296
        k(   37) = (  -0.2405625   0.1360828   0.4166666), wk =   0.0046296
        k(   38) = (   0.2886750   0.5103103  -0.5000000), wk =   0.0046296
        k(   39) = (   0.2405625   0.4762897  -0.4166666), wk =   0.0046296
        k(   40) = (   0.1924500   0.4422690  -0.3333333), wk =   0.0046296
        k(   41) = (   0.1443375   0.4082483  -0.2500000), wk =   0.0046296
        k(   42) = (   0.0962250   0.3742276  -0.1666667), wk =   0.0046296
        k(   43) = (   0.0481125   0.3402069  -0.0833333), wk =   0.0046296
        k(   44) = (   0.0000000   0.4082483   0.0000000), wk =   0.0023148
        k(   45) = (  -0.0481125   0.3742276   0.0833333), wk =   0.0046296
        k(   46) = (  -0.0962250   0.3402070   0.1666667), wk =   0.0046296
        k(   47) = (  -0.1443375   0.3061863   0.2500000), wk =   0.0046296
        k(   48) = (  -0.1924500   0.2721656   0.3333333), wk =   0.0046296
        k(   49) = (  -0.2405625   0.2381449   0.4166666), wk =   0.0046296
        k(   50) = (   0.2886750   0.6123724  -0.5000000), wk =   0.0046296
        k(   51) = (   0.2405625   0.5783517  -0.4166666), wk =   0.0046296
        k(   52) = (   0.1924500   0.5443311  -0.3333333), wk =   0.0046296
        k(   53) = (   0.1443375   0.5103104  -0.2500000), wk =   0.0046296
        k(   54) = (   0.0962250   0.4762897  -0.1666667), wk =   0.0046296
        k(   55) = (   0.0481125   0.4422690  -0.0833333), wk =   0.0046296
        k(   56) = (   0.0000000   0.5103104   0.0000000), wk =   0.0023148
        k(   57) = (  -0.0481125   0.4762897   0.0833333), wk =   0.0046296
        k(   58) = (  -0.0962250   0.4422690   0.1666667), wk =   0.0046296
        k(   59) = (  -0.1443375   0.4082484   0.2500000), wk =   0.0046296
        k(   60) = (  -0.1924500   0.3742277   0.3333333), wk =   0.0046296
        k(   61) = (  -0.2405625   0.3402070   0.4166666), wk =   0.0046296
        k(   62) = (   0.2886750   0.7144345  -0.5000000), wk =   0.0046296
        k(   63) = (   0.2405625   0.6804138  -0.4166666), wk =   0.0046296
        k(   64) = (   0.1924500   0.6463931  -0.3333333), wk =   0.0046296
        k(   65) = (   0.1443375   0.6123725  -0.2500000), wk =   0.0046296
        k(   66) = (   0.0962250   0.5783518  -0.1666667), wk =   0.0046296
        k(   67) = (   0.0481125   0.5443311  -0.0833333), wk =   0.0046296
        k(   68) = (   0.0000000  -0.6123725   0.0000000), wk =   0.0011574
        k(   69) = (  -0.0481125  -0.6463932   0.0833333), wk =   0.0046296
        k(   70) = (  -0.0962250  -0.6804139   0.1666667), wk =   0.0046296
        k(   71) = (  -0.1443375  -0.7144345   0.2500000), wk =   0.0046296
        k(   72) = (  -0.1924500  -0.7484552   0.3333333), wk =   0.0046296
        k(   73) = (  -0.2405625  -0.7824759   0.4166666), wk =   0.0046296
        k(   74) = (   0.2886750  -0.4082484  -0.5000000), wk =   0.0023148
        k(   75) = (   0.0962250  -0.0340207   0.0000000), wk =   0.0023148
        k(   76) = (   0.0000000  -0.1020621   0.1666667), wk =   0.0046296
        k(   77) = (  -0.0481125  -0.1360827   0.2500000), wk =   0.0046296
        k(   78) = (  -0.0962250  -0.1701034   0.3333333), wk =   0.0046296
        k(   79) = (  -0.1443375  -0.2041241   0.4166666), wk =   0.0046296
        k(   80) = (   0.3849000   0.1701034  -0.5000000), wk =   0.0046296
        k(   81) = (   0.3367875   0.1360827  -0.4166666), wk =   0.0046296
        k(   82) = (   0.2886750   0.1020620  -0.3333333), wk =   0.0046296
        k(   83) = (   0.2405625   0.0680414  -0.2500000), wk =   0.0046296
        k(   84) = (   0.1924500   0.0340207  -0.1666667), wk =   0.0046296
        k(   85) = (   0.1443375  -0.0000000  -0.0833333), wk =   0.0046296
        k(   86) = (   0.0962250   0.0680414   0.0000000), wk =   0.0023148
        k(   87) = (   0.0000000   0.0000000   0.1666667), wk =   0.0023148
        k(   88) = (  -0.0481125  -0.0340207   0.2500000), wk =   0.0046296
        k(   89) = (  -0.0962250  -0.0680413   0.3333333), wk =   0.0046296
        k(   90) = (  -0.1443375  -0.1020620   0.4166666), wk =   0.0046296
        k(   91) = (   0.3849000   0.2721655  -0.5000000), wk =   0.0046296
        k(   92) = (   0.3367875   0.2381448  -0.4166666), wk =   0.0046296
        k(   93) = (   0.2886750   0.2041241  -0.3333333), wk =   0.0046296
        k(   94) = (   0.2405625   0.1701034  -0.2500000), wk =   0.0046296
        k(   95) = (   0.1924500   0.1360828  -0.1666667), wk =   0.0046296
        k(   96) = (   0.1443375   0.1020621  -0.0833333), wk =   0.0046296
        k(   97) = (   0.0962250   0.1701035   0.0000000), wk =   0.0023148
        k(   98) = (  -0.0481125   0.0680414   0.2500000), wk =   0.0046296
        k(   99) = (  -0.0962250   0.0340207   0.3333333), wk =   0.0046296
        k(  100) = (  -0.1443375   0.0000001   0.4166666), wk =   0.0046296
        k(  101) = (   0.3849000   0.3742276  -0.5000000), wk =   0.0046296
        k(  102) = (   0.3367875   0.3402069  -0.4166666), wk =   0.0046296
        k(  103) = (   0.2886750   0.3061862  -0.3333333), wk =   0.0046296
        k(  104) = (   0.2405625   0.2721655  -0.2500000), wk =   0.0046296
        k(  105) = (   0.1924500   0.2381448  -0.1666667), wk =   0.0046296
        k(  106) = (   0.1443375   0.2041242  -0.0833333), wk =   0.0046296
        k(  107) = (   0.0962250   0.2721656   0.0000000), wk =   0.0023148
        k(  108) = (   0.0000000   0.2041242   0.1666667), wk =   0.0046296
        k(  109) = (  -0.0481125   0.1701035   0.2500000), wk =   0.0046296
        k(  110) = (  -0.0962250   0.1360828   0.3333333), wk =   0.0046296
        k(  111) = (  -0.1443375   0.1020621   0.4166666), wk =   0.0046296
        k(  112) = (   0.3849000   0.4762897  -0.5000000), wk =   0.0046296
        k(  113) = (   0.3367875   0.4422690  -0.4166666), wk =   0.0046296
        k(  114) = (   0.2886750   0.4082483  -0.3333333), wk =   0.0046296
        k(  115) = (   0.2405625   0.3742276  -0.2500000), wk =   0.0046296
        k(  116) = (   0.1924500   0.3402069  -0.1666667), wk =   0.0046296
        k(  117) = (   0.1443375   0.3061862  -0.0833333), wk =   0.0046296
        k(  118) = (   0.0962250   0.3742276   0.0000000), wk =   0.0023148
        k(  119) = (   0.0000000   0.3061863   0.1666667), wk =   0.0046296
        k(  120) = (  -0.0481125   0.2721656   0.2500000), wk =   0.0046296
        k(  121) = (  -0.0962250   0.2381449   0.3333333), wk =   0.0046296
        k(  122) = (  -0.1443375   0.2041242   0.4166666), wk =   0.0046296
        k(  123) = (   0.3849000   0.5783517  -0.5000000), wk =   0.0046296
        k(  124) = (   0.3367875   0.5443311  -0.4166666), wk =   0.0046296
        k(  125) = (   0.2886750   0.5103104  -0.3333333), wk =   0.0046296
        k(  126) = (   0.2405625   0.4762897  -0.2500000), wk =   0.0046296
        k(  127) = (   0.1924500   0.4422690  -0.1666667), wk =   0.0046296
        k(  128) = (   0.1443375   0.4082483  -0.0833333), wk =   0.0046296
        k(  129) = (   0.0962250   0.4762897   0.0000000), wk =   0.0023148
        k(  130) = (   0.0000000   0.4082484   0.1666667), wk =   0.0046296
        k(  131) = (  -0.0481125   0.3742277   0.2500000), wk =   0.0046296
        k(  132) = (  -0.0962250   0.3402070   0.3333333), wk =   0.0046296
        k(  133) = (  -0.1443375   0.3061863   0.4166666), wk =   0.0046296
        k(  134) = (   0.3849000   0.6804138  -0.5000000), wk =   0.0046296
        k(  135) = (   0.3367875   0.6463931  -0.4166666), wk =   0.0046296
        k(  136) = (   0.2886750   0.6123725  -0.3333333), wk =   0.0046296
        k(  137) = (   0.2405625   0.5783518  -0.2500000), wk =   0.0046296
        k(  138) = (   0.1924500   0.5443311  -0.1666667), wk =   0.0046296
        k(  139) = (   0.1443375   0.5103104  -0.0833333), wk =   0.0046296
        k(  140) = (   0.0962250  -0.6463932   0.0000000), wk =   0.0023148
        k(  141) = (   0.0000000  -0.7144346   0.1666667), wk =   0.0046296
        k(  142) = (  -0.0481125  -0.7484552   0.2500000), wk =   0.0046296
        k(  143) = (  -0.0962250  -0.7824759   0.3333333), wk =   0.0046296
        k(  144) = (  -0.1443375  -0.8164966   0.4166666), wk =   0.0046296
        k(  145) = (   0.3849000  -0.4422691  -0.5000000), wk =   0.0046296
        k(  146) = (   0.3367875  -0.4762898  -0.4166666), wk =   0.0046296
        k(  147) = (   0.2886750  -0.5103105  -0.3333333), wk =   0.0046296
        k(  148) = (   0.2405625  -0.5443311  -0.2500000), wk =   0.0046296
        k(  149) = (   0.1924500  -0.5783518  -0.1666667), wk =   0.0046296
        k(  150) = (   0.1443375  -0.6123725  -0.0833333), wk =   0.0046296
        k(  151) = (   0.0962250  -0.5443311   0.0000000), wk =   0.0023148
        k(  152) = (   0.0000000  -0.6123725   0.1666667), wk =   0.0023148
        k(  153) = (  -0.0481125  -0.6463932   0.2500000), wk =   0.0046296
        k(  154) = (  -0.0962250  -0.6804138   0.3333333), wk =   0.0046296
        k(  155) = (  -0.1443375  -0.7144345   0.4166666), wk =   0.0046296
        k(  156) = (   0.3849000  -0.3402070  -0.5000000), wk =   0.0046296
        k(  157) = (   0.3367875  -0.3742277  -0.4166666), wk =   0.0046296
        k(  158) = (   0.2886750  -0.4082484  -0.3333333), wk =   0.0046296
        k(  159) = (   0.2405625  -0.4422691  -0.2500000), wk =   0.0046296
        k(  160) = (   0.1924500  -0.4762897  -0.1666667), wk =   0.0046296
        k(  161) = (   0.1443375  -0.5103104  -0.0833333), wk =   0.0046296
        k(  162) = (   0.0962250  -0.4422690   0.0000000), wk =   0.0023148
        k(  163) = (  -0.0481125  -0.5443311   0.2500000), wk =   0.0046296
        k(  164) = (  -0.0962250  -0.5783518   0.3333333), wk =   0.0046296
        k(  165) = (  -0.1443375  -0.6123724   0.4166666), wk =   0.0046296
        k(  166) = (   0.3849000  -0.2381449  -0.5000000), wk =   0.0046296
        k(  167) = (   0.3367875  -0.2721656  -0.4166666), wk =   0.0046296
        k(  168) = (   0.2886750  -0.3061863  -0.3333333), wk =   0.0046296
        k(  169) = (   0.2405625  -0.3402070  -0.2500000), wk =   0.0046296
        k(  170) = (   0.1924500  -0.3742277  -0.1666667), wk =   0.0046296
        k(  171) = (   0.1443375  -0.4082483  -0.0833333), wk =   0.0046296
        k(  172) = (   0.0962250  -0.3402069   0.0000000), wk =   0.0023148
        k(  173) = (  -0.0481125  -0.4422690   0.2500000), wk =   0.0046296
        k(  174) = (  -0.0962250  -0.4762897   0.3333333), wk =   0.0046296
        k(  175) = (  -0.1443375  -0.5103104   0.4166666), wk =   0.0046296
        k(  176) = (   0.3849000  -0.1360828  -0.5000000), wk =   0.0046296
        k(  177) = (   0.3367875  -0.1701035  -0.4166666), wk =   0.0046296
        k(  178) = (   0.2886750  -0.2041242  -0.3333333), wk =   0.0046296
        k(  179) = (   0.2405625  -0.2381449  -0.2500000), wk =   0.0046296
        k(  180) = (   0.1924500  -0.2721656  -0.1666667), wk =   0.0046296
        k(  181) = (   0.1443375  -0.3061863  -0.0833333), wk =   0.0046296
        k(  182) = (   0.0962250  -0.2381449   0.0000000), wk =   0.0023148
        k(  183) = (  -0.0481125  -0.3402069   0.2500000), wk =   0.0046296
        k(  184) = (  -0.0962250  -0.3742276   0.3333333), wk =   0.0046296
        k(  185) = (  -0.1443375  -0.4082483   0.4166666), wk =   0.0046296
        k(  186) = (   0.3849000  -0.0340208  -0.5000000), wk =   0.0046296
        k(  187) = (   0.3367875  -0.0680414  -0.4166666), wk =   0.0046296
        k(  188) = (   0.2886750  -0.1020621  -0.3333333), wk =   0.0046296
        k(  189) = (   0.2405625  -0.1360828  -0.2500000), wk =   0.0046296
        k(  190) = (   0.1924500  -0.1701035  -0.1666667), wk =   0.0046296
        k(  191) = (   0.1443375  -0.2041242  -0.0833333), wk =   0.0046296
        k(  192) = (   0.0962250  -0.1360828   0.0000000), wk =   0.0023148
        k(  193) = (  -0.0481125  -0.2381448   0.2500000), wk =   0.0046296
        k(  194) = (  -0.0962250  -0.2721655   0.3333333), wk =   0.0046296
        k(  195) = (  -0.1443375  -0.3061862   0.4166666), wk =   0.0046296
        k(  196) = (   0.3849000   0.0680413  -0.5000000), wk =   0.0046296
        k(  197) = (   0.3367875   0.0340206  -0.4166666), wk =   0.0046296
        k(  198) = (   0.2886750  -0.0000000  -0.3333333), wk =   0.0046296
        k(  199) = (   0.2405625  -0.0340207  -0.2500000), wk =   0.0046296
        k(  200) = (   0.1924500  -0.0680414  -0.1666667), wk =   0.0046296
        k(  201) = (   0.1443375  -0.1020621  -0.0833333), wk =   0.0046296
        k(  202) = (   0.1924501  -0.0680414   0.0000000), wk =   0.0023148
        k(  203) = (   0.0000001  -0.2041241   0.3333333), wk =   0.0046296
        k(  204) = (  -0.0481124  -0.2381448   0.4166666), wk =   0.0046296
        k(  205) = (   0.4811251   0.1360827  -0.5000000), wk =   0.0046296
        k(  206) = (   0.4330126   0.1020620  -0.4166666), wk =   0.0046296
        k(  207) = (   0.3849001   0.0680413  -0.3333333), wk =   0.0046296
        k(  208) = (   0.3367876   0.0340207  -0.2500000), wk =   0.0046296
        k(  209) = (   0.2886751  -0.0000000  -0.1666667), wk =   0.0046296
        k(  210) = (   0.2405626  -0.0340207  -0.0833333), wk =   0.0046296
        k(  211) = (   0.1924501   0.0340207   0.0000000), wk =   0.0023148
        k(  212) = (   0.0000001  -0.1020620   0.3333333), wk =   0.0046296
        k(  213) = (  -0.0481124  -0.1360827   0.4166666), wk =   0.0046296
        k(  214) = (   0.4811251   0.2381448  -0.5000000), wk =   0.0046296
        k(  215) = (   0.4330126   0.2041241  -0.4166666), wk =   0.0046296
        k(  216) = (   0.3849001   0.1701034  -0.3333333), wk =   0.0046296
        k(  217) = (   0.3367876   0.1360827  -0.2500000), wk =   0.0046296
        k(  218) = (   0.2886751   0.1020621  -0.1666667), wk =   0.0046296
        k(  219) = (   0.2405626   0.0680414  -0.0833333), wk =   0.0046296
        k(  220) = (   0.1924501   0.1360828   0.0000000), wk =   0.0023148
        k(  221) = (   0.0000001   0.0000000   0.3333333), wk =   0.0023148
        k(  222) = (  -0.0481124  -0.0340206   0.4166666), wk =   0.0046296
        k(  223) = (   0.4811251   0.3402069  -0.5000000), wk =   0.0046296
        k(  224) = (   0.4330126   0.3061862  -0.4166666), wk =   0.0046296
        k(  225) = (   0.3849001   0.2721655  -0.3333333), wk =   0.0046296
        k(  226) = (   0.3367876   0.2381448  -0.2500000), wk =   0.0046296
        k(  227) = (   0.2886751   0.2041241  -0.1666667), wk =   0.0046296
        k(  228) = (   0.2405626   0.1701035  -0.0833333), wk =   0.0046296
        k(  229) = (   0.1924501   0.2381449   0.0000000), wk =   0.0023148
        k(  230) = (  -0.0481124   0.0680414   0.4166666), wk =   0.0046296
        k(  231) = (   0.4811251   0.4422690  -0.5000000), wk =   0.0046296
        k(  232) = (   0.4330126   0.4082483  -0.4166666), wk =   0.0046296
        k(  233) = (   0.3849001   0.3742276  -0.3333333), wk =   0.0046296
        k(  234) = (   0.3367876   0.3402069  -0.2500000), wk =   0.0046296
        k(  235) = (   0.2886751   0.3061862  -0.1666667), wk =   0.0046296
        k(  236) = (   0.2405626   0.2721655  -0.0833333), wk =   0.0046296
        k(  237) = (   0.1924501   0.3402069   0.0000000), wk =   0.0023148
        k(  238) = (  -0.0481124   0.1701035   0.4166666), wk =   0.0046296
        k(  239) = (   0.4811251   0.5443310  -0.5000000), wk =   0.0046296
        k(  240) = (   0.4330126   0.5103104  -0.4166666), wk =   0.0046296
        k(  241) = (   0.3849001   0.4762897  -0.3333333), wk =   0.0046296
        k(  242) = (   0.3367876   0.4422690  -0.2500000), wk =   0.0046296
        k(  243) = (   0.2886751   0.4082483  -0.1666667), wk =   0.0046296
        k(  244) = (   0.2405626   0.3742276  -0.0833333), wk =   0.0046296
        k(  245) = (   0.1924501   0.4422690   0.0000000), wk =   0.0023148
        k(  246) = (   0.0000001   0.3061863   0.3333333), wk =   0.0046296
        k(  247) = (  -0.0481124   0.2721656   0.4166666), wk =   0.0046296
        k(  248) = (   0.4811251   0.6463931  -0.5000000), wk =   0.0046296
        k(  249) = (   0.4330126   0.6123724  -0.4166666), wk =   0.0046296
        k(  250) = (   0.3849001   0.5783518  -0.3333333), wk =   0.0046296
        k(  251) = (   0.3367876   0.5443311  -0.2500000), wk =   0.0046296
        k(  252) = (   0.2886751   0.5103104  -0.1666667), wk =   0.0046296
        k(  253) = (   0.2405626   0.4762897  -0.0833333), wk =   0.0046296
        k(  254) = (   0.1924501  -0.6804139   0.0000000), wk =   0.0023148
        k(  255) = (   0.0000001  -0.8164966   0.3333333), wk =   0.0046296
        k(  256) = (  -0.0481124  -0.8505173   0.4166666), wk =   0.0046296
        k(  257) = (   0.4811251  -0.4762898  -0.5000000), wk =   0.0046296
        k(  258) = (   0.4330126  -0.5103105  -0.4166666), wk =   0.0046296
        k(  259) = (   0.3849001  -0.5443312  -0.3333333), wk =   0.0046296
        k(  260) = (   0.3367876  -0.5783518  -0.2500000), wk =   0.0046296
        k(  261) = (   0.2886751  -0.6123725  -0.1666667), wk =   0.0046296
        k(  262) = (   0.2405626  -0.6463932  -0.0833333), wk =   0.0046296
        k(  263) = (   0.1924501  -0.5783518   0.0000000), wk =   0.0023148
        k(  264) = (   0.0000001  -0.7144345   0.3333333), wk =   0.0046296
        k(  265) = (  -0.0481124  -0.7484552   0.4166666), wk =   0.0046296
        k(  266) = (   0.4811251  -0.3742277  -0.5000000), wk =   0.0046296
        k(  267) = (   0.4330126  -0.4082484  -0.4166666), wk =   0.0046296
        k(  268) = (   0.3849001  -0.4422691  -0.3333333), wk =   0.0046296
        k(  269) = (   0.3367876  -0.4762898  -0.2500000), wk =   0.0046296
        k(  270) = (   0.2886751  -0.5103104  -0.1666667), wk =   0.0046296
        k(  271) = (   0.2405626  -0.5443311  -0.0833333), wk =   0.0046296
        k(  272) = (   0.1924501  -0.4762897   0.0000000), wk =   0.0023148
        k(  273) = (   0.0000001  -0.6123725   0.3333333), wk =   0.0023148
        k(  274) = (  -0.0481124  -0.6463931   0.4166666), wk =   0.0046296
        k(  275) = (   0.4811251  -0.2721656  -0.5000000), wk =   0.0046296
        k(  276) = (   0.4330126  -0.3061863  -0.4166666), wk =   0.0046296
        k(  277) = (   0.3849001  -0.3402070  -0.3333333), wk =   0.0046296
        k(  278) = (   0.3367876  -0.3742277  -0.2500000), wk =   0.0046296
        k(  279) = (   0.2886751  -0.4082484  -0.1666667), wk =   0.0046296
        k(  280) = (   0.2405626  -0.4422690  -0.0833333), wk =   0.0046296
        k(  281) = (   0.1924501  -0.3742276   0.0000000), wk =   0.0023148
        k(  282) = (  -0.0481124  -0.5443311   0.4166666), wk =   0.0046296
        k(  283) = (   0.4811251  -0.1701035  -0.5000000), wk =   0.0046296
        k(  284) = (   0.4330126  -0.2041242  -0.4166666), wk =   0.0046296
        k(  285) = (   0.3849001  -0.2381449  -0.3333333), wk =   0.0046296
        k(  286) = (   0.3367876  -0.2721656  -0.2500000), wk =   0.0046296
        k(  287) = (   0.2886751  -0.3061863  -0.1666667), wk =   0.0046296
        k(  288) = (   0.2405626  -0.3402070  -0.0833333), wk =   0.0046296
        k(  289) = (   0.1924501  -0.2721656   0.0000000), wk =   0.0023148
        k(  290) = (  -0.0481124  -0.4422690   0.4166666), wk =   0.0046296
        k(  291) = (   0.4811251  -0.0680415  -0.5000000), wk =   0.0046296
        k(  292) = (   0.4330126  -0.1020621  -0.4166666), wk =   0.0046296
        k(  293) = (   0.3849001  -0.1360828  -0.3333333), wk =   0.0046296
        k(  294) = (   0.3367876  -0.1701035  -0.2500000), wk =   0.0046296
        k(  295) = (   0.2886751  -0.2041242  -0.1666667), wk =   0.0046296
        k(  296) = (   0.2405626  -0.2381449  -0.0833333), wk =   0.0046296
        k(  297) = (   0.1924501  -0.1701035   0.0000000), wk =   0.0023148
        k(  298) = (  -0.0481124  -0.3402069   0.4166666), wk =   0.0046296
        k(  299) = (   0.4811251   0.0340206  -0.5000000), wk =   0.0046296
        k(  300) = (   0.4330126  -0.0000001  -0.4166666), wk =   0.0046296
        k(  301) = (   0.3849001  -0.0340207  -0.3333333), wk =   0.0046296
        k(  302) = (   0.3367876  -0.0680414  -0.2500000), wk =   0.0046296
        k(  303) = (   0.2886751  -0.1020621  -0.1666667), wk =   0.0046296
        k(  304) = (   0.2405626  -0.1360828  -0.0833333), wk =   0.0046296
        k(  305) = (   0.2886751  -0.1020621   0.0000000), wk =   0.0023148
        k(  306) = (   0.5773501   0.1020620  -0.5000000), wk =   0.0046296
        k(  307) = (   0.5292376   0.0680413  -0.4166666), wk =   0.0046296
        k(  308) = (   0.4811251   0.0340206  -0.3333333), wk =   0.0046296
        k(  309) = (   0.4330126  -0.0000000  -0.2500000), wk =   0.0046296
        k(  310) = (   0.3849001  -0.0340207  -0.1666667), wk =   0.0046296
        k(  311) = (   0.3367876  -0.0680414  -0.0833333), wk =   0.0046296
        k(  312) = (   0.2886751   0.0000000   0.0000000), wk =   0.0023148
        k(  313) = (   0.5773501   0.2041241  -0.5000000), wk =   0.0046296
        k(  314) = (   0.5292376   0.1701034  -0.4166666), wk =   0.0046296
        k(  315) = (   0.4811251   0.1360827  -0.3333333), wk =   0.0046296
        k(  316) = (   0.4330126   0.1020620  -0.2500000), wk =   0.0046296
        k(  317) = (   0.3849001   0.0680414  -0.1666667), wk =   0.0046296
        k(  318) = (   0.3367876   0.0340207  -0.0833333), wk =   0.0046296
        k(  319) = (   0.2886751   0.1020621   0.0000000), wk =   0.0023148
        k(  320) = (   0.5773501   0.3061862  -0.5000000), wk =   0.0046296
        k(  321) = (   0.5292376   0.2721655  -0.4166666), wk =   0.0046296
        k(  322) = (   0.4811251   0.2381448  -0.3333333), wk =   0.0046296
        k(  323) = (   0.4330126   0.2041241  -0.2500000), wk =   0.0046296
        k(  324) = (   0.3849001   0.1701034  -0.1666667), wk =   0.0046296
        k(  325) = (   0.3367876   0.1360828  -0.0833333), wk =   0.0046296
        k(  326) = (   0.2886751   0.2041242   0.0000000), wk =   0.0023148
        k(  327) = (   0.5773501   0.4082483  -0.5000000), wk =   0.0023148
        k(  328) = (   0.5292376   0.3742276  -0.4166666), wk =   0.0046296
        k(  329) = (   0.4811251   0.3402069  -0.3333333), wk =   0.0046296
        k(  330) = (   0.4330126   0.3061862  -0.2500000), wk =   0.0046296
        k(  331) = (   0.3849001   0.2721655  -0.1666667), wk =   0.0046296
        k(  332) = (   0.3367876   0.2381448  -0.0833333), wk =   0.0046296
        k(  333) = (   0.2886751   0.3061862   0.0000000), wk =   0.0023148
        k(  334) = (   0.5292376   0.4762897  -0.4166666), wk =   0.0046296
        k(  335) = (   0.4811251   0.4422690  -0.3333333), wk =   0.0046296
        k(  336) = (   0.4330126   0.4082483  -0.2500000), wk =   0.0046296
        k(  337) = (   0.3849001   0.3742276  -0.1666667), wk =   0.0046296
        k(  338) = (   0.3367876   0.3402069  -0.0833333), wk =   0.0046296
        k(  339) = (   0.2886751   0.4082483   0.0000000), wk =   0.0023148
        k(  340) = (   0.5292376   0.5783517  -0.4166666), wk =   0.0046296
        k(  341) = (   0.4811251   0.5443311  -0.3333333), wk =   0.0046296
        k(  342) = (   0.4330126   0.5103104  -0.2500000), wk =   0.0046296
        k(  343) = (   0.3849001   0.4762897  -0.1666667), wk =   0.0046296
        k(  344) = (   0.3367876   0.4422690  -0.0833333), wk =   0.0046296
        k(  345) = (   0.2886751  -0.7144346   0.0000000), wk =   0.0023148
        k(  346) = (   0.5292376  -0.5443312  -0.4166666), wk =   0.0046296
        k(  347) = (   0.4811251  -0.5783518  -0.3333333), wk =   0.0046296
        k(  348) = (   0.4330126  -0.6123725  -0.2500000), wk =   0.0046296
        k(  349) = (   0.3849001  -0.6463932  -0.1666667), wk =   0.0046296
        k(  350) = (   0.3367876  -0.6804139  -0.0833333), wk =   0.0046296
        k(  351) = (   0.2886751  -0.6123725   0.0000000), wk =   0.0023148
        k(  352) = (   0.5773501  -0.4082484  -0.5000000), wk =   0.0046296
        k(  353) = (   0.5292376  -0.4422691  -0.4166666), wk =   0.0046296
        k(  354) = (   0.4811251  -0.4762898  -0.3333333), wk =   0.0046296
        k(  355) = (   0.4330126  -0.5103104  -0.2500000), wk =   0.0046296
        k(  356) = (   0.3849001  -0.5443311  -0.1666667), wk =   0.0046296
        k(  357) = (   0.3367876  -0.5783518  -0.0833333), wk =   0.0046296
        k(  358) = (   0.2886751  -0.5103104   0.0000000), wk =   0.0023148
        k(  359) = (   0.5773501  -0.3061863  -0.5000000), wk =   0.0046296
        k(  360) = (   0.5292376  -0.3402070  -0.4166666), wk =   0.0046296
        k(  361) = (   0.4811251  -0.3742277  -0.3333333), wk =   0.0046296
        k(  362) = (   0.4330126  -0.4082484  -0.2500000), wk =   0.0046296
        k(  363) = (   0.3849001  -0.4422690  -0.1666667), wk =   0.0046296
        k(  364) = (   0.3367876  -0.4762897  -0.0833333), wk =   0.0046296
        k(  365) = (   0.2886751  -0.4082483   0.0000000), wk =   0.0023148
        k(  366) = (   0.5773501  -0.2041242  -0.5000000), wk =   0.0023148
        k(  367) = (   0.5292376  -0.2381449  -0.4166666), wk =   0.0046296
        k(  368) = (   0.4811251  -0.2721656  -0.3333333), wk =   0.0046296
        k(  369) = (   0.4330126  -0.3061863  -0.2500000), wk =   0.0046296
        k(  370) = (   0.3849001  -0.3402070  -0.1666667), wk =   0.0046296
        k(  371) = (   0.3367876  -0.3742276  -0.0833333), wk =   0.0046296
        k(  372) = (   0.2886751  -0.3061862   0.0000000), wk =   0.0023148
        k(  373) = (   0.5292376  -0.1360828  -0.4166666), wk =   0.0046296
        k(  374) = (   0.4811251  -0.1701035  -0.3333333), wk =   0.0046296
        k(  375) = (   0.4330126  -0.2041242  -0.2500000), wk =   0.0046296
        k(  376) = (   0.3849001  -0.2381449  -0.1666667), wk =   0.0046296
        k(  377) = (   0.3367876  -0.2721656  -0.0833333), wk =   0.0046296
        k(  378) = (   0.2886751  -0.2041242   0.0000000), wk =   0.0023148
        k(  379) = (   0.5292376  -0.0340208  -0.4166666), wk =   0.0046296
        k(  380) = (   0.4811251  -0.0680414  -0.3333333), wk =   0.0046296
        k(  381) = (   0.4330126  -0.1020621  -0.2500000), wk =   0.0046296
        k(  382) = (   0.3849001  -0.1360828  -0.1666667), wk =   0.0046296
        k(  383) = (   0.3367876  -0.1701035  -0.0833333), wk =   0.0046296
        k(  384) = (   0.3849001  -0.1360828   0.0000000), wk =   0.0023148
        k(  385) = (   0.5773502  -0.0000000  -0.3333333), wk =   0.0046296
        k(  386) = (   0.5292377  -0.0340207  -0.2500000), wk =   0.0046296
        k(  387) = (   0.4811251  -0.0680414  -0.1666667), wk =   0.0046296
        k(  388) = (   0.4330126  -0.1020621  -0.0833333), wk =   0.0046296
        k(  389) = (   0.3849001  -0.0340207   0.0000000), wk =   0.0023148
        k(  390) = (   0.5773502   0.1020620  -0.3333333), wk =   0.0046296
        k(  391) = (   0.5292377   0.0680414  -0.2500000), wk =   0.0046296
        k(  392) = (   0.4811251   0.0340207  -0.1666667), wk =   0.0046296
        k(  393) = (   0.4330126  -0.0000000  -0.0833333), wk =   0.0046296
        k(  394) = (   0.3849001   0.0680414   0.0000000), wk =   0.0023148
        k(  395) = (   0.5773502   0.2041241  -0.3333333), wk =   0.0046296
        k(  396) = (   0.5292377   0.1701034  -0.2500000), wk =   0.0046296
        k(  397) = (   0.4811251   0.1360828  -0.1666667), wk =   0.0046296
        k(  398) = (   0.4330126   0.1020621  -0.0833333), wk =   0.0046296
        k(  399) = (   0.3849001   0.1701035   0.0000000), wk =   0.0023148
        k(  400) = (   0.5773502   0.3061862  -0.3333333), wk =   0.0046296
        k(  401) = (   0.5292377   0.2721655  -0.2500000), wk =   0.0046296
        k(  402) = (   0.4811251   0.2381448  -0.1666667), wk =   0.0046296
        k(  403) = (   0.4330126   0.2041242  -0.0833333), wk =   0.0046296
        k(  404) = (   0.3849001   0.2721656   0.0000000), wk =   0.0023148
        k(  405) = (   0.5773502   0.4082483  -0.3333333), wk =   0.0023148
        k(  406) = (   0.5292377   0.3742276  -0.2500000), wk =   0.0046296
        k(  407) = (   0.4811251   0.3402069  -0.1666667), wk =   0.0046296
        k(  408) = (   0.4330126   0.3061862  -0.0833333), wk =   0.0046296
        k(  409) = (   0.3849001   0.3742276   0.0000000), wk =   0.0023148
        k(  410) = (   0.5292377   0.4762897  -0.2500000), wk =   0.0046296
        k(  411) = (   0.4811251   0.4422690  -0.1666667), wk =   0.0046296
        k(  412) = (   0.4330126   0.4082483  -0.0833333), wk =   0.0046296
        k(  413) = (   0.3849001  -0.7484553   0.0000000), wk =   0.0023148
        k(  414) = (   0.5292377  -0.6463932  -0.2500000), wk =   0.0046296
        k(  415) = (   0.4811251  -0.6804139  -0.1666667), wk =   0.0046296
        k(  416) = (   0.4330126  -0.7144346  -0.0833333), wk =   0.0046296
        k(  417) = (   0.3849001  -0.6463932   0.0000000), wk =   0.0023148
        k(  418) = (   0.5292377  -0.5443311  -0.2500000), wk =   0.0046296
        k(  419) = (   0.4811251  -0.5783518  -0.1666667), wk =   0.0046296
        k(  420) = (   0.4330126  -0.6123725  -0.0833333), wk =   0.0046296
        k(  421) = (   0.3849001  -0.5443311   0.0000000), wk =   0.0023148
        k(  422) = (   0.5292377  -0.4422691  -0.2500000), wk =   0.0046296
        k(  423) = (   0.4811251  -0.4762897  -0.1666667), wk =   0.0046296
        k(  424) = (   0.4330126  -0.5103104  -0.0833333), wk =   0.0046296
        k(  425) = (   0.3849001  -0.4422690   0.0000000), wk =   0.0023148
        k(  426) = (   0.5773502  -0.3061863  -0.3333333), wk =   0.0046296
        k(  427) = (   0.5292377  -0.3402070  -0.2500000), wk =   0.0046296
        k(  428) = (   0.4811251  -0.3742277  -0.1666667), wk =   0.0046296
        k(  429) = (   0.4330126  -0.4082483  -0.0833333), wk =   0.0046296
        k(  430) = (   0.3849001  -0.3402069   0.0000000), wk =   0.0023148
        k(  431) = (   0.5773502  -0.2041242  -0.3333333), wk =   0.0023148
        k(  432) = (   0.5292377  -0.2381449  -0.2500000), wk =   0.0046296
        k(  433) = (   0.4811251  -0.2721656  -0.1666667), wk =   0.0046296
        k(  434) = (   0.4330126  -0.3061863  -0.0833333), wk =   0.0046296
        k(  435) = (   0.3849001  -0.2381449   0.0000000), wk =   0.0023148
        k(  436) = (   0.5292377  -0.1360828  -0.2500000), wk =   0.0046296
        k(  437) = (   0.4811251  -0.1701035  -0.1666667), wk =   0.0046296
        k(  438) = (   0.4330126  -0.2041242  -0.0833333), wk =   0.0046296
        k(  439) = (   0.4811252  -0.1701035   0.0000000), wk =   0.0023148
        k(  440) = (   0.5773502  -0.1020621  -0.1666667), wk =   0.0046296
        k(  441) = (   0.5292377  -0.1360828  -0.0833333), wk =   0.0046296
        k(  442) = (   0.4811252  -0.0680414   0.0000000), wk =   0.0023148
        k(  443) = (   0.5773502  -0.0000000  -0.1666667), wk =   0.0046296
        k(  444) = (   0.5292377  -0.0340207  -0.0833333), wk =   0.0046296
        k(  445) = (   0.4811252   0.0340207   0.0000000), wk =   0.0023148
        k(  446) = (   0.5773502   0.1020621  -0.1666667), wk =   0.0046296
        k(  447) = (   0.5292377   0.0680414  -0.0833333), wk =   0.0046296
        k(  448) = (   0.4811252   0.1360828   0.0000000), wk =   0.0023148
        k(  449) = (   0.5773502   0.2041241  -0.1666667), wk =   0.0046296
        k(  450) = (   0.5292377   0.1701035  -0.0833333), wk =   0.0046296
        k(  451) = (   0.4811252   0.2381449   0.0000000), wk =   0.0023148
        k(  452) = (   0.5773502   0.3061862  -0.1666667), wk =   0.0046296
        k(  453) = (   0.5292377   0.2721655  -0.0833333), wk =   0.0046296
        k(  454) = (   0.4811252   0.3402069   0.0000000), wk =   0.0023148
        k(  455) = (   0.5773502   0.4082483  -0.1666667), wk =   0.0023148
        k(  456) = (   0.5292377   0.3742276  -0.0833333), wk =   0.0046296
        k(  457) = (   0.4811252  -0.7824760   0.0000000), wk =   0.0023148
        k(  458) = (   0.5292377  -0.7484553  -0.0833333), wk =   0.0046296
        k(  459) = (   0.4811252  -0.6804139   0.0000000), wk =   0.0023148
        k(  460) = (   0.5292377  -0.6463932  -0.0833333), wk =   0.0046296
        k(  461) = (   0.4811252  -0.5783518   0.0000000), wk =   0.0023148
        k(  462) = (   0.5292377  -0.5443311  -0.0833333), wk =   0.0046296
        k(  463) = (   0.4811252  -0.4762897   0.0000000), wk =   0.0023148
        k(  464) = (   0.5292377  -0.4422690  -0.0833333), wk =   0.0046296
        k(  465) = (   0.4811252  -0.3742276   0.0000000), wk =   0.0023148
        k(  466) = (   0.5292377  -0.3402070  -0.0833333), wk =   0.0046296
        k(  467) = (   0.4811252  -0.2721656   0.0000000), wk =   0.0023148
        k(  468) = (   0.5773502  -0.2041242  -0.1666667), wk =   0.0023148
        k(  469) = (   0.5292377  -0.2381449  -0.0833333), wk =   0.0046296
        k(  470) = (  -0.5773502   0.2041242   0.0000000), wk =   0.0011574
        k(  471) = (  -0.5773502   0.3061862   0.0000000), wk =   0.0023148
        k(  472) = (  -0.5773502   0.4082483   0.0000000), wk =   0.0023148
        k(  473) = (  -0.5773502   0.5103104   0.0000000), wk =   0.0023148
        k(  474) = (  -0.5773502   0.6123725   0.0000000), wk =   0.0023148
        k(  475) = (  -0.5773502   0.7144346   0.0000000), wk =   0.0023148
        k(  476) = (  -0.5773502  -0.4082483   0.0000000), wk =   0.0011574

                       cryst. coord.
        k(    1) = (   0.0000000   0.0000000   0.0000000), wk =   0.0011574
        k(    2) = (  -0.0000000  -0.0000000   0.0833333), wk =   0.0046296
        k(    3) = (  -0.0000000  -0.0000000   0.1666667), wk =   0.0046296
        k(    4) = (   0.0000000  -0.0000000   0.2500000), wk =   0.0046296
        k(    5) = (  -0.0000000  -0.0000000   0.3333333), wk =   0.0046296
        k(    6) = (  -0.0000000  -0.0000000   0.4166667), wk =   0.0046296
        k(    7) = (   0.0000000   0.0000000  -0.5000000), wk =   0.0023148
        k(    8) = (   0.0000000   0.0833333   0.0000000), wk =   0.0023148
        k(    9) = (  -0.0000000   0.0833333   0.0833333), wk =   0.0046296
        k(   10) = (  -0.0000000   0.0833333   0.1666667), wk =   0.0046296
        k(   11) = (   0.0000000   0.0833333   0.2500000), wk =   0.0046296
        k(   12) = (  -0.0000000   0.0833333   0.3333333), wk =   0.0046296
        k(   13) = (  -0.0000000   0.0833333   0.4166667), wk =   0.0046296
        k(   14) = (   0.0000000   0.0833333  -0.5000000), wk =   0.0046296
        k(   15) = (   0.0000000   0.0833333  -0.4166667), wk =   0.0046296
        k(   16) = (   0.0000000   0.0833333  -0.3333333), wk =   0.0046296
        k(   17) = (   0.0000000   0.0833333  -0.2500000), wk =   0.0046296
        k(   18) = (   0.0000000   0.0833333  -0.1666667), wk =   0.0046296
        k(   19) = (   0.0000000   0.0833333  -0.0833333), wk =   0.0046296
        k(   20) = (   0.0000000   0.1666667   0.0000000), wk =   0.0023148
        k(   21) = (  -0.0000000   0.1666667   0.0833333), wk =   0.0046296
        k(   22) = (  -0.0000000   0.1666667   0.1666667), wk =   0.0046296
        k(   23) = (   0.0000000   0.1666667   0.2500000), wk =   0.0046296
        k(   24) = (  -0.0000000   0.1666667   0.3333333), wk =   0.0046296
        k(   25) = (  -0.0000000   0.1666667   0.4166667), wk =   0.0046296
        k(   26) = (   0.0000000   0.1666667  -0.5000000), wk =   0.0046296
        k(   27) = (   0.0000000   0.1666667  -0.4166667), wk =   0.0046296
        k(   28) = (   0.0000000   0.1666667  -0.3333333), wk =   0.0046296
        k(   29) = (   0.0000000   0.1666667  -0.2500000), wk =   0.0046296
        k(   30) = (   0.0000000   0.1666667  -0.1666667), wk =   0.0046296
        k(   31) = (   0.0000000   0.1666667  -0.0833333), wk =   0.0046296
        k(   32) = (   0.0000000   0.2500000   0.0000000), wk =   0.0023148
        k(   33) = (  -0.0000000   0.2500000   0.0833333), wk =   0.0046296
        k(   34) = (  -0.0000000   0.2500000   0.1666667), wk =   0.0046296
        k(   35) = (   0.0000000   0.2500000   0.2500000), wk =   0.0046296
        k(   36) = (  -0.0000000   0.2500000   0.3333333), wk =   0.0046296
        k(   37) = (  -0.0000000   0.2500000   0.4166667), wk =   0.0046296
        k(   38) = (   0.0000000   0.2500000  -0.5000000), wk =   0.0046296
        k(   39) = (   0.0000000   0.2500000  -0.4166667), wk =   0.0046296
        k(   40) = (   0.0000000   0.2500000  -0.3333333), wk =   0.0046296
        k(   41) = (   0.0000000   0.2500000  -0.2500000), wk =   0.0046296
        k(   42) = (   0.0000000   0.2500000  -0.1666667), wk =   0.0046296
        k(   43) = (   0.0000000   0.2500000  -0.0833333), wk =   0.0046296
        k(   44) = (   0.0000000   0.3333333   0.0000000), wk =   0.0023148
        k(   45) = (  -0.0000000   0.3333333   0.0833333), wk =   0.0046296
        k(   46) = (  -0.0000000   0.3333333   0.1666667), wk =   0.0046296
        k(   47) = (   0.0000000   0.3333333   0.2500000), wk =   0.0046296
        k(   48) = (  -0.0000000   0.3333333   0.3333333), wk =   0.0046296
        k(   49) = (  -0.0000000   0.3333333   0.4166667), wk =   0.0046296
        k(   50) = (   0.0000000   0.3333333  -0.5000000), wk =   0.0046296
        k(   51) = (   0.0000000   0.3333333  -0.4166667), wk =   0.0046296
        k(   52) = (   0.0000000   0.3333333  -0.3333333), wk =   0.0046296
        k(   53) = (   0.0000000   0.3333333  -0.2500000), wk =   0.0046296
        k(   54) = (   0.0000000   0.3333333  -0.1666667), wk =   0.0046296
        k(   55) = (   0.0000000   0.3333333  -0.0833333), wk =   0.0046296
        k(   56) = (   0.0000000   0.4166667   0.0000000), wk =   0.0023148
        k(   57) = (  -0.0000000   0.4166667   0.0833333), wk =   0.0046296
        k(   58) = (  -0.0000000   0.4166667   0.1666667), wk =   0.0046296
        k(   59) = (   0.0000000   0.4166667   0.2500000), wk =   0.0046296
        k(   60) = (  -0.0000000   0.4166667   0.3333333), wk =   0.0046296
        k(   61) = (  -0.0000000   0.4166667   0.4166667), wk =   0.0046296
        k(   62) = (   0.0000000   0.4166667  -0.5000000), wk =   0.0046296
        k(   63) = (   0.0000000   0.4166667  -0.4166667), wk =   0.0046296
        k(   64) = (   0.0000000   0.4166667  -0.3333333), wk =   0.0046296
        k(   65) = (   0.0000000   0.4166667  -0.2500000), wk =   0.0046296
        k(   66) = (   0.0000000   0.4166667  -0.1666667), wk =   0.0046296
        k(   67) = (   0.0000000   0.4166667  -0.0833333), wk =   0.0046296
        k(   68) = (   0.0000000  -0.5000000   0.0000000), wk =   0.0011574
        k(   69) = (  -0.0000000  -0.5000000   0.0833333), wk =   0.0046296
        k(   70) = (  -0.0000000  -0.5000000   0.1666667), wk =   0.0046296
        k(   71) = (   0.0000000  -0.5000000   0.2500000), wk =   0.0046296
        k(   72) = (  -0.0000000  -0.5000000   0.3333333), wk =   0.0046296
        k(   73) = (  -0.0000000  -0.5000000   0.4166667), wk =   0.0046296
        k(   74) = (   0.0000000  -0.5000000  -0.5000000), wk =   0.0023148
        k(   75) = (   0.0833333   0.0000000   0.0000000), wk =   0.0023148
        k(   76) = (   0.0833333  -0.0000000   0.1666667), wk =   0.0046296
        k(   77) = (   0.0833333  -0.0000000   0.2500000), wk =   0.0046296
        k(   78) = (   0.0833333  -0.0000000   0.3333333), wk =   0.0046296
        k(   79) = (   0.0833333  -0.0000000   0.4166667), wk =   0.0046296
        k(   80) = (   0.0833333   0.0000000  -0.5000000), wk =   0.0046296
        k(   81) = (   0.0833333   0.0000000  -0.4166667), wk =   0.0046296
        k(   82) = (   0.0833333   0.0000000  -0.3333333), wk =   0.0046296
        k(   83) = (   0.0833333   0.0000000  -0.2500000), wk =   0.0046296
        k(   84) = (   0.0833333   0.0000000  -0.1666667), wk =   0.0046296
        k(   85) = (   0.0833333   0.0000000  -0.0833333), wk =   0.0046296
        k(   86) = (   0.0833333   0.0833333   0.0000000), wk =   0.0023148
        k(   87) = (   0.0833333   0.0833333   0.1666667), wk =   0.0023148
        k(   88) = (   0.0833333   0.0833333   0.2500000), wk =   0.0046296
        k(   89) = (   0.0833333   0.0833333   0.3333333), wk =   0.0046296
        k(   90) = (   0.0833333   0.0833333   0.4166667), wk =   0.0046296
        k(   91) = (   0.0833333   0.0833333  -0.5000000), wk =   0.0046296
        k(   92) = (   0.0833333   0.0833333  -0.4166667), wk =   0.0046296
        k(   93) = (   0.0833333   0.0833333  -0.3333333), wk =   0.0046296
        k(   94) = (   0.0833333   0.0833333  -0.2500000), wk =   0.0046296
        k(   95) = (   0.0833333   0.0833333  -0.1666667), wk =   0.0046296
        k(   96) = (   0.0833333   0.0833333  -0.0833333), wk =   0.0046296
        k(   97) = (   0.0833333   0.1666667   0.0000000), wk =   0.0023148
        k(   98) = (   0.0833333   0.1666667   0.2500000), wk =   0.0046296
        k(   99) = (   0.0833333   0.1666667   0.3333333), wk =   0.0046296
        k(  100) = (   0.0833333   0.1666667   0.4166667), wk =   0.0046296
        k(  101) = (   0.0833333   0.1666667  -0.5000000), wk =   0.0046296
        k(  102) = (   0.0833333   0.1666667  -0.4166667), wk =   0.0046296
        k(  103) = (   0.0833333   0.1666667  -0.3333333), wk =   0.0046296
        k(  104) = (   0.0833333   0.1666667  -0.2500000), wk =   0.0046296
        k(  105) = (   0.0833333   0.1666667  -0.1666667), wk =   0.0046296
        k(  106) = (   0.0833333   0.1666667  -0.0833333), wk =   0.0046296
        k(  107) = (   0.0833333   0.2500000   0.0000000), wk =   0.0023148
        k(  108) = (   0.0833333   0.2500000   0.1666667), wk =   0.0046296
        k(  109) = (   0.0833333   0.2500000   0.2500000), wk =   0.0046296
        k(  110) = (   0.0833333   0.2500000   0.3333333), wk =   0.0046296
        k(  111) = (   0.0833333   0.2500000   0.4166667), wk =   0.0046296
        k(  112) = (   0.0833333   0.2500000  -0.5000000), wk =   0.0046296
        k(  113) = (   0.0833333   0.2500000  -0.4166667), wk =   0.0046296
        k(  114) = (   0.0833333   0.2500000  -0.3333333), wk =   0.0046296
        k(  115) = (   0.0833333   0.2500000  -0.2500000), wk =   0.0046296
        k(  116) = (   0.0833333   0.2500000  -0.1666667), wk =   0.0046296
        k(  117) = (   0.0833333   0.2500000  -0.0833333), wk =   0.0046296
        k(  118) = (   0.0833333   0.3333333   0.0000000), wk =   0.0023148
        k(  119) = (   0.0833333   0.3333333   0.1666667), wk =   0.0046296
        k(  120) = (   0.0833333   0.3333333   0.2500000), wk =   0.0046296
        k(  121) = (   0.0833333   0.3333333   0.3333333), wk =   0.0046296
        k(  122) = (   0.0833333   0.3333333   0.4166667), wk =   0.0046296
        k(  123) = (   0.0833333   0.3333333  -0.5000000), wk =   0.0046296
        k(  124) = (   0.0833333   0.3333333  -0.4166667), wk =   0.0046296
        k(  125) = (   0.0833333   0.3333333  -0.3333333), wk =   0.0046296
        k(  126) = (   0.0833333   0.3333333  -0.2500000), wk =   0.0046296
        k(  127) = (   0.0833333   0.3333333  -0.1666667), wk =   0.0046296
        k(  128) = (   0.0833333   0.3333333  -0.0833333), wk =   0.0046296
        k(  129) = (   0.0833333   0.4166667   0.0000000), wk =   0.0023148
        k(  130) = (   0.0833333   0.4166667   0.1666667), wk =   0.0046296
        k(  131) = (   0.0833333   0.4166667   0.2500000), wk =   0.0046296
        k(  132) = (   0.0833333   0.4166667   0.3333333), wk =   0.0046296
        k(  133) = (   0.0833333   0.4166667   0.4166667), wk =   0.0046296
        k(  134) = (   0.0833333   0.4166667  -0.5000000), wk =   0.0046296
        k(  135) = (   0.0833333   0.4166667  -0.4166667), wk =   0.0046296
        k(  136) = (   0.0833333   0.4166667  -0.3333333), wk =   0.0046296
        k(  137) = (   0.0833333   0.4166667  -0.2500000), wk =   0.0046296
        k(  138) = (   0.0833333   0.4166667  -0.1666667), wk =   0.0046296
        k(  139) = (   0.0833333   0.4166667  -0.0833333), wk =   0.0046296
        k(  140) = (   0.0833333  -0.5000000   0.0000000), wk =   0.0023148
        k(  141) = (   0.0833333  -0.5000000   0.1666667), wk =   0.0046296
        k(  142) = (   0.0833333  -0.5000000   0.2500000), wk =   0.0046296
        k(  143) = (   0.0833333  -0.5000000   0.3333333), wk =   0.0046296
        k(  144) = (   0.0833333  -0.5000000   0.4166667), wk =   0.0046296
        k(  145) = (   0.0833333  -0.5000000  -0.5000000), wk =   0.0046296
        k(  146) = (   0.0833333  -0.5000000  -0.4166667), wk =   0.0046296
        k(  147) = (   0.0833333  -0.5000000  -0.3333333), wk =   0.0046296
        k(  148) = (   0.0833333  -0.5000000  -0.2500000), wk =   0.0046296
        k(  149) = (   0.0833333  -0.5000000  -0.1666667), wk =   0.0046296
        k(  150) = (   0.0833333  -0.5000000  -0.0833333), wk =   0.0046296
        k(  151) = (   0.0833333  -0.4166667   0.0000000), wk =   0.0023148
        k(  152) = (   0.0833333  -0.4166667   0.1666667), wk =   0.0023148
        k(  153) = (   0.0833333  -0.4166667   0.2500000), wk =   0.0046296
        k(  154) = (   0.0833333  -0.4166667   0.3333333), wk =   0.0046296
        k(  155) = (   0.0833333  -0.4166667   0.4166667), wk =   0.0046296
        k(  156) = (   0.0833333  -0.4166667  -0.5000000), wk =   0.0046296
        k(  157) = (   0.0833333  -0.4166667  -0.4166667), wk =   0.0046296
        k(  158) = (   0.0833333  -0.4166667  -0.3333333), wk =   0.0046296
        k(  159) = (   0.0833333  -0.4166667  -0.2500000), wk =   0.0046296
        k(  160) = (   0.0833333  -0.4166667  -0.1666667), wk =   0.0046296
        k(  161) = (   0.0833333  -0.4166667  -0.0833333), wk =   0.0046296
        k(  162) = (   0.0833333  -0.3333333   0.0000000), wk =   0.0023148
        k(  163) = (   0.0833333  -0.3333333   0.2500000), wk =   0.0046296
        k(  164) = (   0.0833333  -0.3333333   0.3333333), wk =   0.0046296
        k(  165) = (   0.0833333  -0.3333333   0.4166667), wk =   0.0046296
        k(  166) = (   0.0833333  -0.3333333  -0.5000000), wk =   0.0046296
        k(  167) = (   0.0833333  -0.3333333  -0.4166667), wk =   0.0046296
        k(  168) = (   0.0833333  -0.3333333  -0.3333333), wk =   0.0046296
        k(  169) = (   0.0833333  -0.3333333  -0.2500000), wk =   0.0046296
        k(  170) = (   0.0833333  -0.3333333  -0.1666667), wk =   0.0046296
        k(  171) = (   0.0833333  -0.3333333  -0.0833333), wk =   0.0046296
        k(  172) = (   0.0833333  -0.2500000   0.0000000), wk =   0.0023148
        k(  173) = (   0.0833333  -0.2500000   0.2500000), wk =   0.0046296
        k(  174) = (   0.0833333  -0.2500000   0.3333333), wk =   0.0046296
        k(  175) = (   0.0833333  -0.2500000   0.4166667), wk =   0.0046296
        k(  176) = (   0.0833333  -0.2500000  -0.5000000), wk =   0.0046296
        k(  177) = (   0.0833333  -0.2500000  -0.4166667), wk =   0.0046296
        k(  178) = (   0.0833333  -0.2500000  -0.3333333), wk =   0.0046296
        k(  179) = (   0.0833333  -0.2500000  -0.2500000), wk =   0.0046296
        k(  180) = (   0.0833333  -0.2500000  -0.1666667), wk =   0.0046296
        k(  181) = (   0.0833333  -0.2500000  -0.0833333), wk =   0.0046296
        k(  182) = (   0.0833333  -0.1666667   0.0000000), wk =   0.0023148
        k(  183) = (   0.0833333  -0.1666667   0.2500000), wk =   0.0046296
        k(  184) = (   0.0833333  -0.1666667   0.3333333), wk =   0.0046296
        k(  185) = (   0.0833333  -0.1666667   0.4166667), wk =   0.0046296
        k(  186) = (   0.0833333  -0.1666667  -0.5000000), wk =   0.0046296
        k(  187) = (   0.0833333  -0.1666667  -0.4166667), wk =   0.0046296
        k(  188) = (   0.0833333  -0.1666667  -0.3333333), wk =   0.0046296
        k(  189) = (   0.0833333  -0.1666667  -0.2500000), wk =   0.0046296
        k(  190) = (   0.0833333  -0.1666667  -0.1666667), wk =   0.0046296
        k(  191) = (   0.0833333  -0.1666667  -0.0833333), wk =   0.0046296
        k(  192) = (   0.0833333  -0.0833333   0.0000000), wk =   0.0023148
        k(  193) = (   0.0833333  -0.0833333   0.2500000), wk =   0.0046296
        k(  194) = (   0.0833333  -0.0833333   0.3333333), wk =   0.0046296
        k(  195) = (   0.0833333  -0.0833333   0.4166667), wk =   0.0046296
        k(  196) = (   0.0833333  -0.0833333  -0.5000000), wk =   0.0046296
        k(  197) = (   0.0833333  -0.0833333  -0.4166667), wk =   0.0046296
        k(  198) = (   0.0833333  -0.0833333  -0.3333333), wk =   0.0046296
        k(  199) = (   0.0833333  -0.0833333  -0.2500000), wk =   0.0046296
        k(  200) = (   0.0833333  -0.0833333  -0.1666667), wk =   0.0046296
        k(  201) = (   0.0833333  -0.0833333  -0.0833333), wk =   0.0046296
        k(  202) = (   0.1666667   0.0000000   0.0000000), wk =   0.0023148
        k(  203) = (   0.1666667  -0.0000000   0.3333333), wk =   0.0046296
        k(  204) = (   0.1666667  -0.0000000   0.4166667), wk =   0.0046296
        k(  205) = (   0.1666667   0.0000000  -0.5000000), wk =   0.0046296
        k(  206) = (   0.1666667   0.0000000  -0.4166667), wk =   0.0046296
        k(  207) = (   0.1666667   0.0000000  -0.3333333), wk =   0.0046296
        k(  208) = (   0.1666667   0.0000000  -0.2500000), wk =   0.0046296
        k(  209) = (   0.1666667   0.0000000  -0.1666667), wk =   0.0046296
        k(  210) = (   0.1666667   0.0000000  -0.0833333), wk =   0.0046296
        k(  211) = (   0.1666667   0.0833333   0.0000000), wk =   0.0023148
        k(  212) = (   0.1666667   0.0833333   0.3333333), wk =   0.0046296
        k(  213) = (   0.1666667   0.0833333   0.4166667), wk =   0.0046296
        k(  214) = (   0.1666667   0.0833333  -0.5000000), wk =   0.0046296
        k(  215) = (   0.1666667   0.0833333  -0.4166667), wk =   0.0046296
        k(  216) = (   0.1666667   0.0833333  -0.3333333), wk =   0.0046296
        k(  217) = (   0.1666667   0.0833333  -0.2500000), wk =   0.0046296
        k(  218) = (   0.1666667   0.0833333  -0.1666667), wk =   0.0046296
        k(  219) = (   0.1666667   0.0833333  -0.0833333), wk =   0.0046296
        k(  220) = (   0.1666667   0.1666667   0.0000000), wk =   0.0023148
        k(  221) = (   0.1666667   0.1666667   0.3333333), wk =   0.0023148
        k(  222) = (   0.1666667   0.1666667   0.4166667), wk =   0.0046296
        k(  223) = (   0.1666667   0.1666667  -0.5000000), wk =   0.0046296
        k(  224) = (   0.1666667   0.1666667  -0.4166667), wk =   0.0046296
        k(  225) = (   0.1666667   0.1666667  -0.3333333), wk =   0.0046296
        k(  226) = (   0.1666667   0.1666667  -0.2500000), wk =   0.0046296
        k(  227) = (   0.1666667   0.1666667  -0.1666667), wk =   0.0046296
        k(  228) = (   0.1666667   0.1666667  -0.0833333), wk =   0.0046296
        k(  229) = (   0.1666667   0.2500000   0.0000000), wk =   0.0023148
        k(  230) = (   0.1666667   0.2500000   0.4166667), wk =   0.0046296
        k(  231) = (   0.1666667   0.2500000  -0.5000000), wk =   0.0046296
        k(  232) = (   0.1666667   0.2500000  -0.4166667), wk =   0.0046296
        k(  233) = (   0.1666667   0.2500000  -0.3333333), wk =   0.0046296
        k(  234) = (   0.1666667   0.2500000  -0.2500000), wk =   0.0046296
        k(  235) = (   0.1666667   0.2500000  -0.1666667), wk =   0.0046296
        k(  236) = (   0.1666667   0.2500000  -0.0833333), wk =   0.0046296
        k(  237) = (   0.1666667   0.3333333   0.0000000), wk =   0.0023148
        k(  238) = (   0.1666667   0.3333333   0.4166667), wk =   0.0046296
        k(  239) = (   0.1666667   0.3333333  -0.5000000), wk =   0.0046296
        k(  240) = (   0.1666667   0.3333333  -0.4166667), wk =   0.0046296
        k(  241) = (   0.1666667   0.3333333  -0.3333333), wk =   0.0046296
        k(  242) = (   0.1666667   0.3333333  -0.2500000), wk =   0.0046296
        k(  243) = (   0.1666667   0.3333333  -0.1666667), wk =   0.0046296
        k(  244) = (   0.1666667   0.3333333  -0.0833333), wk =   0.0046296
        k(  245) = (   0.1666667   0.4166667   0.0000000), wk =   0.0023148
        k(  246) = (   0.1666667   0.4166667   0.3333333), wk =   0.0046296
        k(  247) = (   0.1666667   0.4166667   0.4166667), wk =   0.0046296
        k(  248) = (   0.1666667   0.4166667  -0.5000000), wk =   0.0046296
        k(  249) = (   0.1666667   0.4166667  -0.4166667), wk =   0.0046296
        k(  250) = (   0.1666667   0.4166667  -0.3333333), wk =   0.0046296
        k(  251) = (   0.1666667   0.4166667  -0.2500000), wk =   0.0046296
        k(  252) = (   0.1666667   0.4166667  -0.1666667), wk =   0.0046296
        k(  253) = (   0.1666667   0.4166667  -0.0833333), wk =   0.0046296
        k(  254) = (   0.1666667  -0.5000000   0.0000000), wk =   0.0023148
        k(  255) = (   0.1666667  -0.5000000   0.3333333), wk =   0.0046296
        k(  256) = (   0.1666667  -0.5000000   0.4166667), wk =   0.0046296
        k(  257) = (   0.1666667  -0.5000000  -0.5000000), wk =   0.0046296
        k(  258) = (   0.1666667  -0.5000000  -0.4166667), wk =   0.0046296
        k(  259) = (   0.1666667  -0.5000000  -0.3333333), wk =   0.0046296
        k(  260) = (   0.1666667  -0.5000000  -0.2500000), wk =   0.0046296
        k(  261) = (   0.1666667  -0.5000000  -0.1666667), wk =   0.0046296
        k(  262) = (   0.1666667  -0.5000000  -0.0833333), wk =   0.0046296
        k(  263) = (   0.1666667  -0.4166667   0.0000000), wk =   0.0023148
        k(  264) = (   0.1666667  -0.4166667   0.3333333), wk =   0.0046296
        k(  265) = (   0.1666667  -0.4166667   0.4166667), wk =   0.0046296
        k(  266) = (   0.1666667  -0.4166667  -0.5000000), wk =   0.0046296
        k(  267) = (   0.1666667  -0.4166667  -0.4166667), wk =   0.0046296
        k(  268) = (   0.1666667  -0.4166667  -0.3333333), wk =   0.0046296
        k(  269) = (   0.1666667  -0.4166667  -0.2500000), wk =   0.0046296
        k(  270) = (   0.1666667  -0.4166667  -0.1666667), wk =   0.0046296
        k(  271) = (   0.1666667  -0.4166667  -0.0833333), wk =   0.0046296
        k(  272) = (   0.1666667  -0.3333333   0.0000000), wk =   0.0023148
        k(  273) = (   0.1666667  -0.3333333   0.3333333), wk =   0.0023148
        k(  274) = (   0.1666667  -0.3333333   0.4166667), wk =   0.0046296
        k(  275) = (   0.1666667  -0.3333333  -0.5000000), wk =   0.0046296
        k(  276) = (   0.1666667  -0.3333333  -0.4166667), wk =   0.0046296
        k(  277) = (   0.1666667  -0.3333333  -0.3333333), wk =   0.0046296
        k(  278) = (   0.1666667  -0.3333333  -0.2500000), wk =   0.0046296
        k(  279) = (   0.1666667  -0.3333333  -0.1666667), wk =   0.0046296
        k(  280) = (   0.1666667  -0.3333333  -0.0833333), wk =   0.0046296
        k(  281) = (   0.1666667  -0.2500000   0.0000000), wk =   0.0023148
        k(  282) = (   0.1666667  -0.2500000   0.4166667), wk =   0.0046296
        k(  283) = (   0.1666667  -0.2500000  -0.5000000), wk =   0.0046296
        k(  284) = (   0.1666667  -0.2500000  -0.4166667), wk =   0.0046296
        k(  285) = (   0.1666667  -0.2500000  -0.3333333), wk =   0.0046296
        k(  286) = (   0.1666667  -0.2500000  -0.2500000), wk =   0.0046296
        k(  287) = (   0.1666667  -0.2500000  -0.1666667), wk =   0.0046296
        k(  288) = (   0.1666667  -0.2500000  -0.0833333), wk =   0.0046296
        k(  289) = (   0.1666667  -0.1666667   0.0000000), wk =   0.0023148
        k(  290) = (   0.1666667  -0.1666667   0.4166667), wk =   0.0046296
        k(  291) = (   0.1666667  -0.1666667  -0.5000000), wk =   0.0046296
        k(  292) = (   0.1666667  -0.1666667  -0.4166667), wk =   0.0046296
        k(  293) = (   0.1666667  -0.1666667  -0.3333333), wk =   0.0046296
        k(  294) = (   0.1666667  -0.1666667  -0.2500000), wk =   0.0046296
        k(  295) = (   0.1666667  -0.1666667  -0.1666667), wk =   0.0046296
        k(  296) = (   0.1666667  -0.1666667  -0.0833333), wk =   0.0046296
        k(  297) = (   0.1666667  -0.0833333   0.0000000), wk =   0.0023148
        k(  298) = (   0.1666667  -0.0833333   0.4166667), wk =   0.0046296
        k(  299) = (   0.1666667  -0.0833333  -0.5000000), wk =   0.0046296
        k(  300) = (   0.1666667  -0.0833333  -0.4166667), wk =   0.0046296
        k(  301) = (   0.1666667  -0.0833333  -0.3333333), wk =   0.0046296
        k(  302) = (   0.1666667  -0.0833333  -0.2500000), wk =   0.0046296
        k(  303) = (   0.1666667  -0.0833333  -0.1666667), wk =   0.0046296
        k(  304) = (   0.1666667  -0.0833333  -0.0833333), wk =   0.0046296
        k(  305) = (   0.2500000   0.0000000   0.0000000), wk =   0.0023148
        k(  306) = (   0.2500000   0.0000000  -0.5000000), wk =   0.0046296
        k(  307) = (   0.2500000   0.0000000  -0.4166667), wk =   0.0046296
        k(  308) = (   0.2500000   0.0000000  -0.3333333), wk =   0.0046296
        k(  309) = (   0.2500000   0.0000000  -0.2500000), wk =   0.0046296
        k(  310) = (   0.2500000   0.0000000  -0.1666667), wk =   0.0046296
        k(  311) = (   0.2500000   0.0000000  -0.0833333), wk =   0.0046296
        k(  312) = (   0.2500000   0.0833333   0.0000000), wk =   0.0023148
        k(  313) = (   0.2500000   0.0833333  -0.5000000), wk =   0.0046296
        k(  314) = (   0.2500000   0.0833333  -0.4166667), wk =   0.0046296
        k(  315) = (   0.2500000   0.0833333  -0.3333333), wk =   0.0046296
        k(  316) = (   0.2500000   0.0833333  -0.2500000), wk =   0.0046296
        k(  317) = (   0.2500000   0.0833333  -0.1666667), wk =   0.0046296
        k(  318) = (   0.2500000   0.0833333  -0.0833333), wk =   0.0046296
        k(  319) = (   0.2500000   0.1666667   0.0000000), wk =   0.0023148
        k(  320) = (   0.2500000   0.1666667  -0.5000000), wk =   0.0046296
        k(  321) = (   0.2500000   0.1666667  -0.4166667), wk =   0.0046296
        k(  322) = (   0.2500000   0.1666667  -0.3333333), wk =   0.0046296
        k(  323) = (   0.2500000   0.1666667  -0.2500000), wk =   0.0046296
        k(  324) = (   0.2500000   0.1666667  -0.1666667), wk =   0.0046296
        k(  325) = (   0.2500000   0.1666667  -0.0833333), wk =   0.0046296
        k(  326) = (   0.2500000   0.2500000   0.0000000), wk =   0.0023148
        k(  327) = (   0.2500000   0.2500000  -0.5000000), wk =   0.0023148
        k(  328) = (   0.2500000   0.2500000  -0.4166667), wk =   0.0046296
        k(  329) = (   0.2500000   0.2500000  -0.3333333), wk =   0.0046296
        k(  330) = (   0.2500000   0.2500000  -0.2500000), wk =   0.0046296
        k(  331) = (   0.2500000   0.2500000  -0.1666667), wk =   0.0046296
        k(  332) = (   0.2500000   0.2500000  -0.0833333), wk =   0.0046296
        k(  333) = (   0.2500000   0.3333333   0.0000000), wk =   0.0023148
        k(  334) = (   0.2500000   0.3333333  -0.4166667), wk =   0.0046296
        k(  335) = (   0.2500000   0.3333333  -0.3333333), wk =   0.0046296
        k(  336) = (   0.2500000   0.3333333  -0.2500000), wk =   0.0046296
        k(  337) = (   0.2500000   0.3333333  -0.1666667), wk =   0.0046296
        k(  338) = (   0.2500000   0.3333333  -0.0833333), wk =   0.0046296
        k(  339) = (   0.2500000   0.4166667   0.0000000), wk =   0.0023148
        k(  340) = (   0.2500000   0.4166667  -0.4166667), wk =   0.0046296
        k(  341) = (   0.2500000   0.4166667  -0.3333333), wk =   0.0046296
        k(  342) = (   0.2500000   0.4166667  -0.2500000), wk =   0.0046296
        k(  343) = (   0.2500000   0.4166667  -0.1666667), wk =   0.0046296
        k(  344) = (   0.2500000   0.4166667  -0.0833333), wk =   0.0046296
        k(  345) = (   0.2500000  -0.5000000   0.0000000), wk =   0.0023148
        k(  346) = (   0.2500000  -0.5000000  -0.4166667), wk =   0.0046296
        k(  347) = (   0.2500000  -0.5000000  -0.3333333), wk =   0.0046296
        k(  348) = (   0.2500000  -0.5000000  -0.2500000), wk =   0.0046296
        k(  349) = (   0.2500000  -0.5000000  -0.1666667), wk =   0.0046296
        k(  350) = (   0.2500000  -0.5000000  -0.0833333), wk =   0.0046296
        k(  351) = (   0.2500000  -0.4166667   0.0000000), wk =   0.0023148
        k(  352) = (   0.2500000  -0.4166667  -0.5000000), wk =   0.0046296
        k(  353) = (   0.2500000  -0.4166667  -0.4166667), wk =   0.0046296
        k(  354) = (   0.2500000  -0.4166667  -0.3333333), wk =   0.0046296
        k(  355) = (   0.2500000  -0.4166667  -0.2500000), wk =   0.0046296
        k(  356) = (   0.2500000  -0.4166667  -0.1666667), wk =   0.0046296
        k(  357) = (   0.2500000  -0.4166667  -0.0833333), wk =   0.0046296
        k(  358) = (   0.2500000  -0.3333333   0.0000000), wk =   0.0023148
        k(  359) = (   0.2500000  -0.3333333  -0.5000000), wk =   0.0046296
        k(  360) = (   0.2500000  -0.3333333  -0.4166667), wk =   0.0046296
        k(  361) = (   0.2500000  -0.3333333  -0.3333333), wk =   0.0046296
        k(  362) = (   0.2500000  -0.3333333  -0.2500000), wk =   0.0046296
        k(  363) = (   0.2500000  -0.3333333  -0.1666667), wk =   0.0046296
        k(  364) = (   0.2500000  -0.3333333  -0.0833333), wk =   0.0046296
        k(  365) = (   0.2500000  -0.2500000   0.0000000), wk =   0.0023148
        k(  366) = (   0.2500000  -0.2500000  -0.5000000), wk =   0.0023148
        k(  367) = (   0.2500000  -0.2500000  -0.4166667), wk =   0.0046296
        k(  368) = (   0.2500000  -0.2500000  -0.3333333), wk =   0.0046296
        k(  369) = (   0.2500000  -0.2500000  -0.2500000), wk =   0.0046296
        k(  370) = (   0.2500000  -0.2500000  -0.1666667), wk =   0.0046296
        k(  371) = (   0.2500000  -0.2500000  -0.0833333), wk =   0.0046296
        k(  372) = (   0.2500000  -0.1666667   0.0000000), wk =   0.0023148
        k(  373) = (   0.2500000  -0.1666667  -0.4166667), wk =   0.0046296
        k(  374) = (   0.2500000  -0.1666667  -0.3333333), wk =   0.0046296
        k(  375) = (   0.2500000  -0.1666667  -0.2500000), wk =   0.0046296
        k(  376) = (   0.2500000  -0.1666667  -0.1666667), wk =   0.0046296
        k(  377) = (   0.2500000  -0.1666667  -0.0833333), wk =   0.0046296
        k(  378) = (   0.2500000  -0.0833333   0.0000000), wk =   0.0023148
        k(  379) = (   0.2500000  -0.0833333  -0.4166667), wk =   0.0046296
        k(  380) = (   0.2500000  -0.0833333  -0.3333333), wk =   0.0046296
        k(  381) = (   0.2500000  -0.0833333  -0.2500000), wk =   0.0046296
        k(  382) = (   0.2500000  -0.0833333  -0.1666667), wk =   0.0046296
        k(  383) = (   0.2500000  -0.0833333  -0.0833333), wk =   0.0046296
        k(  384) = (   0.3333333   0.0000000   0.0000000), wk =   0.0023148
        k(  385) = (   0.3333333   0.0000000  -0.3333333), wk =   0.0046296
        k(  386) = (   0.3333333   0.0000000  -0.2500000), wk =   0.0046296
        k(  387) = (   0.3333333   0.0000000  -0.1666667), wk =   0.0046296
        k(  388) = (   0.3333333   0.0000000  -0.0833333), wk =   0.0046296
        k(  389) = (   0.3333333   0.0833333   0.0000000), wk =   0.0023148
        k(  390) = (   0.3333333   0.0833333  -0.3333333), wk =   0.0046296
        k(  391) = (   0.3333333   0.0833333  -0.2500000), wk =   0.0046296
        k(  392) = (   0.3333333   0.0833333  -0.1666667), wk =   0.0046296
        k(  393) = (   0.3333333   0.0833333  -0.0833333), wk =   0.0046296
        k(  394) = (   0.3333333   0.1666667   0.0000000), wk =   0.0023148
        k(  395) = (   0.3333333   0.1666667  -0.3333333), wk =   0.0046296
        k(  396) = (   0.3333333   0.1666667  -0.2500000), wk =   0.0046296
        k(  397) = (   0.3333333   0.1666667  -0.1666667), wk =   0.0046296
        k(  398) = (   0.3333333   0.1666667  -0.0833333), wk =   0.0046296
        k(  399) = (   0.3333333   0.2500000   0.0000000), wk =   0.0023148
        k(  400) = (   0.3333333   0.2500000  -0.3333333), wk =   0.0046296
        k(  401) = (   0.3333333   0.2500000  -0.2500000), wk =   0.0046296
        k(  402) = (   0.3333333   0.2500000  -0.1666667), wk =   0.0046296
        k(  403) = (   0.3333333   0.2500000  -0.0833333), wk =   0.0046296
        k(  404) = (   0.3333333   0.3333333   0.0000000), wk =   0.0023148
        k(  405) = (   0.3333333   0.3333333  -0.3333333), wk =   0.0023148
        k(  406) = (   0.3333333   0.3333333  -0.2500000), wk =   0.0046296
        k(  407) = (   0.3333333   0.3333333  -0.1666667), wk =   0.0046296
        k(  408) = (   0.3333333   0.3333333  -0.0833333), wk =   0.0046296
        k(  409) = (   0.3333333   0.4166667   0.0000000), wk =   0.0023148
        k(  410) = (   0.3333333   0.4166667  -0.2500000), wk =   0.0046296
        k(  411) = (   0.3333333   0.4166667  -0.1666667), wk =   0.0046296
        k(  412) = (   0.3333333   0.4166667  -0.0833333), wk =   0.0046296
        k(  413) = (   0.3333333  -0.5000000   0.0000000), wk =   0.0023148
        k(  414) = (   0.3333333  -0.5000000  -0.2500000), wk =   0.0046296
        k(  415) = (   0.3333333  -0.5000000  -0.1666667), wk =   0.0046296
        k(  416) = (   0.3333333  -0.5000000  -0.0833333), wk =   0.0046296
        k(  417) = (   0.3333333  -0.4166667   0.0000000), wk =   0.0023148
        k(  418) = (   0.3333333  -0.4166667  -0.2500000), wk =   0.0046296
        k(  419) = (   0.3333333  -0.4166667  -0.1666667), wk =   0.0046296
        k(  420) = (   0.3333333  -0.4166667  -0.0833333), wk =   0.0046296
        k(  421) = (   0.3333333  -0.3333333   0.0000000), wk =   0.0023148
        k(  422) = (   0.3333333  -0.3333333  -0.2500000), wk =   0.0046296
        k(  423) = (   0.3333333  -0.3333333  -0.1666667), wk =   0.0046296
        k(  424) = (   0.3333333  -0.3333333  -0.0833333), wk =   0.0046296
        k(  425) = (   0.3333333  -0.2500000   0.0000000), wk =   0.0023148
        k(  426) = (   0.3333333  -0.2500000  -0.3333333), wk =   0.0046296
        k(  427) = (   0.3333333  -0.2500000  -0.2500000), wk =   0.0046296
        k(  428) = (   0.3333333  -0.2500000  -0.1666667), wk =   0.0046296
        k(  429) = (   0.3333333  -0.2500000  -0.0833333), wk =   0.0046296
        k(  430) = (   0.3333333  -0.1666667   0.0000000), wk =   0.0023148
        k(  431) = (   0.3333333  -0.1666667  -0.3333333), wk =   0.0023148
        k(  432) = (   0.3333333  -0.1666667  -0.2500000), wk =   0.0046296
        k(  433) = (   0.3333333  -0.1666667  -0.1666667), wk =   0.0046296
        k(  434) = (   0.3333333  -0.1666667  -0.0833333), wk =   0.0046296
        k(  435) = (   0.3333333  -0.0833333   0.0000000), wk =   0.0023148
        k(  436) = (   0.3333333  -0.0833333  -0.2500000), wk =   0.0046296
        k(  437) = (   0.3333333  -0.0833333  -0.1666667), wk =   0.0046296
        k(  438) = (   0.3333333  -0.0833333  -0.0833333), wk =   0.0046296
        k(  439) = (   0.4166667   0.0000000   0.0000000), wk =   0.0023148
        k(  440) = (   0.4166667   0.0000000  -0.1666667), wk =   0.0046296
        k(  441) = (   0.4166667   0.0000000  -0.0833333), wk =   0.0046296
        k(  442) = (   0.4166667   0.0833333   0.0000000), wk =   0.0023148
        k(  443) = (   0.4166667   0.0833333  -0.1666667), wk =   0.0046296
        k(  444) = (   0.4166667   0.0833333  -0.0833333), wk =   0.0046296
        k(  445) = (   0.4166667   0.1666667   0.0000000), wk =   0.0023148
        k(  446) = (   0.4166667   0.1666667  -0.1666667), wk =   0.0046296
        k(  447) = (   0.4166667   0.1666667  -0.0833333), wk =   0.0046296
        k(  448) = (   0.4166667   0.2500000   0.0000000), wk =   0.0023148
        k(  449) = (   0.4166667   0.2500000  -0.1666667), wk =   0.0046296
        k(  450) = (   0.4166667   0.2500000  -0.0833333), wk =   0.0046296
        k(  451) = (   0.4166667   0.3333333   0.0000000), wk =   0.0023148
        k(  452) = (   0.4166667   0.3333333  -0.1666667), wk =   0.0046296
        k(  453) = (   0.4166667   0.3333333  -0.0833333), wk =   0.0046296
        k(  454) = (   0.4166667   0.4166667   0.0000000), wk =   0.0023148
        k(  455) = (   0.4166667   0.4166667  -0.1666667), wk =   0.0023148
        k(  456) = (   0.4166667   0.4166667  -0.0833333), wk =   0.0046296
        k(  457) = (   0.4166667  -0.5000000   0.0000000), wk =   0.0023148
        k(  458) = (   0.4166667  -0.5000000  -0.0833333), wk =   0.0046296
        k(  459) = (   0.4166667  -0.4166667   0.0000000), wk =   0.0023148
        k(  460) = (   0.4166667  -0.4166667  -0.0833333), wk =   0.0046296
        k(  461) = (   0.4166667  -0.3333333   0.0000000), wk =   0.0023148
        k(  462) = (   0.4166667  -0.3333333  -0.0833333), wk =   0.0046296
        k(  463) = (   0.4166667  -0.2500000   0.0000000), wk =   0.0023148
        k(  464) = (   0.4166667  -0.2500000  -0.0833333), wk =   0.0046296
        k(  465) = (   0.4166667  -0.1666667   0.0000000), wk =   0.0023148
        k(  466) = (   0.4166667  -0.1666667  -0.0833333), wk =   0.0046296
        k(  467) = (   0.4166667  -0.0833333   0.0000000), wk =   0.0023148
        k(  468) = (   0.4166667  -0.0833333  -0.1666667), wk =   0.0023148
        k(  469) = (   0.4166667  -0.0833333  -0.0833333), wk =   0.0046296
        k(  470) = (  -0.5000000  -0.0000000   0.0000000), wk =   0.0011574
        k(  471) = (  -0.5000000   0.0833333   0.0000000), wk =   0.0023148
        k(  472) = (  -0.5000000   0.1666667   0.0000000), wk =   0.0023148
        k(  473) = (  -0.5000000   0.2500000   0.0000000), wk =   0.0023148
        k(  474) = (  -0.5000000   0.3333333   0.0000000), wk =   0.0023148
        k(  475) = (  -0.5000000   0.4166667   0.0000000), wk =   0.0023148
        k(  476) = (  -0.5000000  -0.5000000   0.0000000), wk =   0.0011574

     Dense  grid:     3527 G-vectors     FFT dimensions: (  24,  24,  24)

     Dynamical RAM for                 wfc:       0.04 MB

     Dynamical RAM for     wfc (w. buffer):      19.48 MB

     Dynamical RAM for           str. fact:       0.05 MB

     Dynamical RAM for           local pot:       0.00 MB

     Dynamical RAM for          nlocal pot:       0.12 MB

     Dynamical RAM for                qrad:       0.86 MB

     Dynamical RAM for          rho,v,vnew:       0.48 MB

     Dynamical RAM for               rhoin:       0.16 MB

     Dynamical RAM for            rho*nmix:       0.86 MB

     Dynamical RAM for           G-vectors:       0.23 MB

     Dynamical RAM for          h,s,v(r/c):       0.03 MB

     Dynamical RAM for          <psi|beta>:       0.00 MB

     Dynamical RAM for                 psi:       0.16 MB

     Dynamical RAM for                hpsi:       0.16 MB

     Dynamical RAM for                spsi:       0.16 MB

     Dynamical RAM for      wfcinit/wfcrot:       0.08 MB

     Dynamical RAM for           addusdens:      10.06 MB

     Dynamical RAM for          addusforce:      10.09 MB

     Estimated static dynamical RAM per process >      22.87 MB

     Estimated max dynamical RAM per process >      32.97 MB

     Initial potential from superposition of free atoms

     starting charge    3.99933, renormalised to    4.00000
     Starting wfc are    4 randomized atomic wfcs +    2 random wfc

     total cpu time spent up to now is       13.4 secs

     Self-consistent Calculation

     iteration #  1     ecut=    35.00 Ry     beta= 0.70
     Davidson diagonalization with overlap
     ethr =  1.00E-02,  avg # of iterations =  4.4

     Threshold (ethr) on eigenvalues was too large:
     Diagonalizing with lowered threshold

     Davidson diagonalization with overlap
     ethr =  8.38E-05,  avg # of iterations =  2.3

     total cpu time spent up to now is      132.7 secs

     total energy              =      -9.54041062 Ry
     Harris-Foulkes estimate   =      -9.54154558 Ry
[...]

     1.6096   4.5276   7.0301   9.6835  15.2819  19.6186

     occupation numbers 
     1.0000   1.0000   1.0000   0.0000   0.0000   0.0000

          k = 0.4811 0.2381-0.1667 (   445 PWs)   bands (ev):

     0.1609   6.4969   8.0038   9.5659  15.0492  17.2504

     occupation numbers 
     1.0000   1.0000   0.0000   0.0000   0.0000   0.0000

          k = 0.4330 0.2041-0.0833 (   445 PWs)   bands (ev):

    -1.0682   8.3164   9.2581  10.1233  14.8620  15.4436

     occupation numbers 
     1.0000   0.0000   0.0000   0.0000   0.0000   0.0000

          k = 0.3849 0.2722 0.0000 (   444 PWs)   bands (ev):

    -1.2815   8.5742  10.6696  10.6696  13.0547  14.1248

     occupation numbers 
     1.0000   0.0000   0.0000   0.0000   0.0000   0.0000

          k = 0.5774 0.4082-0.3333 (   443 PWs)   bands (ev):

     1.9360   4.9461   5.1536  11.3955  14.3198  22.0773

     occupation numbers 
     1.0000   1.0000   1.0000   0.0000   0.0000   0.0000

          k = 0.5292 0.3742-0.2500 (   443 PWs)   bands (ev):

     2.4575   4.2603   5.7865  10.7909  13.6310  19.4811

     occupation numbers 
     1.0000   1.0000   1.0000   0.0000   0.0000   0.0000

          k = 0.4811 0.3402-0.1667 (   445 PWs)   bands (ev):

     1.0634   5.6771   7.0992  10.4632  13.2675  16.9197

     occupation numbers 
     1.0000   1.0000   1.0000   0.0000   0.0000   0.0000

          k = 0.4330 0.3062-0.0833 (   448 PWs)   bands (ev):

    -0.2534   7.1185   9.0692  10.4221  13.1863  14.7339

     occupation numbers 
     1.0000   1.0000   0.0000   0.0000   0.0000   0.0000

          k = 0.3849 0.3742 0.0000 (   448 PWs)   bands (ev):

    -0.2534   7.1185   9.0692  10.4221  13.1863  14.7339

     occupation numbers 
     1.0000   1.0000   0.0000   0.0000   0.0000   0.0000

          k = 0.5292 0.4763-0.2500 (   447 PWs)   bands (ev):

     3.0927   4.3095   5.2436   9.4327  15.0696  19.5029

     occupation numbers 
     1.0000   1.0000   1.0000   0.0000   0.0000   0.0000

          k = 0.4811 0.4423-0.1667 (   446 PWs)   bands (ev):

     2.2432   4.6969   6.7489   8.9995  14.6116  16.8627

     occupation numbers 
     1.0000   1.0000   1.0000   0.0000   0.0000   0.0000

          k = 0.4330 0.4082-0.0833 (   448 PWs)   bands (ev):

     0.8679   5.8181   8.6420   9.0547  14.2365  14.7250

     occupation numbers 
     1.0000   1.0000   0.0000   0.0000   0.0000   0.0000

          k = 0.3849-0.7485 0.0000 (   445 PWs)   bands (ev):

     1.0634   5.6771   7.0992  10.4632  13.2675  16.9197

     occupation numbers 
     1.0000   1.0000   1.0000   0.0000   0.0000   0.0000

          k = 0.5292-0.6464-0.2500 (   446 PWs)   bands (ev):

     2.8375   4.6840   5.9458   7.7208  17.5422  19.6430

     occupation numbers 
     1.0000   1.0000   1.0000   0.0000   0.0000   0.0000

          k = 0.4811-0.6804-0.1667 (   444 PWs)   bands (ev):

     3.3414   4.0968   6.6223   7.3297  17.0394  17.1184

     occupation numbers 
     1.0000   1.0000   1.0000   0.5695   0.0000   0.0000

          k = 0.4330-0.7144-0.0833 (   446 PWs)   bands (ev):

     2.2432   4.6969   6.7489   8.9995  14.6116  16.8627

     occupation numbers 
     1.0000   1.0000   1.0000   0.0000   0.0000   0.0000

          k = 0.3849-0.6464 0.0000 (   443 PWs)   bands (ev):

     2.4576   4.2603   5.7865  10.7909  13.6310  19.4811

     occupation numbers 
     1.0000   1.0000   1.0000   0.0000   0.0000   0.0000

          k = 0.5292-0.5443-0.2500 (   446 PWs)   bands (ev):

     2.3603   5.3679   5.3725   8.2769  18.0001  20.6417

     occupation numbers 
     1.0000   1.0000   1.0000   0.0000   0.0000   0.0000

          k = 0.4811-0.5784-0.1667 (   446 PWs)   bands (ev):

     2.8375   4.6840   5.9458   7.7208  17.5422  19.6429

     occupation numbers 
     1.0000   1.0000   1.0000   0.0000   0.0000   0.0000

          k = 0.4330-0.6124-0.0833 (   447 PWs)   bands (ev):

     3.0927   4.3095   5.2436   9.4327  15.0696  19.5029

     occupation numbers 
     1.0000   1.0000   1.0000   0.0000   0.0000   0.0000

          k = 0.3849-0.5443 0.0000 (   443 PWs)   bands (ev):

     1.9360   4.9461   5.1536  11.3955  14.3198  22.0773

     occupation numbers 
     1.0000   1.0000   1.0000   0.0000   0.0000   0.0000

          k = 0.5292-0.4423-0.2500 (   447 PWs)   bands (ev):

     2.0129   4.0788   6.3595  10.1812  15.8081  21.2645

     occupation numbers 
     1.0000   1.0000   1.0000   0.0000   0.0000   0.0000

          k = 0.4811-0.4763-0.1667 (   442 PWs)   bands (ev):

     2.1074   3.6835   7.4479   8.9019  17.7791  19.2486

     occupation numbers 
     1.0000   1.0000   0.0002   0.0000   0.0000   0.0000

          k = 0.4330-0.5103-0.0833 (   447 PWs)   bands (ev):

     2.0129   4.0788   6.3595  10.1812  15.8081  21.2645

     occupation numbers 
     1.0000   1.0000   1.0000   0.0000   0.0000   0.0000

          k = 0.3849-0.4423 0.0000 (   447 PWs)   bands (ev):

     0.5293   4.7448   7.1743  12.2499  15.3200  21.5344

     occupation numbers 
     1.0000   1.0000   1.0005   0.0000   0.0000   0.0000

          k = 0.5774-0.3062-0.3333 (   447 PWs)   bands (ev):

     2.0129   4.0788   6.3595  10.1812  15.8081  21.2645

     occupation numbers 
     1.0000   1.0000   1.0000   0.0000   0.0000   0.0000

          k = 0.5292-0.3402-0.2500 (   447 PWs)   bands (ev):

     1.6902   3.2753   7.6226  11.5794  14.5566  21.8912

     occupation numbers 
     1.0000   1.0000   0.0000   0.0000   0.0000   0.0000

          k = 0.4811-0.3742-0.1667 (   443 PWs)   bands (ev):

     1.1985   3.2458   8.9762  10.7101  16.1984  19.6424

     occupation numbers 
     1.0000   1.0000   0.0000   0.0000   0.0000   0.0000

          k = 0.4330-0.4082-0.0833 (   441 PWs)   bands (ev):

     0.7477   3.8000   8.5507  11.2141  16.7494  19.2744

     occupation numbers 
     1.0000   1.0000   0.0000   0.0000   0.0000   0.0000

          k = 0.3849-0.3402 0.0000 (   446 PWs)   bands (ev):

    -0.6718   4.7778   9.6006  13.2707  16.5832  19.5209

     occupation numbers 
     1.0000   1.0000   0.0000   0.0000   0.0000   0.0000

          k = 0.5774-0.2041-0.3333 (   442 PWs)   bands (ev):

     2.1074   3.6835   7.4479   8.9019  17.7791  19.2486

     occupation numbers 
     1.0000   1.0000   0.0002   0.0000   0.0000   0.0000

          k = 0.5292-0.2381-0.2500 (   443 PWs)   bands (ev):

     1.1985   3.2458   8.9762  10.7101  16.1984  19.6424

     occupation numbers 
     1.0000   1.0000   0.0000   0.0000   0.0000   0.0000

          k = 0.4811-0.2722-0.1667 (   440 PWs)   bands (ev):

     0.3242   3.3775  10.4585  12.1194  15.2900  20.2635

     occupation numbers 
     1.0000   1.0000   0.0000   0.0000   0.0000   0.0000

          k = 0.4330-0.3062-0.0833 (   444 PWs)   bands (ev):

    -0.3199   3.9081  10.8941  12.4157  16.9316  18.3976

     occupation numbers 
     1.0000   1.0000   0.0000   0.0000   0.0000   0.0000

          k = 0.3849-0.2381 0.0000 (   444 PWs)   bands (ev):

    -1.5797   5.1372  12.1052  14.1280  17.9118  18.1548

     occupation numbers 
     1.0000   1.0000   0.0000   0.0000   0.0000   0.0000

          k = 0.5292-0.1361-0.2500 (   441 PWs)   bands (ev):

     0.7477   3.8000   8.5507  11.2141  16.7495  19.2744

     occupation numbers 
     1.0000   1.0000   0.0000   0.0000   0.0000   0.0000

          k = 0.4811-0.1701-0.1667 (   444 PWs)   bands (ev):

    -0.3199   3.9081  10.8941  12.4157  16.9316  18.3976

     occupation numbers 
     1.0000   1.0000   0.0000   0.0000   0.0000   0.0000

          k = 0.4330-0.2041-0.0833 (   446 PWs)   bands (ev):

    -1.1048   4.3608  12.9661  13.0645  16.6207  19.0044

     occupation numbers 
     1.0000   1.0000   0.0000   0.0000   0.0000   0.0000

          k = 0.4811-0.1701 0.0000 (   443 PWs)   bands (ev):

    -0.7547   3.4919  13.8208  13.8209  17.7001  18.0794

     occupation numbers 
     1.0000   1.0000   0.0000   0.0000   0.0000   0.0000

          k = 0.5774-0.1021-0.1667 (   446 PWs)   bands (ev):

     0.7665   2.8379   9.8989  12.5798  15.7677  19.7371

     occupation numbers 
     1.0000   1.0000   0.0000   0.0000   0.0000   0.0000

          k = 0.5292-0.1361-0.0833 (   448 PWs)   bands (ev):

    -0.1108   2.9646  12.2361  13.5833  17.1100  18.0547

     occupation numbers 
     1.0000   1.0000   0.0000   0.0000   0.0000   0.0000

          k = 0.4811-0.0680 0.0000 (   446 PWs)   bands (ev):

    -1.1048   4.3608  12.9661  13.0645  16.6207  19.0045

     occupation numbers 
     1.0000   1.0000   0.0000   0.0000   0.0000   0.0000

          k = 0.5774-0.0000-0.1667 (   441 PWs)   bands (ev):

     0.7477   3.8000   8.5507  11.2141  16.7495  19.2744

     occupation numbers 
     1.0000   1.0000   0.0000   0.0000   0.0000   0.0000

          k = 0.5292-0.0340-0.0833 (   444 PWs)   bands (ev):

    -0.3199   3.9081  10.8941  12.4157  16.9316  18.3976

     occupation numbers 
     1.0000   1.0000   0.0000   0.0000   0.0000   0.0000

          k = 0.4811 0.0340 0.0000 (   444 PWs)   bands (ev):

    -1.1412   5.5350  11.2340  11.9200  15.1874  20.1009

     occupation numbers 
     1.0000   1.0000   0.0000   0.0000   0.0000   0.0000

          k = 0.5774 0.1021-0.1667 (   443 PWs)   bands (ev):

     0.9633   5.1093   7.3705   9.2887  17.7429  19.2696

     occupation numbers 
     1.0000   1.0000   0.1175   0.0000   0.0000   0.0000

          k = 0.5292 0.0680-0.0833 (   445 PWs)   bands (ev):

    -0.2346   5.1644   9.4491  10.7250  15.9247  19.7038

     occupation numbers 
     1.0000   1.0000   0.0000   0.0000   0.0000   0.0000

          k = 0.4811 0.1361 0.0000 (   446 PWs)   bands (ev):

    -0.8574   6.9154   9.3880  11.0436  14.0350  17.5096

     occupation numbers 
     1.0000   1.0000   0.0000   0.0000   0.0000   0.0000

          k = 0.5774 0.2041-0.1667 (   444 PWs)   bands (ev):

     1.4624   5.9109   6.8323   7.9681  17.2393  17.2852

     occupation numbers 
     1.0000   1.0000   1.0000   0.0000   0.0000   0.0000

          k = 0.5292 0.1701-0.0833 (   445 PWs)   bands (ev):

     0.1609   6.4969   8.0038   9.5659  15.0492  17.2504

     occupation numbers 
     1.0000   1.0000   0.0000   0.0000   0.0000   0.0000

          k = 0.4811 0.2381 0.0000 (   448 PWs)   bands (ev):

    -0.2534   7.1185   9.0692  10.4221  13.1863  14.7339

     occupation numbers 
     1.0000   1.0000   0.0000   0.0000   0.0000   0.0000

          k = 0.5774 0.3062-0.1667 (   446 PWs)   bands (ev):

     2.2432   4.6969   6.7489   8.9995  14.6116  16.8627

     occupation numbers 
     1.0000   1.0000   1.0000   0.0000   0.0000   0.0000

          k = 0.5292 0.2722-0.0833 (   448 PWs)   bands (ev):

     0.8679   5.8181   8.6420   9.0547  14.2365  14.7250

     occupation numbers 
     1.0000   1.0000   0.0000   0.0000   0.0000   0.0000

          k = 0.4811 0.3402 0.0000 (   452 PWs)   bands (ev):

     0.6646   5.6984  10.0814  10.0814  12.3952  13.2635

     occupation numbers 
     1.0000   1.0000   0.0000   0.0000   0.0000   0.0000

          k = 0.5774 0.4082-0.1667 (   444 PWs)   bands (ev):

     3.0514   3.6714   6.5588  10.2684  13.0218  16.7215

     occupation numbers 
     1.0000   1.0000   1.0000   0.0000   0.0000   0.0000

          k = 0.5292 0.3742-0.0833 (   454 PWs)   bands (ev):

     1.8741   4.4194   8.5565  10.0299  12.7034  14.2727

     occupation numbers 
     1.0000   1.0000   0.0000   0.0000   0.0000   0.0000

          k = 0.4811-0.7825 0.0000 (   454 PWs)   bands (ev):

     1.8741   4.4194   8.5565  10.0299  12.7034  14.2727

     occupation numbers 
     1.0000   1.0000   0.0000   0.0000   0.0000   0.0000

          k = 0.5292-0.7485-0.0833 (   454 PWs)   bands (ev):

     2.9421   3.4583   8.4358   8.7784  14.0265  14.4941

     occupation numbers 
     1.0000   1.0000   0.0000   0.0000   0.0000   0.0000

          k = 0.4811-0.6804 0.0000 (   444 PWs)   bands (ev):

     3.0514   3.6714   6.5588  10.2684  13.0218  16.7215

     occupation numbers 
     1.0000   1.0000   1.0000   0.0000   0.0000   0.0000

          k = 0.5292-0.6464-0.0833 (   446 PWs)   bands (ev):

     2.2432   4.6969   6.7489   8.9995  14.6116  16.8627

     occupation numbers 
     1.0000   1.0000   1.0000   0.0000   0.0000   0.0000

          k = 0.4811-0.5784 0.0000 (   443 PWs)   bands (ev):

     2.4575   4.2603   5.7865  10.7909  13.6310  19.4811

     occupation numbers 
     1.0000   1.0000   1.0000   0.0000   0.0000   0.0000

          k = 0.5292-0.5443-0.0833 (   444 PWs)   bands (ev):

     1.6096   4.5276   7.0301   9.6835  15.2819  19.6186

     occupation numbers 
     1.0000   1.0000   1.0000   0.0000   0.0000   0.0000

          k = 0.4811-0.4763 0.0000 (   447 PWs)   bands (ev):

     1.6902   3.2753   7.6226  11.5794  14.5566  21.8899

     occupation numbers 
     1.0000   1.0000   0.0000   0.0000   0.0000   0.0000

          k = 0.5292-0.4423-0.0833 (   443 PWs)   bands (ev):

     1.1985   3.2458   8.9762  10.7101  16.1984  19.6424

     occupation numbers 
     1.0000   1.0000   0.0000   0.0000   0.0000   0.0000

          k = 0.4811-0.3742 0.0000 (   446 PWs)   bands (ev):

     0.7665   2.8379   9.8989  12.5798  15.7677  19.7371

     occupation numbers 
     1.0000   1.0000   0.0000   0.0000   0.0000   0.0000

          k = 0.5292-0.3402-0.0833 (   446 PWs)   bands (ev):

     0.8394   2.4480  10.9689  12.0923  16.9543  18.0808

     occupation numbers 
     1.0000   1.0000   0.0000   0.0000   0.0000   0.0000

          k = 0.4811-0.2722 0.0000 (   448 PWs)   bands (ev):

    -0.1108   2.9646  12.2361  13.5833  17.1100  18.0547

     occupation numbers 
     1.0000   1.0000   0.0000   0.0000   0.0000   0.0000

          k = 0.5774-0.2041-0.1667 (   446 PWs)   bands (ev):

     0.8394   2.4480  10.9689  12.0923  16.9543  18.0808

     occupation numbers 
     1.0000   1.0000   0.0000   0.0000   0.0000   0.0000

          k = 0.5292-0.2381-0.0833 (   449 PWs)   bands (ev):

     0.3366   2.4159  12.5774  13.1752  16.6563  18.3579

     occupation numbers 
     1.0000   1.0000   0.0000   0.0000   0.0000   0.0000

          k =-0.5774 0.2041 0.0000 (   434 PWs)   bands (ev):

     0.4064   2.0273  13.7818  13.7818  17.4650  18.0731

     occupation numbers 
     1.0000   1.0000   0.0000   0.0000   0.0000   0.0000

          k =-0.5774 0.3062 0.0000 (   449 PWs)   bands (ev):

     0.3366   2.4159  12.5774  13.1752  16.6563  18.3579

     occupation numbers 
     1.0000   1.0000   0.0000   0.0000   0.0000   0.0000

          k =-0.5774 0.4082 0.0000 (   440 PWs)   bands (ev):

     0.3242   3.3775  10.4585  12.1194  15.2900  20.2635

     occupation numbers 
     1.0000   1.0000   0.0000   0.0000   0.0000   0.0000

          k =-0.5774 0.5103 0.0000 (   447 PWs)   bands (ev):

     0.5491   4.6881   8.3668  11.1719  14.1245  19.7629

     occupation numbers 
     1.0000   1.0000   0.0000   0.0000   0.0000   0.0000

          k =-0.5774 0.6124 0.0000 (   445 PWs)   bands (ev):

     1.0634   5.6771   7.0992  10.4632  13.2675  16.9197

     occupation numbers 
     1.0000   1.0000   1.0000   0.0000   0.0000   0.0000

          k =-0.5774 0.7144 0.0000 (   454 PWs)   bands (ev):

     1.8741   4.4194   8.5565  10.0299  12.7034  14.2727

     occupation numbers 
     1.0000   1.0000   0.0000   0.0000   0.0000   0.0000

          k =-0.5774-0.4082 0.0000 (   444 PWs)   bands (ev):

     2.7835   3.2451   9.8844   9.8844  12.1741  12.9939

     occupation numbers 
     1.0000   1.0000   0.0000   0.0000   0.0000   0.0000

     the Fermi energy is     7.3417 ev

!    total energy              =      -9.54053050 Ry
     Harris-Foulkes estimate   =      -9.54053051 Ry
     estimated scf accuracy    <       0.00000003 Ry

     The total energy is the sum of the following terms:

     one-electron contribution =       3.72396782 Ry
     hartree contribution      =       0.08681552 Ry
     xc contribution           =      -4.17153999 Ry
     ewald contribution        =      -9.17975043 Ry
     smearing contrib. (-TS)   =      -0.00002342 Ry

     convergence has been achieved in   4 iterations

     Forces acting on atoms (cartesian axes, Ry/au):

     atom    1 type  1   force =     0.00000000    0.00000000    0.00000000
     The non-local contrib.  to forces
     atom    1 type  1   force =    -0.00000000    0.00000000    0.00000000
     The ionic contribution  to forces
     atom    1 type  1   force =     0.00000000    0.00000000    0.00000000
     The local contribution  to forces
     atom    1 type  1   force =     0.00000000    0.00000000   -0.00000000
     The core correction contribution to forces
     atom    1 type  1   force =    -0.00000000   -0.00000000    0.00000000
     The Hubbard contrib.    to forces
     atom    1 type  1   force =     0.00000000    0.00000000    0.00000000
     The SCF correction term to forces
     atom    1 type  1   force =    -0.00000000   -0.00000000    0.00000000

     Total force =     0.000000     Total SCF correction =     0.000000

     BFGS Geometry Optimization

     bfgs converged in   1 scf cycles and   0 bfgs steps
     (criteria: energy <  1.0E-04 Ry, force <  1.0E-03 Ry/Bohr)

     End of BFGS Geometry Optimization

     Final energy   =      -9.5405305011 Ry
Begin final coordinates

ATOMIC_POSITIONS (crystal)
Si       0.000000000   0.000000000   0.000000000
End final coordinates


 
     init_run     :     49.15s CPU     13.27s WALL (       1 calls)
     electrons    :   1993.92s CPU    286.78s WALL (       1 calls)
     forces       :     84.88s CPU      9.80s WALL (       1 calls)

     Called by init_run:
     wfcinit      :     48.77s CPU     12.24s WALL (       1 calls)
     wfcinit:atom :      0.18s CPU      0.04s WALL (     476 calls)
     wfcinit:wfcr :     48.02s CPU     12.07s WALL (     476 calls)
     potinit      :      0.06s CPU      0.08s WALL (       1 calls)

     Called by electrons:
     c_bands      :   1830.56s CPU    265.16s WALL (       5 calls)
     sum_band     :    161.43s CPU     21.38s WALL (       5 calls)
     v_of_rho     :      0.72s CPU      0.10s WALL (       5 calls)
     v_h          :      0.01s CPU      0.00s WALL (       5 calls)
     v_xc         :      0.83s CPU      0.11s WALL (       6 calls)
     newd         :      0.85s CPU      0.14s WALL (       5 calls)
     mix_rho      :      0.31s CPU      0.04s WALL (       5 calls)

     Called by c_bands:
     init_us_2    :      7.36s CPU      0.96s WALL (    5712 calls)
     cegterg      :   1813.45s CPU    262.89s WALL (    2380 calls)

     Called by sum_band:
     sum_band:bec :      0.48s CPU      0.07s WALL (    2380 calls)
     addusdens    :      0.76s CPU      0.12s WALL (       5 calls)

     Called by *egterg:
     h_psi        :   1265.02s CPU    188.32s WALL (    8873 calls)
     s_psi        :    207.90s CPU     29.12s WALL (    8873 calls)
     g_psi        :      0.83s CPU      0.15s WALL (    6017 calls)
     cdiaghg      :     13.01s CPU      2.21s WALL (    7921 calls)
     cegterg:over :    194.62s CPU     28.16s WALL (    6017 calls)
     cegterg:upda :     49.41s CPU      8.85s WALL (    6017 calls)
     cegterg:last :     99.82s CPU     13.80s WALL (    2407 calls)

     Called by h_psi:
     h_psi:pot    :   1263.58s CPU    188.13s WALL (    8873 calls)
     h_psi:calbec :    231.62s CPU     34.23s WALL (    8873 calls)
     vloc_psi     :    803.22s CPU    121.13s WALL (    8873 calls)
     add_vuspsi   :    227.13s CPU     32.55s WALL (    8873 calls)

     General routines
     calbec       :    443.15s CPU     61.03s WALL (   13157 calls)
     fft          :      1.14s CPU      0.19s WALL (      78 calls)
     fftw         :    808.17s CPU    121.61s WALL (   93050 calls)
 
     Parallel routines
 
     PWSCF        : 35m28.13s CPU     5m10.02s WALL

 
   This run was terminated on:   0:15:24  31Jan2019            

=------------------------------------------------------------------------------=
   JOB DONE.
=------------------------------------------------------------------------------=
