
     Program PWSCF v.6.2 (svn rev. 14038) starts on 24Jan2019 at 17: 0:21 

     This program is part of the open-source Quantum ESPRESSO suite
     for quantum simulation of materials; please cite
         "P. Giannozzi et al., J. Phys.:Condens. Matter 21 395502 (2009);
         "P. Giannozzi et al., J. Phys.:Condens. Matter 29 465901 (2017);
          URL http://www.quantum-espresso.org", 
     in publications or presentations arising from this work. More details at
     http://www.quantum-espresso.org/quote

     Parallel version (MPI), running on     1 processors

     MPI processes distributed on     1 nodes
     Reading input from ./AlfccSEPNEG0DOT21581605596780712.in
Warning: card &IONS ignored
Warning: card / ignored
Warning: card &CELL ignored
Warning: card / ignored

     Current dimensions of program PWSCF are:
     Max number of different atomic species (ntypx) = 10
     Max number of k-points (npk) =  40000
     Max angular momentum in pseudopotentials (lmaxx) =  3
     Message from routine iosys:
     minimal I/O required, wf_collect reset to FALSE

     Subspace diagonalization in iterative solution of the eigenvalue problem:
     a serial algorithm will be used

     Found symmetry operation: I + ( -0.5000 -0.5000  0.0000)
     This is a supercell, fractional translations are disabled
 
     G-vector sticks info
     --------------------
     sticks:   dense  smooth     PW     G-vecs:    dense   smooth      PW
     Sum         465     465    149                 5891     5891    1119
 


     bravais-lattice index     =            0
     lattice parameter (alat)  =       7.6325  a.u.
     unit-cell volume          =     348.6692 (a.u.)^3
     number of atoms/cell      =            4
     number of atomic types    =            1
     number of electrons       =        12.00
     number of Kohn-Sham states=           10
     kinetic-energy cutoff     =      25.0000  Ry
     charge density cutoff     =     100.0000  Ry
     convergence threshold     =      1.0E-07
     mixing beta               =       0.7000
     number of iterations used =            8  plain     mixing
     Exchange-correlation      = SLA  PW   PBE  PBE ( 1  4  3  4 0 0)

     celldm(1)=   7.632472  celldm(2)=   0.000000  celldm(3)=   0.000000
     celldm(4)=   0.000000  celldm(5)=   0.000000  celldm(6)=   0.000000

     crystal axes: (cart. coord. in units of alat)
               a(1) = (   1.000000   0.000000   0.000000 )  
               a(2) = (   0.000000   1.000000   0.000000 )  
               a(3) = (   0.000000   0.000000   0.784184 )  

     reciprocal axes: (cart. coord. in units 2 pi/alat)
               b(1) = (  1.000000  0.000000  0.000000 )  
               b(2) = (  0.000000  1.000000  0.000000 )  
               b(3) = (  0.000000  0.000000  1.275211 )  


     PseudoPot. # 1 for Al read from file:
     ./al_pbe_v1.uspp.F.UPF
     MD5 check sum: 0a6289f5291fc8f409219462bc851e1f
     Pseudo is Ultrasoft + core correction, Zval =  3.0
     Generated by new atomic code, or converted to UPF format
     Using radial grid of  893 points,  3 beta functions with: 
                l(1) =   0
                l(2) =   1
                l(3) =   2
     Q(r) pseudized with  8 coefficients,  rinner =    0.900   0.900   0.900
                                                       0.900   0.900

     atomic species   valence    mass     pseudopotential
        Al             3.00    26.98150     Al( 1.00)

     16 Sym. Ops., with inversion, found


                                    s                        frac. trans.

      isym =  1     identity                                     

 cryst.   s( 1) = (     1          0          0      )
                  (     0          1          0      )
                  (     0          0          1      )

 cart.    s( 1) = (  1.0000000  0.0000000  0.0000000 )
                  (  0.0000000  1.0000000  0.0000000 )
                  (  0.0000000  0.0000000  1.0000000 )


      isym =  2     180 deg rotation - cart. axis [0,0,1]        

 cryst.   s( 2) = (    -1          0          0      )
                  (     0         -1          0      )
                  (     0          0          1      )

 cart.    s( 2) = ( -1.0000000  0.0000000  0.0000000 )
                  (  0.0000000 -1.0000000  0.0000000 )
                  (  0.0000000  0.0000000  1.0000000 )


      isym =  3     180 deg rotation - cart. axis [0,1,0]        

 cryst.   s( 3) = (    -1          0          0      )
                  (     0          1          0      )
                  (     0          0         -1      )

 cart.    s( 3) = ( -1.0000000  0.0000000  0.0000000 )
                  (  0.0000000  1.0000000  0.0000000 )
                  (  0.0000000  0.0000000 -1.0000000 )


      isym =  4     180 deg rotation - cart. axis [1,0,0]        

 cryst.   s( 4) = (     1          0          0      )
                  (     0         -1          0      )
                  (     0          0         -1      )

 cart.    s( 4) = (  1.0000000  0.0000000  0.0000000 )
                  (  0.0000000 -1.0000000  0.0000000 )
                  (  0.0000000  0.0000000 -1.0000000 )


      isym =  5     180 deg rotation - cart. axis [1,1,0]        

 cryst.   s( 5) = (     0          1          0      )
                  (     1          0          0      )
                  (     0          0         -1      )

 cart.    s( 5) = (  0.0000000  1.0000000  0.0000000 )
                  (  1.0000000  0.0000000  0.0000000 )
                  (  0.0000000  0.0000000 -1.0000000 )


      isym =  6     180 deg rotation - cart. axis [1,-1,0]       

 cryst.   s( 6) = (     0         -1          0      )
                  (    -1          0          0      )
                  (     0          0         -1      )

 cart.    s( 6) = (  0.0000000 -1.0000000  0.0000000 )
                  ( -1.0000000  0.0000000  0.0000000 )
                  (  0.0000000  0.0000000 -1.0000000 )


      isym =  7      90 deg rotation - cart. axis [0,0,-1]       

 cryst.   s( 7) = (     0         -1          0      )
                  (     1          0          0      )
                  (     0          0          1      )

 cart.    s( 7) = (  0.0000000  1.0000000  0.0000000 )
                  ( -1.0000000  0.0000000  0.0000000 )
                  (  0.0000000  0.0000000  1.0000000 )


      isym =  8      90 deg rotation - cart. axis [0,0,1]        

 cryst.   s( 8) = (     0          1          0      )
                  (    -1          0          0      )
                  (     0          0          1      )

 cart.    s( 8) = (  0.0000000 -1.0000000  0.0000000 )
                  (  1.0000000  0.0000000  0.0000000 )
                  (  0.0000000  0.0000000  1.0000000 )


      isym =  9     inversion                                    

 cryst.   s( 9) = (    -1          0          0      )
                  (     0         -1          0      )
                  (     0          0         -1      )

 cart.    s( 9) = ( -1.0000000  0.0000000  0.0000000 )
                  (  0.0000000 -1.0000000  0.0000000 )
                  (  0.0000000  0.0000000 -1.0000000 )


      isym = 10     inv. 180 deg rotation - cart. axis [0,0,1]   

 cryst.   s(10) = (     1          0          0      )
                  (     0          1          0      )
                  (     0          0         -1      )

 cart.    s(10) = (  1.0000000  0.0000000  0.0000000 )
                  (  0.0000000  1.0000000  0.0000000 )
                  (  0.0000000  0.0000000 -1.0000000 )


      isym = 11     inv. 180 deg rotation - cart. axis [0,1,0]   

 cryst.   s(11) = (     1          0          0      )
                  (     0         -1          0      )
                  (     0          0          1      )

 cart.    s(11) = (  1.0000000  0.0000000  0.0000000 )
                  (  0.0000000 -1.0000000  0.0000000 )
                  (  0.0000000  0.0000000  1.0000000 )


      isym = 12     inv. 180 deg rotation - cart. axis [1,0,0]   

 cryst.   s(12) = (    -1          0          0      )
                  (     0          1          0      )
                  (     0          0          1      )

 cart.    s(12) = ( -1.0000000  0.0000000  0.0000000 )
                  (  0.0000000  1.0000000  0.0000000 )
                  (  0.0000000  0.0000000  1.0000000 )


      isym = 13     inv. 180 deg rotation - cart. axis [1,1,0]   

 cryst.   s(13) = (     0         -1          0      )
                  (    -1          0          0      )
                  (     0          0          1      )

 cart.    s(13) = (  0.0000000 -1.0000000  0.0000000 )
                  ( -1.0000000  0.0000000  0.0000000 )
                  (  0.0000000  0.0000000  1.0000000 )


      isym = 14     inv. 180 deg rotation - cart. axis [1,-1,0]  

 cryst.   s(14) = (     0          1          0      )
                  (     1          0          0      )
                  (     0          0          1      )

 cart.    s(14) = (  0.0000000  1.0000000  0.0000000 )
                  (  1.0000000  0.0000000  0.0000000 )
                  (  0.0000000  0.0000000  1.0000000 )


      isym = 15     inv.  90 deg rotation - cart. axis [0,0,-1]  

 cryst.   s(15) = (     0          1          0      )
                  (    -1          0          0      )
                  (     0          0         -1      )

 cart.    s(15) = (  0.0000000 -1.0000000  0.0000000 )
                  (  1.0000000  0.0000000  0.0000000 )
                  (  0.0000000  0.0000000 -1.0000000 )


      isym = 16     inv.  90 deg rotation - cart. axis [0,0,1]   

 cryst.   s(16) = (     0         -1          0      )
                  (     1          0          0      )
                  (     0          0         -1      )

 cart.    s(16) = (  0.0000000  1.0000000  0.0000000 )
                  ( -1.0000000  0.0000000  0.0000000 )
                  (  0.0000000  0.0000000 -1.0000000 )


   Cartesian axes

     site n.     atom                  positions (alat units)
         1           Al  tau(   1) = (   0.0000000   0.0000000   0.0000000  )
         2           Al  tau(   2) = (   0.5000000   0.5000000   0.0000000  )
         3           Al  tau(   3) = (   0.5000000   0.0000000   0.3920920  )
         4           Al  tau(   4) = (   0.0000000   0.5000000   0.3920920  )

   Crystallographic axes

     site n.     atom                  positions (cryst. coord.)
         1           Al  tau(   1) = (  0.0000000  0.0000000  0.0000000  )
         2           Al  tau(   2) = (  0.5000000  0.5000000  0.0000000  )
         3           Al  tau(   3) = (  0.5000000  0.0000000  0.5000000  )
         4           Al  tau(   4) = (  0.0000000  0.5000000  0.5000000  )

     number of k points=   660  Marzari-Vanderbilt smearing, width (Ry)=  0.0100
                       cart. coord. in units 2pi/alat
        k(    1) = (   0.0000000   0.0000000   0.0000000), wk =   0.0002806
        k(    2) = (   0.0000000   0.0000000   0.0579641), wk =   0.0005612
        k(    3) = (   0.0000000   0.0000000   0.1159283), wk =   0.0005612
        k(    4) = (   0.0000000   0.0000000   0.1738924), wk =   0.0005612
        k(    5) = (   0.0000000   0.0000000   0.2318566), wk =   0.0005612
        k(    6) = (   0.0000000   0.0000000   0.2898207), wk =   0.0005612
        k(    7) = (   0.0000000   0.0000000   0.3477848), wk =   0.0005612
        k(    8) = (   0.0000000   0.0000000   0.4057490), wk =   0.0005612
        k(    9) = (   0.0000000   0.0000000   0.4637131), wk =   0.0005612
        k(   10) = (   0.0000000   0.0000000   0.5216772), wk =   0.0005612
        k(   11) = (   0.0000000   0.0000000   0.5796414), wk =   0.0005612
        k(   12) = (   0.0000000   0.0000000  -0.6376055), wk =   0.0002806
        k(   13) = (   0.0000000   0.0555556   0.0000000), wk =   0.0011223
        k(   14) = (   0.0000000   0.0555556   0.0579641), wk =   0.0022447
        k(   15) = (   0.0000000   0.0555556   0.1159283), wk =   0.0022447
        k(   16) = (   0.0000000   0.0555556   0.1738924), wk =   0.0022447
        k(   17) = (   0.0000000   0.0555556   0.2318566), wk =   0.0022447
        k(   18) = (   0.0000000   0.0555556   0.2898207), wk =   0.0022447
        k(   19) = (   0.0000000   0.0555556   0.3477848), wk =   0.0022447
        k(   20) = (   0.0000000   0.0555556   0.4057490), wk =   0.0022447
        k(   21) = (   0.0000000   0.0555556   0.4637131), wk =   0.0022447
        k(   22) = (   0.0000000   0.0555556   0.5216772), wk =   0.0022447
        k(   23) = (   0.0000000   0.0555556   0.5796414), wk =   0.0022447
        k(   24) = (   0.0000000   0.0555556  -0.6376055), wk =   0.0011223
        k(   25) = (   0.0000000   0.1111111   0.0000000), wk =   0.0011223
        k(   26) = (   0.0000000   0.1111111   0.0579641), wk =   0.0022447
        k(   27) = (   0.0000000   0.1111111   0.1159283), wk =   0.0022447
        k(   28) = (   0.0000000   0.1111111   0.1738924), wk =   0.0022447
        k(   29) = (   0.0000000   0.1111111   0.2318566), wk =   0.0022447
        k(   30) = (   0.0000000   0.1111111   0.2898207), wk =   0.0022447
        k(   31) = (   0.0000000   0.1111111   0.3477848), wk =   0.0022447
        k(   32) = (   0.0000000   0.1111111   0.4057490), wk =   0.0022447
        k(   33) = (   0.0000000   0.1111111   0.4637131), wk =   0.0022447
        k(   34) = (   0.0000000   0.1111111   0.5216772), wk =   0.0022447
        k(   35) = (   0.0000000   0.1111111   0.5796414), wk =   0.0022447
        k(   36) = (   0.0000000   0.1111111  -0.6376055), wk =   0.0011223
        k(   37) = (   0.0000000   0.1666667   0.0000000), wk =   0.0011223
        k(   38) = (   0.0000000   0.1666667   0.0579641), wk =   0.0022447
        k(   39) = (   0.0000000   0.1666667   0.1159283), wk =   0.0022447
        k(   40) = (   0.0000000   0.1666667   0.1738924), wk =   0.0022447
        k(   41) = (   0.0000000   0.1666667   0.2318566), wk =   0.0022447
        k(   42) = (   0.0000000   0.1666667   0.2898207), wk =   0.0022447
        k(   43) = (   0.0000000   0.1666667   0.3477848), wk =   0.0022447
        k(   44) = (   0.0000000   0.1666667   0.4057490), wk =   0.0022447
        k(   45) = (   0.0000000   0.1666667   0.4637131), wk =   0.0022447
        k(   46) = (   0.0000000   0.1666667   0.5216772), wk =   0.0022447
        k(   47) = (   0.0000000   0.1666667   0.5796414), wk =   0.0022447
        k(   48) = (   0.0000000   0.1666667  -0.6376055), wk =   0.0011223
        k(   49) = (   0.0000000   0.2222222   0.0000000), wk =   0.0011223
        k(   50) = (   0.0000000   0.2222222   0.0579641), wk =   0.0022447
        k(   51) = (   0.0000000   0.2222222   0.1159283), wk =   0.0022447
        k(   52) = (   0.0000000   0.2222222   0.1738924), wk =   0.0022447
        k(   53) = (   0.0000000   0.2222222   0.2318566), wk =   0.0022447
        k(   54) = (   0.0000000   0.2222222   0.2898207), wk =   0.0022447
        k(   55) = (   0.0000000   0.2222222   0.3477848), wk =   0.0022447
        k(   56) = (   0.0000000   0.2222222   0.4057490), wk =   0.0022447
        k(   57) = (   0.0000000   0.2222222   0.4637131), wk =   0.0022447
        k(   58) = (   0.0000000   0.2222222   0.5216772), wk =   0.0022447
        k(   59) = (   0.0000000   0.2222222   0.5796414), wk =   0.0022447
        k(   60) = (   0.0000000   0.2222222  -0.6376055), wk =   0.0011223
        k(   61) = (   0.0000000   0.2777778   0.0000000), wk =   0.0011223
        k(   62) = (   0.0000000   0.2777778   0.0579641), wk =   0.0022447
        k(   63) = (   0.0000000   0.2777778   0.1159283), wk =   0.0022447
        k(   64) = (   0.0000000   0.2777778   0.1738924), wk =   0.0022447
        k(   65) = (   0.0000000   0.2777778   0.2318566), wk =   0.0022447
        k(   66) = (   0.0000000   0.2777778   0.2898207), wk =   0.0022447
        k(   67) = (   0.0000000   0.2777778   0.3477848), wk =   0.0022447
        k(   68) = (   0.0000000   0.2777778   0.4057490), wk =   0.0022447
        k(   69) = (   0.0000000   0.2777778   0.4637131), wk =   0.0022447
        k(   70) = (   0.0000000   0.2777778   0.5216772), wk =   0.0022447
        k(   71) = (   0.0000000   0.2777778   0.5796414), wk =   0.0022447
        k(   72) = (   0.0000000   0.2777778  -0.6376055), wk =   0.0011223
        k(   73) = (   0.0000000   0.3333333   0.0000000), wk =   0.0011223
        k(   74) = (   0.0000000   0.3333333   0.0579641), wk =   0.0022447
        k(   75) = (   0.0000000   0.3333333   0.1159283), wk =   0.0022447
        k(   76) = (   0.0000000   0.3333333   0.1738924), wk =   0.0022447
        k(   77) = (   0.0000000   0.3333333   0.2318566), wk =   0.0022447
        k(   78) = (   0.0000000   0.3333333   0.2898207), wk =   0.0022447
        k(   79) = (   0.0000000   0.3333333   0.3477848), wk =   0.0022447
        k(   80) = (   0.0000000   0.3333333   0.4057490), wk =   0.0022447
        k(   81) = (   0.0000000   0.3333333   0.4637131), wk =   0.0022447
        k(   82) = (   0.0000000   0.3333333   0.5216772), wk =   0.0022447
        k(   83) = (   0.0000000   0.3333333   0.5796414), wk =   0.0022447
        k(   84) = (   0.0000000   0.3333333  -0.6376055), wk =   0.0011223
        k(   85) = (   0.0000000   0.3888889   0.0000000), wk =   0.0011223
        k(   86) = (   0.0000000   0.3888889   0.0579641), wk =   0.0022447
        k(   87) = (   0.0000000   0.3888889   0.1159283), wk =   0.0022447
        k(   88) = (   0.0000000   0.3888889   0.1738924), wk =   0.0022447
        k(   89) = (   0.0000000   0.3888889   0.2318566), wk =   0.0022447
        k(   90) = (   0.0000000   0.3888889   0.2898207), wk =   0.0022447
        k(   91) = (   0.0000000   0.3888889   0.3477848), wk =   0.0022447
        k(   92) = (   0.0000000   0.3888889   0.4057490), wk =   0.0022447
        k(   93) = (   0.0000000   0.3888889   0.4637131), wk =   0.0022447
        k(   94) = (   0.0000000   0.3888889   0.5216772), wk =   0.0022447
        k(   95) = (   0.0000000   0.3888889   0.5796414), wk =   0.0022447
        k(   96) = (   0.0000000   0.3888889  -0.6376055), wk =   0.0011223
        k(   97) = (   0.0000000   0.4444444   0.0000000), wk =   0.0011223
        k(   98) = (   0.0000000   0.4444444   0.0579641), wk =   0.0022447
        k(   99) = (   0.0000000   0.4444444   0.1159283), wk =   0.0022447
        k(  100) = (   0.0000000   0.4444444   0.1738924), wk =   0.0022447
        k(  101) = (   0.0000000   0.4444444   0.2318566), wk =   0.0022447
        k(  102) = (   0.0000000   0.4444444   0.2898207), wk =   0.0022447
        k(  103) = (   0.0000000   0.4444444   0.3477848), wk =   0.0022447
        k(  104) = (   0.0000000   0.4444444   0.4057490), wk =   0.0022447
        k(  105) = (   0.0000000   0.4444444   0.4637131), wk =   0.0022447
        k(  106) = (   0.0000000   0.4444444   0.5216772), wk =   0.0022447
        k(  107) = (   0.0000000   0.4444444   0.5796414), wk =   0.0022447
        k(  108) = (   0.0000000   0.4444444  -0.6376055), wk =   0.0011223
        k(  109) = (   0.0000000  -0.5000000   0.0000000), wk =   0.0005612
        k(  110) = (   0.0000000  -0.5000000   0.0579641), wk =   0.0011223
        k(  111) = (   0.0000000  -0.5000000   0.1159283), wk =   0.0011223
        k(  112) = (   0.0000000  -0.5000000   0.1738924), wk =   0.0011223
        k(  113) = (   0.0000000  -0.5000000   0.2318566), wk =   0.0011223
        k(  114) = (   0.0000000  -0.5000000   0.2898207), wk =   0.0011223
        k(  115) = (   0.0000000  -0.5000000   0.3477848), wk =   0.0011223
        k(  116) = (   0.0000000  -0.5000000   0.4057490), wk =   0.0011223
        k(  117) = (   0.0000000  -0.5000000   0.4637131), wk =   0.0011223
        k(  118) = (   0.0000000  -0.5000000   0.5216772), wk =   0.0011223
        k(  119) = (   0.0000000  -0.5000000   0.5796414), wk =   0.0011223
        k(  120) = (   0.0000000  -0.5000000  -0.6376055), wk =   0.0005612
        k(  121) = (   0.0555556   0.0555556   0.0000000), wk =   0.0011223
        k(  122) = (   0.0555556   0.0555556   0.0579641), wk =   0.0022447
        k(  123) = (   0.0555556   0.0555556   0.1159283), wk =   0.0022447
        k(  124) = (   0.0555556   0.0555556   0.1738924), wk =   0.0022447
        k(  125) = (   0.0555556   0.0555556   0.2318566), wk =   0.0022447
        k(  126) = (   0.0555556   0.0555556   0.2898207), wk =   0.0022447
        k(  127) = (   0.0555556   0.0555556   0.3477848), wk =   0.0022447
        k(  128) = (   0.0555556   0.0555556   0.4057490), wk =   0.0022447
        k(  129) = (   0.0555556   0.0555556   0.4637131), wk =   0.0022447
        k(  130) = (   0.0555556   0.0555556   0.5216772), wk =   0.0022447
        k(  131) = (   0.0555556   0.0555556   0.5796414), wk =   0.0022447
        k(  132) = (   0.0555556   0.0555556  -0.6376055), wk =   0.0011223
        k(  133) = (   0.0555556   0.1111111   0.0000000), wk =   0.0022447
        k(  134) = (   0.0555556   0.1111111   0.0579641), wk =   0.0044893
        k(  135) = (   0.0555556   0.1111111   0.1159283), wk =   0.0044893
        k(  136) = (   0.0555556   0.1111111   0.1738924), wk =   0.0044893
        k(  137) = (   0.0555556   0.1111111   0.2318566), wk =   0.0044893
        k(  138) = (   0.0555556   0.1111111   0.2898207), wk =   0.0044893
        k(  139) = (   0.0555556   0.1111111   0.3477848), wk =   0.0044893
        k(  140) = (   0.0555556   0.1111111   0.4057490), wk =   0.0044893
        k(  141) = (   0.0555556   0.1111111   0.4637131), wk =   0.0044893
        k(  142) = (   0.0555556   0.1111111   0.5216772), wk =   0.0044893
        k(  143) = (   0.0555556   0.1111111   0.5796414), wk =   0.0044893
        k(  144) = (   0.0555556   0.1111111  -0.6376055), wk =   0.0022447
        k(  145) = (   0.0555556   0.1666667   0.0000000), wk =   0.0022447
        k(  146) = (   0.0555556   0.1666667   0.0579641), wk =   0.0044893
        k(  147) = (   0.0555556   0.1666667   0.1159283), wk =   0.0044893
        k(  148) = (   0.0555556   0.1666667   0.1738924), wk =   0.0044893
        k(  149) = (   0.0555556   0.1666667   0.2318566), wk =   0.0044893
        k(  150) = (   0.0555556   0.1666667   0.2898207), wk =   0.0044893
        k(  151) = (   0.0555556   0.1666667   0.3477848), wk =   0.0044893
        k(  152) = (   0.0555556   0.1666667   0.4057490), wk =   0.0044893
        k(  153) = (   0.0555556   0.1666667   0.4637131), wk =   0.0044893
        k(  154) = (   0.0555556   0.1666667   0.5216772), wk =   0.0044893
        k(  155) = (   0.0555556   0.1666667   0.5796414), wk =   0.0044893
        k(  156) = (   0.0555556   0.1666667  -0.6376055), wk =   0.0022447
        k(  157) = (   0.0555556   0.2222222   0.0000000), wk =   0.0022447
        k(  158) = (   0.0555556   0.2222222   0.0579641), wk =   0.0044893
        k(  159) = (   0.0555556   0.2222222   0.1159283), wk =   0.0044893
        k(  160) = (   0.0555556   0.2222222   0.1738924), wk =   0.0044893
        k(  161) = (   0.0555556   0.2222222   0.2318566), wk =   0.0044893
        k(  162) = (   0.0555556   0.2222222   0.2898207), wk =   0.0044893
        k(  163) = (   0.0555556   0.2222222   0.3477848), wk =   0.0044893
        k(  164) = (   0.0555556   0.2222222   0.4057490), wk =   0.0044893
        k(  165) = (   0.0555556   0.2222222   0.4637131), wk =   0.0044893
        k(  166) = (   0.0555556   0.2222222   0.5216772), wk =   0.0044893
        k(  167) = (   0.0555556   0.2222222   0.5796414), wk =   0.0044893
        k(  168) = (   0.0555556   0.2222222  -0.6376055), wk =   0.0022447
        k(  169) = (   0.0555556   0.2777778   0.0000000), wk =   0.0022447
        k(  170) = (   0.0555556   0.2777778   0.0579641), wk =   0.0044893
        k(  171) = (   0.0555556   0.2777778   0.1159283), wk =   0.0044893
        k(  172) = (   0.0555556   0.2777778   0.1738924), wk =   0.0044893
        k(  173) = (   0.0555556   0.2777778   0.2318566), wk =   0.0044893
        k(  174) = (   0.0555556   0.2777778   0.2898207), wk =   0.0044893
        k(  175) = (   0.0555556   0.2777778   0.3477848), wk =   0.0044893
        k(  176) = (   0.0555556   0.2777778   0.4057490), wk =   0.0044893
        k(  177) = (   0.0555556   0.2777778   0.4637131), wk =   0.0044893
        k(  178) = (   0.0555556   0.2777778   0.5216772), wk =   0.0044893
        k(  179) = (   0.0555556   0.2777778   0.5796414), wk =   0.0044893
        k(  180) = (   0.0555556   0.2777778  -0.6376055), wk =   0.0022447
        k(  181) = (   0.0555556   0.3333333   0.0000000), wk =   0.0022447
        k(  182) = (   0.0555556   0.3333333   0.0579641), wk =   0.0044893
        k(  183) = (   0.0555556   0.3333333   0.1159283), wk =   0.0044893
        k(  184) = (   0.0555556   0.3333333   0.1738924), wk =   0.0044893
        k(  185) = (   0.0555556   0.3333333   0.2318566), wk =   0.0044893
        k(  186) = (   0.0555556   0.3333333   0.2898207), wk =   0.0044893
        k(  187) = (   0.0555556   0.3333333   0.3477848), wk =   0.0044893
        k(  188) = (   0.0555556   0.3333333   0.4057490), wk =   0.0044893
        k(  189) = (   0.0555556   0.3333333   0.4637131), wk =   0.0044893
        k(  190) = (   0.0555556   0.3333333   0.5216772), wk =   0.0044893
        k(  191) = (   0.0555556   0.3333333   0.5796414), wk =   0.0044893
        k(  192) = (   0.0555556   0.3333333  -0.6376055), wk =   0.0022447
        k(  193) = (   0.0555556   0.3888889   0.0000000), wk =   0.0022447
        k(  194) = (   0.0555556   0.3888889   0.0579641), wk =   0.0044893
        k(  195) = (   0.0555556   0.3888889   0.1159283), wk =   0.0044893
        k(  196) = (   0.0555556   0.3888889   0.1738924), wk =   0.0044893
        k(  197) = (   0.0555556   0.3888889   0.2318566), wk =   0.0044893
        k(  198) = (   0.0555556   0.3888889   0.2898207), wk =   0.0044893
        k(  199) = (   0.0555556   0.3888889   0.3477848), wk =   0.0044893
        k(  200) = (   0.0555556   0.3888889   0.4057490), wk =   0.0044893
        k(  201) = (   0.0555556   0.3888889   0.4637131), wk =   0.0044893
        k(  202) = (   0.0555556   0.3888889   0.5216772), wk =   0.0044893
        k(  203) = (   0.0555556   0.3888889   0.5796414), wk =   0.0044893
        k(  204) = (   0.0555556   0.3888889  -0.6376055), wk =   0.0022447
        k(  205) = (   0.0555556   0.4444444   0.0000000), wk =   0.0022447
        k(  206) = (   0.0555556   0.4444444   0.0579641), wk =   0.0044893
        k(  207) = (   0.0555556   0.4444444   0.1159283), wk =   0.0044893
        k(  208) = (   0.0555556   0.4444444   0.1738924), wk =   0.0044893
        k(  209) = (   0.0555556   0.4444444   0.2318566), wk =   0.0044893
        k(  210) = (   0.0555556   0.4444444   0.2898207), wk =   0.0044893
        k(  211) = (   0.0555556   0.4444444   0.3477848), wk =   0.0044893
        k(  212) = (   0.0555556   0.4444444   0.4057490), wk =   0.0044893
        k(  213) = (   0.0555556   0.4444444   0.4637131), wk =   0.0044893
        k(  214) = (   0.0555556   0.4444444   0.5216772), wk =   0.0044893
        k(  215) = (   0.0555556   0.4444444   0.5796414), wk =   0.0044893
        k(  216) = (   0.0555556   0.4444444  -0.6376055), wk =   0.0022447
        k(  217) = (   0.0555556  -0.5000000   0.0000000), wk =   0.0011223
        k(  218) = (   0.0555556  -0.5000000   0.0579641), wk =   0.0022447
        k(  219) = (   0.0555556  -0.5000000   0.1159283), wk =   0.0022447
        k(  220) = (   0.0555556  -0.5000000   0.1738924), wk =   0.0022447
        k(  221) = (   0.0555556  -0.5000000   0.2318566), wk =   0.0022447
        k(  222) = (   0.0555556  -0.5000000   0.2898207), wk =   0.0022447
        k(  223) = (   0.0555556  -0.5000000   0.3477848), wk =   0.0022447
        k(  224) = (   0.0555556  -0.5000000   0.4057490), wk =   0.0022447
        k(  225) = (   0.0555556  -0.5000000   0.4637131), wk =   0.0022447
        k(  226) = (   0.0555556  -0.5000000   0.5216772), wk =   0.0022447
        k(  227) = (   0.0555556  -0.5000000   0.5796414), wk =   0.0022447
        k(  228) = (   0.0555556  -0.5000000  -0.6376055), wk =   0.0011223
        k(  229) = (   0.1111111   0.1111111   0.0000000), wk =   0.0011223
        k(  230) = (   0.1111111   0.1111111   0.0579641), wk =   0.0022447
        k(  231) = (   0.1111111   0.1111111   0.1159283), wk =   0.0022447
        k(  232) = (   0.1111111   0.1111111   0.1738924), wk =   0.0022447
        k(  233) = (   0.1111111   0.1111111   0.2318566), wk =   0.0022447
        k(  234) = (   0.1111111   0.1111111   0.2898207), wk =   0.0022447
        k(  235) = (   0.1111111   0.1111111   0.3477848), wk =   0.0022447
        k(  236) = (   0.1111111   0.1111111   0.4057490), wk =   0.0022447
        k(  237) = (   0.1111111   0.1111111   0.4637131), wk =   0.0022447
        k(  238) = (   0.1111111   0.1111111   0.5216772), wk =   0.0022447
        k(  239) = (   0.1111111   0.1111111   0.5796414), wk =   0.0022447
        k(  240) = (   0.1111111   0.1111111  -0.6376055), wk =   0.0011223
        k(  241) = (   0.1111111   0.1666667   0.0000000), wk =   0.0022447
        k(  242) = (   0.1111111   0.1666667   0.0579641), wk =   0.0044893
        k(  243) = (   0.1111111   0.1666667   0.1159283), wk =   0.0044893
        k(  244) = (   0.1111111   0.1666667   0.1738924), wk =   0.0044893
        k(  245) = (   0.1111111   0.1666667   0.2318566), wk =   0.0044893
        k(  246) = (   0.1111111   0.1666667   0.2898207), wk =   0.0044893
        k(  247) = (   0.1111111   0.1666667   0.3477848), wk =   0.0044893
        k(  248) = (   0.1111111   0.1666667   0.4057490), wk =   0.0044893
        k(  249) = (   0.1111111   0.1666667   0.4637131), wk =   0.0044893
        k(  250) = (   0.1111111   0.1666667   0.5216772), wk =   0.0044893
        k(  251) = (   0.1111111   0.1666667   0.5796414), wk =   0.0044893
        k(  252) = (   0.1111111   0.1666667  -0.6376055), wk =   0.0022447
        k(  253) = (   0.1111111   0.2222222   0.0000000), wk =   0.0022447
        k(  254) = (   0.1111111   0.2222222   0.0579641), wk =   0.0044893
        k(  255) = (   0.1111111   0.2222222   0.1159283), wk =   0.0044893
        k(  256) = (   0.1111111   0.2222222   0.1738924), wk =   0.0044893
        k(  257) = (   0.1111111   0.2222222   0.2318566), wk =   0.0044893
        k(  258) = (   0.1111111   0.2222222   0.2898207), wk =   0.0044893
        k(  259) = (   0.1111111   0.2222222   0.3477848), wk =   0.0044893
        k(  260) = (   0.1111111   0.2222222   0.4057490), wk =   0.0044893
        k(  261) = (   0.1111111   0.2222222   0.4637131), wk =   0.0044893
        k(  262) = (   0.1111111   0.2222222   0.5216772), wk =   0.0044893
        k(  263) = (   0.1111111   0.2222222   0.5796414), wk =   0.0044893
        k(  264) = (   0.1111111   0.2222222  -0.6376055), wk =   0.0022447
        k(  265) = (   0.1111111   0.2777778   0.0000000), wk =   0.0022447
        k(  266) = (   0.1111111   0.2777778   0.0579641), wk =   0.0044893
        k(  267) = (   0.1111111   0.2777778   0.1159283), wk =   0.0044893
        k(  268) = (   0.1111111   0.2777778   0.1738924), wk =   0.0044893
        k(  269) = (   0.1111111   0.2777778   0.2318566), wk =   0.0044893
        k(  270) = (   0.1111111   0.2777778   0.2898207), wk =   0.0044893
        k(  271) = (   0.1111111   0.2777778   0.3477848), wk =   0.0044893
        k(  272) = (   0.1111111   0.2777778   0.4057490), wk =   0.0044893
        k(  273) = (   0.1111111   0.2777778   0.4637131), wk =   0.0044893
        k(  274) = (   0.1111111   0.2777778   0.5216772), wk =   0.0044893
        k(  275) = (   0.1111111   0.2777778   0.5796414), wk =   0.0044893
        k(  276) = (   0.1111111   0.2777778  -0.6376055), wk =   0.0022447
        k(  277) = (   0.1111111   0.3333333   0.0000000), wk =   0.0022447
        k(  278) = (   0.1111111   0.3333333   0.0579641), wk =   0.0044893
        k(  279) = (   0.1111111   0.3333333   0.1159283), wk =   0.0044893
        k(  280) = (   0.1111111   0.3333333   0.1738924), wk =   0.0044893
        k(  281) = (   0.1111111   0.3333333   0.2318566), wk =   0.0044893
        k(  282) = (   0.1111111   0.3333333   0.2898207), wk =   0.0044893
        k(  283) = (   0.1111111   0.3333333   0.3477848), wk =   0.0044893
        k(  284) = (   0.1111111   0.3333333   0.4057490), wk =   0.0044893
        k(  285) = (   0.1111111   0.3333333   0.4637131), wk =   0.0044893
        k(  286) = (   0.1111111   0.3333333   0.5216772), wk =   0.0044893
        k(  287) = (   0.1111111   0.3333333   0.5796414), wk =   0.0044893
        k(  288) = (   0.1111111   0.3333333  -0.6376055), wk =   0.0022447
        k(  289) = (   0.1111111   0.3888889   0.0000000), wk =   0.0022447
        k(  290) = (   0.1111111   0.3888889   0.0579641), wk =   0.0044893
        k(  291) = (   0.1111111   0.3888889   0.1159283), wk =   0.0044893
        k(  292) = (   0.1111111   0.3888889   0.1738924), wk =   0.0044893
        k(  293) = (   0.1111111   0.3888889   0.2318566), wk =   0.0044893
        k(  294) = (   0.1111111   0.3888889   0.2898207), wk =   0.0044893
        k(  295) = (   0.1111111   0.3888889   0.3477848), wk =   0.0044893
        k(  296) = (   0.1111111   0.3888889   0.4057490), wk =   0.0044893
        k(  297) = (   0.1111111   0.3888889   0.4637131), wk =   0.0044893
        k(  298) = (   0.1111111   0.3888889   0.5216772), wk =   0.0044893
        k(  299) = (   0.1111111   0.3888889   0.5796414), wk =   0.0044893
        k(  300) = (   0.1111111   0.3888889  -0.6376055), wk =   0.0022447
        k(  301) = (   0.1111111   0.4444444   0.0000000), wk =   0.0022447
        k(  302) = (   0.1111111   0.4444444   0.0579641), wk =   0.0044893
        k(  303) = (   0.1111111   0.4444444   0.1159283), wk =   0.0044893
        k(  304) = (   0.1111111   0.4444444   0.1738924), wk =   0.0044893
        k(  305) = (   0.1111111   0.4444444   0.2318566), wk =   0.0044893
        k(  306) = (   0.1111111   0.4444444   0.2898207), wk =   0.0044893
        k(  307) = (   0.1111111   0.4444444   0.3477848), wk =   0.0044893
        k(  308) = (   0.1111111   0.4444444   0.4057490), wk =   0.0044893
        k(  309) = (   0.1111111   0.4444444   0.4637131), wk =   0.0044893
        k(  310) = (   0.1111111   0.4444444   0.5216772), wk =   0.0044893
        k(  311) = (   0.1111111   0.4444444   0.5796414), wk =   0.0044893
        k(  312) = (   0.1111111   0.4444444  -0.6376055), wk =   0.0022447
        k(  313) = (   0.1111111  -0.5000000   0.0000000), wk =   0.0011223
        k(  314) = (   0.1111111  -0.5000000   0.0579641), wk =   0.0022447
        k(  315) = (   0.1111111  -0.5000000   0.1159283), wk =   0.0022447
        k(  316) = (   0.1111111  -0.5000000   0.1738924), wk =   0.0022447
        k(  317) = (   0.1111111  -0.5000000   0.2318566), wk =   0.0022447
        k(  318) = (   0.1111111  -0.5000000   0.2898207), wk =   0.0022447
        k(  319) = (   0.1111111  -0.5000000   0.3477848), wk =   0.0022447
        k(  320) = (   0.1111111  -0.5000000   0.4057490), wk =   0.0022447
        k(  321) = (   0.1111111  -0.5000000   0.4637131), wk =   0.0022447
        k(  322) = (   0.1111111  -0.5000000   0.5216772), wk =   0.0022447
        k(  323) = (   0.1111111  -0.5000000   0.5796414), wk =   0.0022447
        k(  324) = (   0.1111111  -0.5000000  -0.6376055), wk =   0.0011223
        k(  325) = (   0.1666667   0.1666667   0.0000000), wk =   0.0011223
        k(  326) = (   0.1666667   0.1666667   0.0579641), wk =   0.0022447
        k(  327) = (   0.1666667   0.1666667   0.1159283), wk =   0.0022447
        k(  328) = (   0.1666667   0.1666667   0.1738924), wk =   0.0022447
        k(  329) = (   0.1666667   0.1666667   0.2318566), wk =   0.0022447
        k(  330) = (   0.1666667   0.1666667   0.2898207), wk =   0.0022447
        k(  331) = (   0.1666667   0.1666667   0.3477848), wk =   0.0022447
        k(  332) = (   0.1666667   0.1666667   0.4057490), wk =   0.0022447
        k(  333) = (   0.1666667   0.1666667   0.4637131), wk =   0.0022447
        k(  334) = (   0.1666667   0.1666667   0.5216772), wk =   0.0022447
        k(  335) = (   0.1666667   0.1666667   0.5796414), wk =   0.0022447
        k(  336) = (   0.1666667   0.1666667  -0.6376055), wk =   0.0011223
        k(  337) = (   0.1666667   0.2222222   0.0000000), wk =   0.0022447
        k(  338) = (   0.1666667   0.2222222   0.0579641), wk =   0.0044893
        k(  339) = (   0.1666667   0.2222222   0.1159283), wk =   0.0044893
        k(  340) = (   0.1666667   0.2222222   0.1738924), wk =   0.0044893
        k(  341) = (   0.1666667   0.2222222   0.2318566), wk =   0.0044893
        k(  342) = (   0.1666667   0.2222222   0.2898207), wk =   0.0044893
        k(  343) = (   0.1666667   0.2222222   0.3477848), wk =   0.0044893
        k(  344) = (   0.1666667   0.2222222   0.4057490), wk =   0.0044893
        k(  345) = (   0.1666667   0.2222222   0.4637131), wk =   0.0044893
        k(  346) = (   0.1666667   0.2222222   0.5216772), wk =   0.0044893
        k(  347) = (   0.1666667   0.2222222   0.5796414), wk =   0.0044893
        k(  348) = (   0.1666667   0.2222222  -0.6376055), wk =   0.0022447
        k(  349) = (   0.1666667   0.2777778   0.0000000), wk =   0.0022447
        k(  350) = (   0.1666667   0.2777778   0.0579641), wk =   0.0044893
        k(  351) = (   0.1666667   0.2777778   0.1159283), wk =   0.0044893
        k(  352) = (   0.1666667   0.2777778   0.1738924), wk =   0.0044893
        k(  353) = (   0.1666667   0.2777778   0.2318566), wk =   0.0044893
        k(  354) = (   0.1666667   0.2777778   0.2898207), wk =   0.0044893
        k(  355) = (   0.1666667   0.2777778   0.3477848), wk =   0.0044893
        k(  356) = (   0.1666667   0.2777778   0.4057490), wk =   0.0044893
        k(  357) = (   0.1666667   0.2777778   0.4637131), wk =   0.0044893
        k(  358) = (   0.1666667   0.2777778   0.5216772), wk =   0.0044893
        k(  359) = (   0.1666667   0.2777778   0.5796414), wk =   0.0044893
        k(  360) = (   0.1666667   0.2777778  -0.6376055), wk =   0.0022447
        k(  361) = (   0.1666667   0.3333333   0.0000000), wk =   0.0022447
        k(  362) = (   0.1666667   0.3333333   0.0579641), wk =   0.0044893
        k(  363) = (   0.1666667   0.3333333   0.1159283), wk =   0.0044893
        k(  364) = (   0.1666667   0.3333333   0.1738924), wk =   0.0044893
        k(  365) = (   0.1666667   0.3333333   0.2318566), wk =   0.0044893
        k(  366) = (   0.1666667   0.3333333   0.2898207), wk =   0.0044893
        k(  367) = (   0.1666667   0.3333333   0.3477848), wk =   0.0044893
        k(  368) = (   0.1666667   0.3333333   0.4057490), wk =   0.0044893
        k(  369) = (   0.1666667   0.3333333   0.4637131), wk =   0.0044893
        k(  370) = (   0.1666667   0.3333333   0.5216772), wk =   0.0044893
        k(  371) = (   0.1666667   0.3333333   0.5796414), wk =   0.0044893
        k(  372) = (   0.1666667   0.3333333  -0.6376055), wk =   0.0022447
        k(  373) = (   0.1666667   0.3888889   0.0000000), wk =   0.0022447
        k(  374) = (   0.1666667   0.3888889   0.0579641), wk =   0.0044893
        k(  375) = (   0.1666667   0.3888889   0.1159283), wk =   0.0044893
        k(  376) = (   0.1666667   0.3888889   0.1738924), wk =   0.0044893
        k(  377) = (   0.1666667   0.3888889   0.2318566), wk =   0.0044893
        k(  378) = (   0.1666667   0.3888889   0.2898207), wk =   0.0044893
        k(  379) = (   0.1666667   0.3888889   0.3477848), wk =   0.0044893
        k(  380) = (   0.1666667   0.3888889   0.4057490), wk =   0.0044893
        k(  381) = (   0.1666667   0.3888889   0.4637131), wk =   0.0044893
        k(  382) = (   0.1666667   0.3888889   0.5216772), wk =   0.0044893
        k(  383) = (   0.1666667   0.3888889   0.5796414), wk =   0.0044893
        k(  384) = (   0.1666667   0.3888889  -0.6376055), wk =   0.0022447
        k(  385) = (   0.1666667   0.4444444   0.0000000), wk =   0.0022447
        k(  386) = (   0.1666667   0.4444444   0.0579641), wk =   0.0044893
        k(  387) = (   0.1666667   0.4444444   0.1159283), wk =   0.0044893
        k(  388) = (   0.1666667   0.4444444   0.1738924), wk =   0.0044893
        k(  389) = (   0.1666667   0.4444444   0.2318566), wk =   0.0044893
        k(  390) = (   0.1666667   0.4444444   0.2898207), wk =   0.0044893
        k(  391) = (   0.1666667   0.4444444   0.3477848), wk =   0.0044893
        k(  392) = (   0.1666667   0.4444444   0.4057490), wk =   0.0044893
        k(  393) = (   0.1666667   0.4444444   0.4637131), wk =   0.0044893
        k(  394) = (   0.1666667   0.4444444   0.5216772), wk =   0.0044893
        k(  395) = (   0.1666667   0.4444444   0.5796414), wk =   0.0044893
        k(  396) = (   0.1666667   0.4444444  -0.6376055), wk =   0.0022447
        k(  397) = (   0.1666667  -0.5000000   0.0000000), wk =   0.0011223
        k(  398) = (   0.1666667  -0.5000000   0.0579641), wk =   0.0022447
        k(  399) = (   0.1666667  -0.5000000   0.1159283), wk =   0.0022447
        k(  400) = (   0.1666667  -0.5000000   0.1738924), wk =   0.0022447
        k(  401) = (   0.1666667  -0.5000000   0.2318566), wk =   0.0022447
        k(  402) = (   0.1666667  -0.5000000   0.2898207), wk =   0.0022447
        k(  403) = (   0.1666667  -0.5000000   0.3477848), wk =   0.0022447
        k(  404) = (   0.1666667  -0.5000000   0.4057490), wk =   0.0022447
        k(  405) = (   0.1666667  -0.5000000   0.4637131), wk =   0.0022447
        k(  406) = (   0.1666667  -0.5000000   0.5216772), wk =   0.0022447
        k(  407) = (   0.1666667  -0.5000000   0.5796414), wk =   0.0022447
        k(  408) = (   0.1666667  -0.5000000  -0.6376055), wk =   0.0011223
        k(  409) = (   0.2222222   0.2222222   0.0000000), wk =   0.0011223
        k(  410) = (   0.2222222   0.2222222   0.0579641), wk =   0.0022447
        k(  411) = (   0.2222222   0.2222222   0.1159283), wk =   0.0022447
        k(  412) = (   0.2222222   0.2222222   0.1738924), wk =   0.0022447
        k(  413) = (   0.2222222   0.2222222   0.2318566), wk =   0.0022447
        k(  414) = (   0.2222222   0.2222222   0.2898207), wk =   0.0022447
        k(  415) = (   0.2222222   0.2222222   0.3477848), wk =   0.0022447
        k(  416) = (   0.2222222   0.2222222   0.4057490), wk =   0.0022447
        k(  417) = (   0.2222222   0.2222222   0.4637131), wk =   0.0022447
        k(  418) = (   0.2222222   0.2222222   0.5216772), wk =   0.0022447
        k(  419) = (   0.2222222   0.2222222   0.5796414), wk =   0.0022447
        k(  420) = (   0.2222222   0.2222222  -0.6376055), wk =   0.0011223
        k(  421) = (   0.2222222   0.2777778   0.0000000), wk =   0.0022447
        k(  422) = (   0.2222222   0.2777778   0.0579641), wk =   0.0044893
        k(  423) = (   0.2222222   0.2777778   0.1159283), wk =   0.0044893
        k(  424) = (   0.2222222   0.2777778   0.1738924), wk =   0.0044893
        k(  425) = (   0.2222222   0.2777778   0.2318566), wk =   0.0044893
        k(  426) = (   0.2222222   0.2777778   0.2898207), wk =   0.0044893
        k(  427) = (   0.2222222   0.2777778   0.3477848), wk =   0.0044893
        k(  428) = (   0.2222222   0.2777778   0.4057490), wk =   0.0044893
        k(  429) = (   0.2222222   0.2777778   0.4637131), wk =   0.0044893
        k(  430) = (   0.2222222   0.2777778   0.5216772), wk =   0.0044893
        k(  431) = (   0.2222222   0.2777778   0.5796414), wk =   0.0044893
        k(  432) = (   0.2222222   0.2777778  -0.6376055), wk =   0.0022447
        k(  433) = (   0.2222222   0.3333333   0.0000000), wk =   0.0022447
        k(  434) = (   0.2222222   0.3333333   0.0579641), wk =   0.0044893
        k(  435) = (   0.2222222   0.3333333   0.1159283), wk =   0.0044893
        k(  436) = (   0.2222222   0.3333333   0.1738924), wk =   0.0044893
        k(  437) = (   0.2222222   0.3333333   0.2318566), wk =   0.0044893
        k(  438) = (   0.2222222   0.3333333   0.2898207), wk =   0.0044893
        k(  439) = (   0.2222222   0.3333333   0.3477848), wk =   0.0044893
        k(  440) = (   0.2222222   0.3333333   0.4057490), wk =   0.0044893
        k(  441) = (   0.2222222   0.3333333   0.4637131), wk =   0.0044893
        k(  442) = (   0.2222222   0.3333333   0.5216772), wk =   0.0044893
        k(  443) = (   0.2222222   0.3333333   0.5796414), wk =   0.0044893
        k(  444) = (   0.2222222   0.3333333  -0.6376055), wk =   0.0022447
        k(  445) = (   0.2222222   0.3888889   0.0000000), wk =   0.0022447
        k(  446) = (   0.2222222   0.3888889   0.0579641), wk =   0.0044893
        k(  447) = (   0.2222222   0.3888889   0.1159283), wk =   0.0044893
        k(  448) = (   0.2222222   0.3888889   0.1738924), wk =   0.0044893
        k(  449) = (   0.2222222   0.3888889   0.2318566), wk =   0.0044893
        k(  450) = (   0.2222222   0.3888889   0.2898207), wk =   0.0044893
        k(  451) = (   0.2222222   0.3888889   0.3477848), wk =   0.0044893
        k(  452) = (   0.2222222   0.3888889   0.4057490), wk =   0.0044893
        k(  453) = (   0.2222222   0.3888889   0.4637131), wk =   0.0044893
        k(  454) = (   0.2222222   0.3888889   0.5216772), wk =   0.0044893
        k(  455) = (   0.2222222   0.3888889   0.5796414), wk =   0.0044893
        k(  456) = (   0.2222222   0.3888889  -0.6376055), wk =   0.0022447
        k(  457) = (   0.2222222   0.4444444   0.0000000), wk =   0.0022447
        k(  458) = (   0.2222222   0.4444444   0.0579641), wk =   0.0044893
        k(  459) = (   0.2222222   0.4444444   0.1159283), wk =   0.0044893
        k(  460) = (   0.2222222   0.4444444   0.1738924), wk =   0.0044893
        k(  461) = (   0.2222222   0.4444444   0.2318566), wk =   0.0044893
        k(  462) = (   0.2222222   0.4444444   0.2898207), wk =   0.0044893
        k(  463) = (   0.2222222   0.4444444   0.3477848), wk =   0.0044893
        k(  464) = (   0.2222222   0.4444444   0.4057490), wk =   0.0044893
        k(  465) = (   0.2222222   0.4444444   0.4637131), wk =   0.0044893
        k(  466) = (   0.2222222   0.4444444   0.5216772), wk =   0.0044893
        k(  467) = (   0.2222222   0.4444444   0.5796414), wk =   0.0044893
        k(  468) = (   0.2222222   0.4444444  -0.6376055), wk =   0.0022447
        k(  469) = (   0.2222222  -0.5000000   0.0000000), wk =   0.0011223
        k(  470) = (   0.2222222  -0.5000000   0.0579641), wk =   0.0022447
        k(  471) = (   0.2222222  -0.5000000   0.1159283), wk =   0.0022447
        k(  472) = (   0.2222222  -0.5000000   0.1738924), wk =   0.0022447
        k(  473) = (   0.2222222  -0.5000000   0.2318566), wk =   0.0022447
        k(  474) = (   0.2222222  -0.5000000   0.2898207), wk =   0.0022447
        k(  475) = (   0.2222222  -0.5000000   0.3477848), wk =   0.0022447
        k(  476) = (   0.2222222  -0.5000000   0.4057490), wk =   0.0022447
        k(  477) = (   0.2222222  -0.5000000   0.4637131), wk =   0.0022447
        k(  478) = (   0.2222222  -0.5000000   0.5216772), wk =   0.0022447
        k(  479) = (   0.2222222  -0.5000000   0.5796414), wk =   0.0022447
        k(  480) = (   0.2222222  -0.5000000  -0.6376055), wk =   0.0011223
        k(  481) = (   0.2777778   0.2777778   0.0000000), wk =   0.0011223
        k(  482) = (   0.2777778   0.2777778   0.0579641), wk =   0.0022447
        k(  483) = (   0.2777778   0.2777778   0.1159283), wk =   0.0022447
        k(  484) = (   0.2777778   0.2777778   0.1738924), wk =   0.0022447
        k(  485) = (   0.2777778   0.2777778   0.2318566), wk =   0.0022447
        k(  486) = (   0.2777778   0.2777778   0.2898207), wk =   0.0022447
        k(  487) = (   0.2777778   0.2777778   0.3477848), wk =   0.0022447
        k(  488) = (   0.2777778   0.2777778   0.4057490), wk =   0.0022447
        k(  489) = (   0.2777778   0.2777778   0.4637131), wk =   0.0022447
        k(  490) = (   0.2777778   0.2777778   0.5216772), wk =   0.0022447
        k(  491) = (   0.2777778   0.2777778   0.5796414), wk =   0.0022447
        k(  492) = (   0.2777778   0.2777778  -0.6376055), wk =   0.0011223
        k(  493) = (   0.2777778   0.3333333   0.0000000), wk =   0.0022447
        k(  494) = (   0.2777778   0.3333333   0.0579641), wk =   0.0044893
        k(  495) = (   0.2777778   0.3333333   0.1159283), wk =   0.0044893
        k(  496) = (   0.2777778   0.3333333   0.1738924), wk =   0.0044893
        k(  497) = (   0.2777778   0.3333333   0.2318566), wk =   0.0044893
        k(  498) = (   0.2777778   0.3333333   0.2898207), wk =   0.0044893
        k(  499) = (   0.2777778   0.3333333   0.3477848), wk =   0.0044893
        k(  500) = (   0.2777778   0.3333333   0.4057490), wk =   0.0044893
        k(  501) = (   0.2777778   0.3333333   0.4637131), wk =   0.0044893
        k(  502) = (   0.2777778   0.3333333   0.5216772), wk =   0.0044893
        k(  503) = (   0.2777778   0.3333333   0.5796414), wk =   0.0044893
        k(  504) = (   0.2777778   0.3333333  -0.6376055), wk =   0.0022447
        k(  505) = (   0.2777778   0.3888889   0.0000000), wk =   0.0022447
        k(  506) = (   0.2777778   0.3888889   0.0579641), wk =   0.0044893
        k(  507) = (   0.2777778   0.3888889   0.1159283), wk =   0.0044893
        k(  508) = (   0.2777778   0.3888889   0.1738924), wk =   0.0044893
        k(  509) = (   0.2777778   0.3888889   0.2318566), wk =   0.0044893
        k(  510) = (   0.2777778   0.3888889   0.2898207), wk =   0.0044893
        k(  511) = (   0.2777778   0.3888889   0.3477848), wk =   0.0044893
        k(  512) = (   0.2777778   0.3888889   0.4057490), wk =   0.0044893
        k(  513) = (   0.2777778   0.3888889   0.4637131), wk =   0.0044893
        k(  514) = (   0.2777778   0.3888889   0.5216772), wk =   0.0044893
        k(  515) = (   0.2777778   0.3888889   0.5796414), wk =   0.0044893
        k(  516) = (   0.2777778   0.3888889  -0.6376055), wk =   0.0022447
        k(  517) = (   0.2777778   0.4444444   0.0000000), wk =   0.0022447
        k(  518) = (   0.2777778   0.4444444   0.0579641), wk =   0.0044893
        k(  519) = (   0.2777778   0.4444444   0.1159283), wk =   0.0044893
        k(  520) = (   0.2777778   0.4444444   0.1738924), wk =   0.0044893
        k(  521) = (   0.2777778   0.4444444   0.2318566), wk =   0.0044893
        k(  522) = (   0.2777778   0.4444444   0.2898207), wk =   0.0044893
        k(  523) = (   0.2777778   0.4444444   0.3477848), wk =   0.0044893
        k(  524) = (   0.2777778   0.4444444   0.4057490), wk =   0.0044893
        k(  525) = (   0.2777778   0.4444444   0.4637131), wk =   0.0044893
        k(  526) = (   0.2777778   0.4444444   0.5216772), wk =   0.0044893
        k(  527) = (   0.2777778   0.4444444   0.5796414), wk =   0.0044893
        k(  528) = (   0.2777778   0.4444444  -0.6376055), wk =   0.0022447
        k(  529) = (   0.2777778  -0.5000000   0.0000000), wk =   0.0011223
        k(  530) = (   0.2777778  -0.5000000   0.0579641), wk =   0.0022447
        k(  531) = (   0.2777778  -0.5000000   0.1159283), wk =   0.0022447
        k(  532) = (   0.2777778  -0.5000000   0.1738924), wk =   0.0022447
        k(  533) = (   0.2777778  -0.5000000   0.2318566), wk =   0.0022447
        k(  534) = (   0.2777778  -0.5000000   0.2898207), wk =   0.0022447
        k(  535) = (   0.2777778  -0.5000000   0.3477848), wk =   0.0022447
        k(  536) = (   0.2777778  -0.5000000   0.4057490), wk =   0.0022447
        k(  537) = (   0.2777778  -0.5000000   0.4637131), wk =   0.0022447
        k(  538) = (   0.2777778  -0.5000000   0.5216772), wk =   0.0022447
        k(  539) = (   0.2777778  -0.5000000   0.5796414), wk =   0.0022447
        k(  540) = (   0.2777778  -0.5000000  -0.6376055), wk =   0.0011223
        k(  541) = (   0.3333333   0.3333333   0.0000000), wk =   0.0011223
        k(  542) = (   0.3333333   0.3333333   0.0579641), wk =   0.0022447
        k(  543) = (   0.3333333   0.3333333   0.1159283), wk =   0.0022447
        k(  544) = (   0.3333333   0.3333333   0.1738924), wk =   0.0022447
        k(  545) = (   0.3333333   0.3333333   0.2318566), wk =   0.0022447
        k(  546) = (   0.3333333   0.3333333   0.2898207), wk =   0.0022447
        k(  547) = (   0.3333333   0.3333333   0.3477848), wk =   0.0022447
        k(  548) = (   0.3333333   0.3333333   0.4057490), wk =   0.0022447
        k(  549) = (   0.3333333   0.3333333   0.4637131), wk =   0.0022447
        k(  550) = (   0.3333333   0.3333333   0.5216772), wk =   0.0022447
        k(  551) = (   0.3333333   0.3333333   0.5796414), wk =   0.0022447
        k(  552) = (   0.3333333   0.3333333  -0.6376055), wk =   0.0011223
        k(  553) = (   0.3333333   0.3888889   0.0000000), wk =   0.0022447
        k(  554) = (   0.3333333   0.3888889   0.0579641), wk =   0.0044893
        k(  555) = (   0.3333333   0.3888889   0.1159283), wk =   0.0044893
        k(  556) = (   0.3333333   0.3888889   0.1738924), wk =   0.0044893
        k(  557) = (   0.3333333   0.3888889   0.2318566), wk =   0.0044893
        k(  558) = (   0.3333333   0.3888889   0.2898207), wk =   0.0044893
        k(  559) = (   0.3333333   0.3888889   0.3477848), wk =   0.0044893
        k(  560) = (   0.3333333   0.3888889   0.4057490), wk =   0.0044893
        k(  561) = (   0.3333333   0.3888889   0.4637131), wk =   0.0044893
        k(  562) = (   0.3333333   0.3888889   0.5216772), wk =   0.0044893
        k(  563) = (   0.3333333   0.3888889   0.5796414), wk =   0.0044893
        k(  564) = (   0.3333333   0.3888889  -0.6376055), wk =   0.0022447
        k(  565) = (   0.3333333   0.4444444   0.0000000), wk =   0.0022447
        k(  566) = (   0.3333333   0.4444444   0.0579641), wk =   0.0044893
        k(  567) = (   0.3333333   0.4444444   0.1159283), wk =   0.0044893
        k(  568) = (   0.3333333   0.4444444   0.1738924), wk =   0.0044893
        k(  569) = (   0.3333333   0.4444444   0.2318566), wk =   0.0044893
        k(  570) = (   0.3333333   0.4444444   0.2898207), wk =   0.0044893
        k(  571) = (   0.3333333   0.4444444   0.3477848), wk =   0.0044893
        k(  572) = (   0.3333333   0.4444444   0.4057490), wk =   0.0044893
        k(  573) = (   0.3333333   0.4444444   0.4637131), wk =   0.0044893
        k(  574) = (   0.3333333   0.4444444   0.5216772), wk =   0.0044893
        k(  575) = (   0.3333333   0.4444444   0.5796414), wk =   0.0044893
        k(  576) = (   0.3333333   0.4444444  -0.6376055), wk =   0.0022447
        k(  577) = (   0.3333333  -0.5000000   0.0000000), wk =   0.0011223
        k(  578) = (   0.3333333  -0.5000000   0.0579641), wk =   0.0022447
        k(  579) = (   0.3333333  -0.5000000   0.1159283), wk =   0.0022447
        k(  580) = (   0.3333333  -0.5000000   0.1738924), wk =   0.0022447
        k(  581) = (   0.3333333  -0.5000000   0.2318566), wk =   0.0022447
        k(  582) = (   0.3333333  -0.5000000   0.2898207), wk =   0.0022447
        k(  583) = (   0.3333333  -0.5000000   0.3477848), wk =   0.0022447
        k(  584) = (   0.3333333  -0.5000000   0.4057490), wk =   0.0022447
        k(  585) = (   0.3333333  -0.5000000   0.4637131), wk =   0.0022447
        k(  586) = (   0.3333333  -0.5000000   0.5216772), wk =   0.0022447
        k(  587) = (   0.3333333  -0.5000000   0.5796414), wk =   0.0022447
        k(  588) = (   0.3333333  -0.5000000  -0.6376055), wk =   0.0011223
        k(  589) = (   0.3888889   0.3888889   0.0000000), wk =   0.0011223
        k(  590) = (   0.3888889   0.3888889   0.0579641), wk =   0.0022447
        k(  591) = (   0.3888889   0.3888889   0.1159283), wk =   0.0022447
        k(  592) = (   0.3888889   0.3888889   0.1738924), wk =   0.0022447
        k(  593) = (   0.3888889   0.3888889   0.2318566), wk =   0.0022447
        k(  594) = (   0.3888889   0.3888889   0.2898207), wk =   0.0022447
        k(  595) = (   0.3888889   0.3888889   0.3477848), wk =   0.0022447
        k(  596) = (   0.3888889   0.3888889   0.4057490), wk =   0.0022447
        k(  597) = (   0.3888889   0.3888889   0.4637131), wk =   0.0022447
        k(  598) = (   0.3888889   0.3888889   0.5216772), wk =   0.0022447
        k(  599) = (   0.3888889   0.3888889   0.5796414), wk =   0.0022447
        k(  600) = (   0.3888889   0.3888889  -0.6376055), wk =   0.0011223
        k(  601) = (   0.3888889   0.4444444   0.0000000), wk =   0.0022447
        k(  602) = (   0.3888889   0.4444444   0.0579641), wk =   0.0044893
        k(  603) = (   0.3888889   0.4444444   0.1159283), wk =   0.0044893
        k(  604) = (   0.3888889   0.4444444   0.1738924), wk =   0.0044893
        k(  605) = (   0.3888889   0.4444444   0.2318566), wk =   0.0044893
        k(  606) = (   0.3888889   0.4444444   0.2898207), wk =   0.0044893
        k(  607) = (   0.3888889   0.4444444   0.3477848), wk =   0.0044893
        k(  608) = (   0.3888889   0.4444444   0.4057490), wk =   0.0044893
        k(  609) = (   0.3888889   0.4444444   0.4637131), wk =   0.0044893
        k(  610) = (   0.3888889   0.4444444   0.5216772), wk =   0.0044893
        k(  611) = (   0.3888889   0.4444444   0.5796414), wk =   0.0044893
        k(  612) = (   0.3888889   0.4444444  -0.6376055), wk =   0.0022447
        k(  613) = (   0.3888889  -0.5000000   0.0000000), wk =   0.0011223
        k(  614) = (   0.3888889  -0.5000000   0.0579641), wk =   0.0022447
        k(  615) = (   0.3888889  -0.5000000   0.1159283), wk =   0.0022447
        k(  616) = (   0.3888889  -0.5000000   0.1738924), wk =   0.0022447
        k(  617) = (   0.3888889  -0.5000000   0.2318566), wk =   0.0022447
        k(  618) = (   0.3888889  -0.5000000   0.2898207), wk =   0.0022447
        k(  619) = (   0.3888889  -0.5000000   0.3477848), wk =   0.0022447
        k(  620) = (   0.3888889  -0.5000000   0.4057490), wk =   0.0022447
        k(  621) = (   0.3888889  -0.5000000   0.4637131), wk =   0.0022447
        k(  622) = (   0.3888889  -0.5000000   0.5216772), wk =   0.0022447
        k(  623) = (   0.3888889  -0.5000000   0.5796414), wk =   0.0022447
        k(  624) = (   0.3888889  -0.5000000  -0.6376055), wk =   0.0011223
        k(  625) = (   0.4444444   0.4444444   0.0000000), wk =   0.0011223
        k(  626) = (   0.4444444   0.4444444   0.0579641), wk =   0.0022447
        k(  627) = (   0.4444444   0.4444444   0.1159283), wk =   0.0022447
        k(  628) = (   0.4444444   0.4444444   0.1738924), wk =   0.0022447
        k(  629) = (   0.4444444   0.4444444   0.2318566), wk =   0.0022447
        k(  630) = (   0.4444444   0.4444444   0.2898207), wk =   0.0022447
        k(  631) = (   0.4444444   0.4444444   0.3477848), wk =   0.0022447
        k(  632) = (   0.4444444   0.4444444   0.4057490), wk =   0.0022447
        k(  633) = (   0.4444444   0.4444444   0.4637131), wk =   0.0022447
        k(  634) = (   0.4444444   0.4444444   0.5216772), wk =   0.0022447
        k(  635) = (   0.4444444   0.4444444   0.5796414), wk =   0.0022447
        k(  636) = (   0.4444444   0.4444444  -0.6376055), wk =   0.0011223
        k(  637) = (   0.4444444  -0.5000000   0.0000000), wk =   0.0011223
        k(  638) = (   0.4444444  -0.5000000   0.0579641), wk =   0.0022447
        k(  639) = (   0.4444444  -0.5000000   0.1159283), wk =   0.0022447
        k(  640) = (   0.4444444  -0.5000000   0.1738924), wk =   0.0022447
        k(  641) = (   0.4444444  -0.5000000   0.2318566), wk =   0.0022447
        k(  642) = (   0.4444444  -0.5000000   0.2898207), wk =   0.0022447
        k(  643) = (   0.4444444  -0.5000000   0.3477848), wk =   0.0022447
        k(  644) = (   0.4444444  -0.5000000   0.4057490), wk =   0.0022447
        k(  645) = (   0.4444444  -0.5000000   0.4637131), wk =   0.0022447
        k(  646) = (   0.4444444  -0.5000000   0.5216772), wk =   0.0022447
        k(  647) = (   0.4444444  -0.5000000   0.5796414), wk =   0.0022447
        k(  648) = (   0.4444444  -0.5000000  -0.6376055), wk =   0.0011223
        k(  649) = (  -0.5000000  -0.5000000   0.0000000), wk =   0.0002806
        k(  650) = (  -0.5000000  -0.5000000   0.0579641), wk =   0.0005612
        k(  651) = (  -0.5000000  -0.5000000   0.1159283), wk =   0.0005612
        k(  652) = (  -0.5000000  -0.5000000   0.1738924), wk =   0.0005612
        k(  653) = (  -0.5000000  -0.5000000   0.2318566), wk =   0.0005612
        k(  654) = (  -0.5000000  -0.5000000   0.2898207), wk =   0.0005612
        k(  655) = (  -0.5000000  -0.5000000   0.3477848), wk =   0.0005612
        k(  656) = (  -0.5000000  -0.5000000   0.4057490), wk =   0.0005612
        k(  657) = (  -0.5000000  -0.5000000   0.4637131), wk =   0.0005612
        k(  658) = (  -0.5000000  -0.5000000   0.5216772), wk =   0.0005612
        k(  659) = (  -0.5000000  -0.5000000   0.5796414), wk =   0.0005612
        k(  660) = (  -0.5000000  -0.5000000  -0.6376055), wk =   0.0002806

                       cryst. coord.
        k(    1) = (   0.0000000   0.0000000   0.0000000), wk =   0.0002806
        k(    2) = (   0.0000000   0.0000000   0.0454545), wk =   0.0005612
        k(    3) = (   0.0000000   0.0000000   0.0909091), wk =   0.0005612
        k(    4) = (   0.0000000   0.0000000   0.1363636), wk =   0.0005612
        k(    5) = (   0.0000000   0.0000000   0.1818182), wk =   0.0005612
        k(    6) = (   0.0000000   0.0000000   0.2272727), wk =   0.0005612
        k(    7) = (   0.0000000   0.0000000   0.2727273), wk =   0.0005612
        k(    8) = (   0.0000000   0.0000000   0.3181818), wk =   0.0005612
        k(    9) = (   0.0000000   0.0000000   0.3636364), wk =   0.0005612
        k(   10) = (   0.0000000   0.0000000   0.4090909), wk =   0.0005612
        k(   11) = (   0.0000000   0.0000000   0.4545455), wk =   0.0005612
        k(   12) = (   0.0000000   0.0000000  -0.5000000), wk =   0.0002806
        k(   13) = (   0.0000000   0.0555556   0.0000000), wk =   0.0011223
        k(   14) = (   0.0000000   0.0555556   0.0454545), wk =   0.0022447
        k(   15) = (   0.0000000   0.0555556   0.0909091), wk =   0.0022447
        k(   16) = (   0.0000000   0.0555556   0.1363636), wk =   0.0022447
        k(   17) = (   0.0000000   0.0555556   0.1818182), wk =   0.0022447
        k(   18) = (   0.0000000   0.0555556   0.2272727), wk =   0.0022447
        k(   19) = (   0.0000000   0.0555556   0.2727273), wk =   0.0022447
        k(   20) = (   0.0000000   0.0555556   0.3181818), wk =   0.0022447
        k(   21) = (   0.0000000   0.0555556   0.3636364), wk =   0.0022447
        k(   22) = (   0.0000000   0.0555556   0.4090909), wk =   0.0022447
        k(   23) = (   0.0000000   0.0555556   0.4545455), wk =   0.0022447
        k(   24) = (   0.0000000   0.0555556  -0.5000000), wk =   0.0011223
        k(   25) = (   0.0000000   0.1111111   0.0000000), wk =   0.0011223
        k(   26) = (   0.0000000   0.1111111   0.0454545), wk =   0.0022447
        k(   27) = (   0.0000000   0.1111111   0.0909091), wk =   0.0022447
        k(   28) = (   0.0000000   0.1111111   0.1363636), wk =   0.0022447
        k(   29) = (   0.0000000   0.1111111   0.1818182), wk =   0.0022447
        k(   30) = (   0.0000000   0.1111111   0.2272727), wk =   0.0022447
        k(   31) = (   0.0000000   0.1111111   0.2727273), wk =   0.0022447
        k(   32) = (   0.0000000   0.1111111   0.3181818), wk =   0.0022447
        k(   33) = (   0.0000000   0.1111111   0.3636364), wk =   0.0022447
        k(   34) = (   0.0000000   0.1111111   0.4090909), wk =   0.0022447
        k(   35) = (   0.0000000   0.1111111   0.4545455), wk =   0.0022447
        k(   36) = (   0.0000000   0.1111111  -0.5000000), wk =   0.0011223
        k(   37) = (   0.0000000   0.1666667   0.0000000), wk =   0.0011223
        k(   38) = (   0.0000000   0.1666667   0.0454545), wk =   0.0022447
        k(   39) = (   0.0000000   0.1666667   0.0909091), wk =   0.0022447
        k(   40) = (   0.0000000   0.1666667   0.1363636), wk =   0.0022447
        k(   41) = (   0.0000000   0.1666667   0.1818182), wk =   0.0022447
        k(   42) = (   0.0000000   0.1666667   0.2272727), wk =   0.0022447
        k(   43) = (   0.0000000   0.1666667   0.2727273), wk =   0.0022447
        k(   44) = (   0.0000000   0.1666667   0.3181818), wk =   0.0022447
        k(   45) = (   0.0000000   0.1666667   0.3636364), wk =   0.0022447
        k(   46) = (   0.0000000   0.1666667   0.4090909), wk =   0.0022447
        k(   47) = (   0.0000000   0.1666667   0.4545455), wk =   0.0022447
        k(   48) = (   0.0000000   0.1666667  -0.5000000), wk =   0.0011223
        k(   49) = (   0.0000000   0.2222222   0.0000000), wk =   0.0011223
        k(   50) = (   0.0000000   0.2222222   0.0454545), wk =   0.0022447
        k(   51) = (   0.0000000   0.2222222   0.0909091), wk =   0.0022447
        k(   52) = (   0.0000000   0.2222222   0.1363636), wk =   0.0022447
        k(   53) = (   0.0000000   0.2222222   0.1818182), wk =   0.0022447
        k(   54) = (   0.0000000   0.2222222   0.2272727), wk =   0.0022447
        k(   55) = (   0.0000000   0.2222222   0.2727273), wk =   0.0022447
        k(   56) = (   0.0000000   0.2222222   0.3181818), wk =   0.0022447
        k(   57) = (   0.0000000   0.2222222   0.3636364), wk =   0.0022447
        k(   58) = (   0.0000000   0.2222222   0.4090909), wk =   0.0022447
        k(   59) = (   0.0000000   0.2222222   0.4545455), wk =   0.0022447
        k(   60) = (   0.0000000   0.2222222  -0.5000000), wk =   0.0011223
        k(   61) = (   0.0000000   0.2777778   0.0000000), wk =   0.0011223
        k(   62) = (   0.0000000   0.2777778   0.0454545), wk =   0.0022447
        k(   63) = (   0.0000000   0.2777778   0.0909091), wk =   0.0022447
        k(   64) = (   0.0000000   0.2777778   0.1363636), wk =   0.0022447
        k(   65) = (   0.0000000   0.2777778   0.1818182), wk =   0.0022447
        k(   66) = (   0.0000000   0.2777778   0.2272727), wk =   0.0022447
        k(   67) = (   0.0000000   0.2777778   0.2727273), wk =   0.0022447
        k(   68) = (   0.0000000   0.2777778   0.3181818), wk =   0.0022447
        k(   69) = (   0.0000000   0.2777778   0.3636364), wk =   0.0022447
        k(   70) = (   0.0000000   0.2777778   0.4090909), wk =   0.0022447
        k(   71) = (   0.0000000   0.2777778   0.4545455), wk =   0.0022447
        k(   72) = (   0.0000000   0.2777778  -0.5000000), wk =   0.0011223
        k(   73) = (   0.0000000   0.3333333   0.0000000), wk =   0.0011223
        k(   74) = (   0.0000000   0.3333333   0.0454545), wk =   0.0022447
        k(   75) = (   0.0000000   0.3333333   0.0909091), wk =   0.0022447
        k(   76) = (   0.0000000   0.3333333   0.1363636), wk =   0.0022447
        k(   77) = (   0.0000000   0.3333333   0.1818182), wk =   0.0022447
        k(   78) = (   0.0000000   0.3333333   0.2272727), wk =   0.0022447
        k(   79) = (   0.0000000   0.3333333   0.2727273), wk =   0.0022447
        k(   80) = (   0.0000000   0.3333333   0.3181818), wk =   0.0022447
        k(   81) = (   0.0000000   0.3333333   0.3636364), wk =   0.0022447
        k(   82) = (   0.0000000   0.3333333   0.4090909), wk =   0.0022447
        k(   83) = (   0.0000000   0.3333333   0.4545455), wk =   0.0022447
        k(   84) = (   0.0000000   0.3333333  -0.5000000), wk =   0.0011223
        k(   85) = (   0.0000000   0.3888889   0.0000000), wk =   0.0011223
        k(   86) = (   0.0000000   0.3888889   0.0454545), wk =   0.0022447
        k(   87) = (   0.0000000   0.3888889   0.0909091), wk =   0.0022447
        k(   88) = (   0.0000000   0.3888889   0.1363636), wk =   0.0022447
        k(   89) = (   0.0000000   0.3888889   0.1818182), wk =   0.0022447
        k(   90) = (   0.0000000   0.3888889   0.2272727), wk =   0.0022447
        k(   91) = (   0.0000000   0.3888889   0.2727273), wk =   0.0022447
        k(   92) = (   0.0000000   0.3888889   0.3181818), wk =   0.0022447
        k(   93) = (   0.0000000   0.3888889   0.3636364), wk =   0.0022447
        k(   94) = (   0.0000000   0.3888889   0.4090909), wk =   0.0022447
        k(   95) = (   0.0000000   0.3888889   0.4545455), wk =   0.0022447
        k(   96) = (   0.0000000   0.3888889  -0.5000000), wk =   0.0011223
        k(   97) = (   0.0000000   0.4444444   0.0000000), wk =   0.0011223
        k(   98) = (   0.0000000   0.4444444   0.0454545), wk =   0.0022447
        k(   99) = (   0.0000000   0.4444444   0.0909091), wk =   0.0022447
        k(  100) = (   0.0000000   0.4444444   0.1363636), wk =   0.0022447
        k(  101) = (   0.0000000   0.4444444   0.1818182), wk =   0.0022447
        k(  102) = (   0.0000000   0.4444444   0.2272727), wk =   0.0022447
        k(  103) = (   0.0000000   0.4444444   0.2727273), wk =   0.0022447
        k(  104) = (   0.0000000   0.4444444   0.3181818), wk =   0.0022447
        k(  105) = (   0.0000000   0.4444444   0.3636364), wk =   0.0022447
        k(  106) = (   0.0000000   0.4444444   0.4090909), wk =   0.0022447
        k(  107) = (   0.0000000   0.4444444   0.4545455), wk =   0.0022447
        k(  108) = (   0.0000000   0.4444444  -0.5000000), wk =   0.0011223
        k(  109) = (   0.0000000  -0.5000000   0.0000000), wk =   0.0005612
        k(  110) = (   0.0000000  -0.5000000   0.0454545), wk =   0.0011223
        k(  111) = (   0.0000000  -0.5000000   0.0909091), wk =   0.0011223
        k(  112) = (   0.0000000  -0.5000000   0.1363636), wk =   0.0011223
        k(  113) = (   0.0000000  -0.5000000   0.1818182), wk =   0.0011223
        k(  114) = (   0.0000000  -0.5000000   0.2272727), wk =   0.0011223
        k(  115) = (   0.0000000  -0.5000000   0.2727273), wk =   0.0011223
        k(  116) = (   0.0000000  -0.5000000   0.3181818), wk =   0.0011223
        k(  117) = (   0.0000000  -0.5000000   0.3636364), wk =   0.0011223
        k(  118) = (   0.0000000  -0.5000000   0.4090909), wk =   0.0011223
        k(  119) = (   0.0000000  -0.5000000   0.4545455), wk =   0.0011223
        k(  120) = (   0.0000000  -0.5000000  -0.5000000), wk =   0.0005612
        k(  121) = (   0.0555556   0.0555556   0.0000000), wk =   0.0011223
        k(  122) = (   0.0555556   0.0555556   0.0454545), wk =   0.0022447
        k(  123) = (   0.0555556   0.0555556   0.0909091), wk =   0.0022447
        k(  124) = (   0.0555556   0.0555556   0.1363636), wk =   0.0022447
        k(  125) = (   0.0555556   0.0555556   0.1818182), wk =   0.0022447
        k(  126) = (   0.0555556   0.0555556   0.2272727), wk =   0.0022447
        k(  127) = (   0.0555556   0.0555556   0.2727273), wk =   0.0022447
        k(  128) = (   0.0555556   0.0555556   0.3181818), wk =   0.0022447
        k(  129) = (   0.0555556   0.0555556   0.3636364), wk =   0.0022447
        k(  130) = (   0.0555556   0.0555556   0.4090909), wk =   0.0022447
        k(  131) = (   0.0555556   0.0555556   0.4545455), wk =   0.0022447
        k(  132) = (   0.0555556   0.0555556  -0.5000000), wk =   0.0011223
        k(  133) = (   0.0555556   0.1111111   0.0000000), wk =   0.0022447
        k(  134) = (   0.0555556   0.1111111   0.0454545), wk =   0.0044893
        k(  135) = (   0.0555556   0.1111111   0.0909091), wk =   0.0044893
        k(  136) = (   0.0555556   0.1111111   0.1363636), wk =   0.0044893
        k(  137) = (   0.0555556   0.1111111   0.1818182), wk =   0.0044893
        k(  138) = (   0.0555556   0.1111111   0.2272727), wk =   0.0044893
        k(  139) = (   0.0555556   0.1111111   0.2727273), wk =   0.0044893
        k(  140) = (   0.0555556   0.1111111   0.3181818), wk =   0.0044893
        k(  141) = (   0.0555556   0.1111111   0.3636364), wk =   0.0044893
        k(  142) = (   0.0555556   0.1111111   0.4090909), wk =   0.0044893
        k(  143) = (   0.0555556   0.1111111   0.4545455), wk =   0.0044893
        k(  144) = (   0.0555556   0.1111111  -0.5000000), wk =   0.0022447
        k(  145) = (   0.0555556   0.1666667   0.0000000), wk =   0.0022447
        k(  146) = (   0.0555556   0.1666667   0.0454545), wk =   0.0044893
        k(  147) = (   0.0555556   0.1666667   0.0909091), wk =   0.0044893
        k(  148) = (   0.0555556   0.1666667   0.1363636), wk =   0.0044893
        k(  149) = (   0.0555556   0.1666667   0.1818182), wk =   0.0044893
        k(  150) = (   0.0555556   0.1666667   0.2272727), wk =   0.0044893
        k(  151) = (   0.0555556   0.1666667   0.2727273), wk =   0.0044893
        k(  152) = (   0.0555556   0.1666667   0.3181818), wk =   0.0044893
        k(  153) = (   0.0555556   0.1666667   0.3636364), wk =   0.0044893
        k(  154) = (   0.0555556   0.1666667   0.4090909), wk =   0.0044893
        k(  155) = (   0.0555556   0.1666667   0.4545455), wk =   0.0044893
        k(  156) = (   0.0555556   0.1666667  -0.5000000), wk =   0.0022447
        k(  157) = (   0.0555556   0.2222222   0.0000000), wk =   0.0022447
        k(  158) = (   0.0555556   0.2222222   0.0454545), wk =   0.0044893
        k(  159) = (   0.0555556   0.2222222   0.0909091), wk =   0.0044893
        k(  160) = (   0.0555556   0.2222222   0.1363636), wk =   0.0044893
        k(  161) = (   0.0555556   0.2222222   0.1818182), wk =   0.0044893
        k(  162) = (   0.0555556   0.2222222   0.2272727), wk =   0.0044893
        k(  163) = (   0.0555556   0.2222222   0.2727273), wk =   0.0044893
        k(  164) = (   0.0555556   0.2222222   0.3181818), wk =   0.0044893
        k(  165) = (   0.0555556   0.2222222   0.3636364), wk =   0.0044893
        k(  166) = (   0.0555556   0.2222222   0.4090909), wk =   0.0044893
        k(  167) = (   0.0555556   0.2222222   0.4545455), wk =   0.0044893
        k(  168) = (   0.0555556   0.2222222  -0.5000000), wk =   0.0022447
        k(  169) = (   0.0555556   0.2777778   0.0000000), wk =   0.0022447
        k(  170) = (   0.0555556   0.2777778   0.0454545), wk =   0.0044893
        k(  171) = (   0.0555556   0.2777778   0.0909091), wk =   0.0044893
        k(  172) = (   0.0555556   0.2777778   0.1363636), wk =   0.0044893
        k(  173) = (   0.0555556   0.2777778   0.1818182), wk =   0.0044893
        k(  174) = (   0.0555556   0.2777778   0.2272727), wk =   0.0044893
        k(  175) = (   0.0555556   0.2777778   0.2727273), wk =   0.0044893
        k(  176) = (   0.0555556   0.2777778   0.3181818), wk =   0.0044893
        k(  177) = (   0.0555556   0.2777778   0.3636364), wk =   0.0044893
        k(  178) = (   0.0555556   0.2777778   0.4090909), wk =   0.0044893
        k(  179) = (   0.0555556   0.2777778   0.4545455), wk =   0.0044893
        k(  180) = (   0.0555556   0.2777778  -0.5000000), wk =   0.0022447
        k(  181) = (   0.0555556   0.3333333   0.0000000), wk =   0.0022447
        k(  182) = (   0.0555556   0.3333333   0.0454545), wk =   0.0044893
        k(  183) = (   0.0555556   0.3333333   0.0909091), wk =   0.0044893
        k(  184) = (   0.0555556   0.3333333   0.1363636), wk =   0.0044893
        k(  185) = (   0.0555556   0.3333333   0.1818182), wk =   0.0044893
        k(  186) = (   0.0555556   0.3333333   0.2272727), wk =   0.0044893
        k(  187) = (   0.0555556   0.3333333   0.2727273), wk =   0.0044893
        k(  188) = (   0.0555556   0.3333333   0.3181818), wk =   0.0044893
        k(  189) = (   0.0555556   0.3333333   0.3636364), wk =   0.0044893
        k(  190) = (   0.0555556   0.3333333   0.4090909), wk =   0.0044893
        k(  191) = (   0.0555556   0.3333333   0.4545455), wk =   0.0044893
        k(  192) = (   0.0555556   0.3333333  -0.5000000), wk =   0.0022447
        k(  193) = (   0.0555556   0.3888889   0.0000000), wk =   0.0022447
        k(  194) = (   0.0555556   0.3888889   0.0454545), wk =   0.0044893
        k(  195) = (   0.0555556   0.3888889   0.0909091), wk =   0.0044893
        k(  196) = (   0.0555556   0.3888889   0.1363636), wk =   0.0044893
        k(  197) = (   0.0555556   0.3888889   0.1818182), wk =   0.0044893
        k(  198) = (   0.0555556   0.3888889   0.2272727), wk =   0.0044893
        k(  199) = (   0.0555556   0.3888889   0.2727273), wk =   0.0044893
        k(  200) = (   0.0555556   0.3888889   0.3181818), wk =   0.0044893
        k(  201) = (   0.0555556   0.3888889   0.3636364), wk =   0.0044893
        k(  202) = (   0.0555556   0.3888889   0.4090909), wk =   0.0044893
        k(  203) = (   0.0555556   0.3888889   0.4545455), wk =   0.0044893
        k(  204) = (   0.0555556   0.3888889  -0.5000000), wk =   0.0022447
        k(  205) = (   0.0555556   0.4444444   0.0000000), wk =   0.0022447
        k(  206) = (   0.0555556   0.4444444   0.0454545), wk =   0.0044893
        k(  207) = (   0.0555556   0.4444444   0.0909091), wk =   0.0044893
        k(  208) = (   0.0555556   0.4444444   0.1363636), wk =   0.0044893
        k(  209) = (   0.0555556   0.4444444   0.1818182), wk =   0.0044893
        k(  210) = (   0.0555556   0.4444444   0.2272727), wk =   0.0044893
        k(  211) = (   0.0555556   0.4444444   0.2727273), wk =   0.0044893
        k(  212) = (   0.0555556   0.4444444   0.3181818), wk =   0.0044893
        k(  213) = (   0.0555556   0.4444444   0.3636364), wk =   0.0044893
        k(  214) = (   0.0555556   0.4444444   0.4090909), wk =   0.0044893
        k(  215) = (   0.0555556   0.4444444   0.4545455), wk =   0.0044893
        k(  216) = (   0.0555556   0.4444444  -0.5000000), wk =   0.0022447
        k(  217) = (   0.0555556  -0.5000000   0.0000000), wk =   0.0011223
        k(  218) = (   0.0555556  -0.5000000   0.0454545), wk =   0.0022447
        k(  219) = (   0.0555556  -0.5000000   0.0909091), wk =   0.0022447
        k(  220) = (   0.0555556  -0.5000000   0.1363636), wk =   0.0022447
        k(  221) = (   0.0555556  -0.5000000   0.1818182), wk =   0.0022447
        k(  222) = (   0.0555556  -0.5000000   0.2272727), wk =   0.0022447
        k(  223) = (   0.0555556  -0.5000000   0.2727273), wk =   0.0022447
        k(  224) = (   0.0555556  -0.5000000   0.3181818), wk =   0.0022447
        k(  225) = (   0.0555556  -0.5000000   0.3636364), wk =   0.0022447
        k(  226) = (   0.0555556  -0.5000000   0.4090909), wk =   0.0022447
        k(  227) = (   0.0555556  -0.5000000   0.4545455), wk =   0.0022447
        k(  228) = (   0.0555556  -0.5000000  -0.5000000), wk =   0.0011223
        k(  229) = (   0.1111111   0.1111111   0.0000000), wk =   0.0011223
        k(  230) = (   0.1111111   0.1111111   0.0454545), wk =   0.0022447
        k(  231) = (   0.1111111   0.1111111   0.0909091), wk =   0.0022447
        k(  232) = (   0.1111111   0.1111111   0.1363636), wk =   0.0022447
        k(  233) = (   0.1111111   0.1111111   0.1818182), wk =   0.0022447
        k(  234) = (   0.1111111   0.1111111   0.2272727), wk =   0.0022447
        k(  235) = (   0.1111111   0.1111111   0.2727273), wk =   0.0022447
        k(  236) = (   0.1111111   0.1111111   0.3181818), wk =   0.0022447
        k(  237) = (   0.1111111   0.1111111   0.3636364), wk =   0.0022447
        k(  238) = (   0.1111111   0.1111111   0.4090909), wk =   0.0022447
        k(  239) = (   0.1111111   0.1111111   0.4545455), wk =   0.0022447
        k(  240) = (   0.1111111   0.1111111  -0.5000000), wk =   0.0011223
        k(  241) = (   0.1111111   0.1666667   0.0000000), wk =   0.0022447
        k(  242) = (   0.1111111   0.1666667   0.0454545), wk =   0.0044893
        k(  243) = (   0.1111111   0.1666667   0.0909091), wk =   0.0044893
        k(  244) = (   0.1111111   0.1666667   0.1363636), wk =   0.0044893
        k(  245) = (   0.1111111   0.1666667   0.1818182), wk =   0.0044893
        k(  246) = (   0.1111111   0.1666667   0.2272727), wk =   0.0044893
        k(  247) = (   0.1111111   0.1666667   0.2727273), wk =   0.0044893
        k(  248) = (   0.1111111   0.1666667   0.3181818), wk =   0.0044893
[...]
    15.4811  16.2145

     occupation numbers 
     1.0000   1.0000   1.0000   1.0000   0.0000   0.0000   0.0000   0.0000
     0.0000   0.0000

          k = 0.3889 0.4444 0.0580 (   736 PWs)   bands (ev):

     0.8405   1.8188   2.7887   3.7504  13.1014  13.9555  14.8434  15.6923
    15.7559  15.9277

     occupation numbers 
     1.0000   1.0000   1.0000   1.0000   0.0000   0.0000   0.0000   0.0000
     0.0000   0.0000

          k = 0.3889 0.4444 0.1159 (   733 PWs)   bands (ev):

     0.9295   1.9070   2.8758   3.8361  12.1681  13.0399  13.9405  14.8649
    15.9527  16.4775

     occupation numbers 
     1.0000   1.0000   1.0000   1.0000   0.0000   0.0000   0.0000   0.0000
     0.0000   0.0000

          k = 0.3889 0.4444 0.1739 (   739 PWs)   bands (ev):

     1.0777   2.0537   3.0207   3.9785  11.1730  12.0616  12.9691  13.8930
    16.1599  16.7412

     occupation numbers 
     1.0000   1.0000   1.0000   1.0000   0.0000   0.0000   0.0000   0.0000
     0.0000   0.0000

          k = 0.3889 0.4444 0.2319 (   739 PWs)   bands (ev):

     1.2848   2.2586   3.2229   4.1766  10.1900  11.0891  12.0012  12.9245
    16.3771  16.9585

     occupation numbers 
     1.0000   1.0000   1.0000   1.0000   1.0000   0.0000   0.0000   0.0000
     0.0000   0.0000

          k = 0.3889 0.4444 0.2898 (   743 PWs)   bands (ev):

     1.5505   2.5213   3.4815   4.4284   9.2424  10.1464  11.0616  11.9851
    16.6284  17.2031

     occupation numbers 
     1.0000   1.0000   1.0000   1.0000   1.0000   1.0000   0.0000   0.0000
     0.0000   0.0000

          k = 0.3889 0.4444 0.3478 (   745 PWs)   bands (ev):

     1.8741   2.8408   3.7951   4.7294   8.3437   9.2452  10.1616  11.0855
    16.9219  17.4897

     occupation numbers 
     1.0000   1.0000   1.0000   1.0000   1.0000   1.0000   1.0000   0.0000
     0.0000   0.0000

          k = 0.3889 0.4444 0.4057 (   745 PWs)   bands (ev):

     2.2549   3.2160   4.1605   5.0669   7.5112   8.3939   9.3078  10.2317
    17.2592  17.8222

     occupation numbers 
     1.0000   1.0000   1.0000   1.0000   1.0000   1.0000   1.0000   1.0002
     0.0000   0.0000

          k = 0.3889 0.4444 0.4637 (   743 PWs)   bands (ev):

     2.6917   3.6446   4.5705   5.3864   6.8020   7.6029   8.5057   9.4276
    17.6382  18.2012

     occupation numbers 
     1.0000   1.0000   1.0000   1.0000   1.0000   1.0000   1.0000   1.0000
     0.0000   0.0000

          k = 0.3889 0.4444 0.5217 (   745 PWs)   bands (ev):

     3.1828   4.1219   5.0002   5.4027   6.5031   6.8989   7.7617   8.6766
    18.0511  18.6256

     occupation numbers 
     1.0000   1.0000   1.0000   1.0000   1.0000   1.0000   1.0000   1.0000
     0.0000   0.0000

          k = 0.3889 0.4444 0.5796 (   743 PWs)   bands (ev):

     3.7248   4.6348   4.9129   5.3185   6.4140   6.8182   7.0899   7.9831
    18.4780  19.0919

     occupation numbers 
     1.0000   1.0000   1.0000   1.0000   1.0000   1.0000   1.0000   1.0000
     0.0000   0.0000

          k = 0.3889 0.4444-0.6376 (   744 PWs)   bands (ev):

     4.3099   4.3099   5.1289   5.1289   6.5453   6.5454   7.3551   7.3551
    18.8516  18.8518

     occupation numbers 
     1.0000   1.0000   1.0000   1.0000   1.0000   1.0000   1.0000   1.0000
     0.0000   0.0000

          k = 0.3889-0.5000 0.0000 (   728 PWs)   bands (ev):

     1.2740   1.2741   3.2151   3.2152  14.0198  14.0199  15.5509  15.5510
    15.7565  15.7566

     occupation numbers 
     1.0000   1.0000   1.0000   1.0000   0.0000   0.0000   0.0000   0.0000
     0.0000   0.0000

          k = 0.3889-0.5000 0.0580 (   732 PWs)   bands (ev):

     1.3035   1.3036   3.2440   3.2440  13.5103  13.5104  15.2820  15.2820
    15.8698  15.8698

     occupation numbers 
     1.0000   1.0000   1.0000   1.0000   0.0000   0.0000   0.0000   0.0000
     0.0000   0.0000

          k = 0.3889-0.5000 0.1159 (   734 PWs)   bands (ev):

     1.3922   1.3922   3.3305   3.3306  12.5841  12.5841  14.3834  14.3834
    16.2263  16.2264

     occupation numbers 
     1.0000   1.0000   1.0000   1.0000   0.0000   0.0000   0.0000   0.0000
     0.0000   0.0000

          k = 0.3889-0.5000 0.1739 (   736 PWs)   bands (ev):

     1.5397   1.5398   3.4743   3.4744  11.5953  11.5953  13.4096  13.4097
    16.4666  16.4666

     occupation numbers 
     1.0000   1.0000   1.0000   1.0000   0.0000   0.0000   0.0000   0.0000
     0.0000   0.0000

          k = 0.3889-0.5000 0.2319 (   740 PWs)   bands (ev):

     1.7458   1.7459   3.6748   3.6748  10.6160  10.6160  12.4401  12.4401
    16.6935  16.6936

     occupation numbers 
     1.0000   1.0000   1.0000   1.0000   0.8539   0.8537   0.0000   0.0000
     0.0000   0.0000

          k = 0.3889-0.5000 0.2898 (   742 PWs)   bands (ev):

     2.0101   2.0102   3.9307   3.9307   9.6694   9.6695  11.4996  11.4997
    16.9480  16.9480

     occupation numbers 
     1.0000   1.0000   1.0000   1.0000   1.0000   1.0000   0.0000   0.0000
     0.0000   0.0000

          k = 0.3889-0.5000 0.3478 (   746 PWs)   bands (ev):

     2.3319   2.3320   4.2395   4.2395   8.7674   8.7675  10.5991  10.5992
    17.2426  17.2426

     occupation numbers 
     1.0000   1.0000   1.0000   1.0000   1.0000   1.0000   0.9251   0.9249
     0.0000   0.0000

          k = 0.3889-0.5000 0.4057 (   744 PWs)   bands (ev):

     2.7103   2.7104   4.5956   4.5957   7.9206   7.9206   9.7447   9.7447
    17.5813  17.5813

     occupation numbers 
     1.0000   1.0000   1.0000   1.0000   1.0000   1.0000   1.0000   1.0000
     0.0000   0.0000

          k = 0.3889-0.5000 0.4637 (   746 PWs)   bands (ev):

     3.1437   3.1438   4.9814   4.9815   7.1492   7.1493   8.9407   8.9407
    17.9642  17.9643

     occupation numbers 
     1.0000   1.0000   1.0000   1.0000   1.0000   1.0000   1.0000   1.0000
     0.0000   0.0000

          k = 0.3889-0.5000 0.5217 (   748 PWs)   bands (ev):

     3.6294   3.6295   5.3130   5.3131   6.5389   6.5390   8.1915   8.1916
    18.3884  18.3885

     occupation numbers 
     1.0000   1.0000   1.0000   1.0000   1.0000   1.0000   1.0000   1.0000
     0.0000   0.0000

          k = 0.3889-0.5000 0.5796 (   746 PWs)   bands (ev):

     4.1615   4.1615   5.2268   5.2268   6.4545   6.4545   7.5042   7.5043
    18.8455  18.8456

     occupation numbers 
     1.0000   1.0000   1.0000   1.0000   1.0000   1.0000   1.0000   1.0000
     0.0000   0.0000

          k = 0.3889-0.5000-0.6376 (   740 PWs)   bands (ev):

     4.7219   4.7219   4.7220   4.7220   6.8971   6.8972   6.8972   6.8973
    19.3110  19.3111

     occupation numbers 
     1.0000   1.0000   1.0000   1.0000   1.0000   1.0000   1.0000   1.0000
     0.0000   0.0000

          k = 0.4444 0.4444 0.0000 (   734 PWs)   bands (ev):

     1.2197   2.1950   2.1950   3.1621  13.9719  14.8403  14.8403  15.7088
    16.0147  16.4449

     occupation numbers 
     1.0000   1.0000   1.0000   1.0000   0.0000   0.0000   0.0000   0.0000
     0.0000   0.0000

          k = 0.4444 0.4444 0.0580 (   730 PWs)   bands (ev):

     1.2493   2.2243   2.2243   3.1910  13.4743  14.3483  14.3483  15.2441
    16.5248  16.7373

     occupation numbers 
     1.0000   1.0000   1.0000   1.0000   0.0000   0.0000   0.0000   0.0000
     0.0000   0.0000

          k = 0.4444 0.4444 0.1159 (   729 PWs)   bands (ev):

     1.3380   2.3120   2.3120   3.2775  12.5471  13.4353  13.4354  14.3457
    17.0674  17.3362

     occupation numbers 
     1.0000   1.0000   1.0000   1.0000   0.0000   0.0000   0.0000   0.0000
     0.0000   0.0000

          k = 0.4444 0.4444 0.1739 (   739 PWs)   bands (ev):

     1.4856   2.4580   2.4580   3.4215  11.5540  12.4535  12.4535  13.3686
    17.2956  17.4609

     occupation numbers 
     1.0000   1.0000   1.0000   1.0000   0.0000   0.0000   0.0000   0.0000
     0.0000   0.0000

          k = 0.4444 0.4444 0.2319 (   739 PWs)   bands (ev):

     1.6918   2.6618   2.6619   3.6220  10.5714  11.4783  11.4784  12.3962
    17.5159  17.6354

     occupation numbers 
     1.0000   1.0000   1.0000   1.0000   1.0136   0.0000   0.0000   0.0000
     0.0000   0.0000

          k = 0.4444 0.4444 0.2898 (   737 PWs)   bands (ev):

     1.9563   2.9229   2.9229   3.8781   9.6225  10.5338  10.5338  11.4537
    17.7647  17.8595

     occupation numbers 
     1.0000   1.0000   1.0000   1.0000   1.0000   1.0743   1.0743   0.0000
     0.0000   0.0000

          k = 0.4444 0.4444 0.3478 (   744 PWs)   bands (ev):

     2.2782   3.2401   3.2401   4.1871   8.7189   9.6305   9.6305  10.5518
    18.0525  18.1327

     occupation numbers 
     1.0000   1.0000   1.0000   1.0000   1.0000   1.0000   1.0000   1.0533
     0.0000   0.0000

          k = 0.4444 0.4444 0.4057 (   743 PWs)   bands (ev):

     2.6568   3.6116   3.6117   4.5435   7.8709   8.7755   8.7755   9.6963
    18.3812  18.4549

     occupation numbers 
     1.0000   1.0000   1.0000   1.0000   1.0000   1.0000   1.0000   1.0000
     0.0000   0.0000

          k = 0.4444 0.4444 0.4637 (   744 PWs)   bands (ev):

     3.0905   4.0337   4.0338   4.9296   7.0986   7.9753   7.9753   8.8914
    18.7467  18.8234

     occupation numbers 
     1.0000   1.0000   1.0000   1.0000   1.0000   1.0000   1.0000   1.0000
     0.0000   0.0000

          k = 0.4444 0.4444 0.5217 (   750 PWs)   bands (ev):

     3.5765   4.4967   4.4968   5.2615   6.4875   7.2412   7.2412   8.1416
    19.1349  19.2359

     occupation numbers 
     1.0000   1.0000   1.0000   1.0000   1.0000   1.0000   1.0000   1.0000
     0.0000   0.0000

          k = 0.4444 0.4444 0.5796 (   753 PWs)   bands (ev):

     4.1089   4.9645   4.9645   5.1751   6.4030   6.6104   6.6105   7.4537
    19.4986  19.4987

     occupation numbers 
     1.0000   1.0000   1.0000   1.0000   1.0000   1.0000   1.0000   1.0000
     0.0000   0.0000

          k = 0.4444 0.4444-0.6376 (   744 PWs)   bands (ev):

     4.6698   4.6698   5.2363   5.2363   6.2843   6.2843   6.8461   6.8461
    19.6790  20.1502

     occupation numbers 
     1.0000   1.0000   1.0000   1.0000   1.0000   1.0000   1.0000   1.0000
     0.0000   0.0000

          k = 0.4444-0.5000 0.0000 (   726 PWs)   bands (ev):

     1.6814   1.6814   2.6528   2.6529  14.3821  14.3822  15.2506  15.2507
    16.3435  16.3436

     occupation numbers 
     1.0000   1.0000   1.0000   1.0000   0.0000   0.0000   0.0000   0.0000
     0.0000   0.0000

          k = 0.4444-0.5000 0.0580 (   732 PWs)   bands (ev):

     1.7108   1.7109   2.6819   2.6820  13.8902  13.8902  14.7755  14.7755
    16.7663  16.7664

     occupation numbers 
     1.0000   1.0000   1.0000   1.0000   0.0000   0.0000   0.0000   0.0000
     0.0000   0.0000

          k = 0.4444-0.5000 0.1159 (   732 PWs)   bands (ev):

     1.7991   1.7991   2.7691   2.7692  12.9698  12.9698  13.8694  13.8694
    17.2674  17.2674

     occupation numbers 
     1.0000   1.0000   1.0000   1.0000   0.0000   0.0000   0.0000   0.0000
     0.0000   0.0000

          k = 0.4444-0.5000 0.1739 (   740 PWs)   bands (ev):

     1.9459   1.9460   2.9142   2.9143  11.9811  11.9811  12.8887  12.8887
    17.5090  17.5091

     occupation numbers 
     1.0000   1.0000   1.0000   1.0000   0.0000   0.0000   0.0000   0.0000
     0.0000   0.0000

          k = 0.4444-0.5000 0.2319 (   736 PWs)   bands (ev):

     2.1511   2.1512   3.1166   3.1167  11.0012  11.0012  11.9140  11.9140
    17.7194  17.7195

     occupation numbers 
     1.0000   1.0000   1.0000   1.0000   0.0001   0.0001   0.0000   0.0000
     0.0000   0.0000

          k = 0.4444-0.5000 0.2898 (   734 PWs)   bands (ev):

     2.4140   2.4141   3.3756   3.3756  10.0535  10.0535  10.9697  10.9697
    17.9598  17.9599

     occupation numbers 
     1.0000   1.0000   1.0000   1.0000   1.0000   1.0000   0.0004   0.0004
     0.0000   0.0000

          k = 0.4444-0.5000 0.3478 (   740 PWs)   bands (ev):

     2.7339   2.7340   3.6895   3.6896   9.1489   9.1489  10.0664  10.0664
    18.2421  18.2423

     occupation numbers 
     1.0000   1.0000   1.0000   1.0000   1.0000   1.0000   1.0000   1.0000
     0.0000   0.0000

          k = 0.4444-0.5000 0.4057 (   748 PWs)   bands (ev):

     3.1096   3.1096   4.0554   4.0555   8.2951   8.2952   9.2103   9.2103
    18.5687  18.5688

     occupation numbers 
     1.0000   1.0000   1.0000   1.0000   1.0000   1.0000   1.0000   1.0000
     0.0000   0.0000

          k = 0.4444-0.5000 0.4637 (   744 PWs)   bands (ev):

     3.5387   3.5387   4.4660   4.4660   7.5022   7.5023   8.4063   8.4064
    18.9384  18.9384

     occupation numbers 
     1.0000   1.0000   1.0000   1.0000   1.0000   1.0000   1.0000   1.0000
     0.0000   0.0000

          k = 0.4444-0.5000 0.5217 (   748 PWs)   bands (ev):

     4.0166   4.0166   4.8963   4.8964   6.7966   6.7967   7.6609   7.6609
    19.3449  19.3451

     occupation numbers 
     1.0000   1.0000   1.0000   1.0000   1.0000   1.0000   1.0000   1.0000
     0.0000   0.0000

          k = 0.4444-0.5000 0.5796 (   756 PWs)   bands (ev):

     4.5302   4.5303   5.2154   5.2154   6.3105   6.3106   6.9879   6.9880
    19.7717  19.7717

     occupation numbers 
     1.0000   1.0000   1.0000   1.0000   1.0000   1.0000   1.0000   1.0000
     0.0000   0.0000

          k = 0.4444-0.5000-0.6376 (   752 PWs)   bands (ev):

     5.0253   5.0254   5.0254   5.0254   6.4422   6.4423   6.4423   6.4424
    20.1577  20.1578

     occupation numbers 
     1.0000   1.0000   1.0000   1.0000   1.0000   1.0000   1.0000   1.0000
     0.0000   0.0000

          k =-0.5000-0.5000 0.0000 (   720 PWs)   bands (ev):

     2.1412   2.1413   2.1413   2.1413  14.7923  14.7924  14.7924  14.7925
    16.9380  16.9381

     occupation numbers 
     1.0000   1.0000   1.0000   1.0000   0.0000   0.0000   0.0000   0.0000
     0.0000   0.0000

          k =-0.5000-0.5000 0.0580 (   736 PWs)   bands (ev):

     2.1705   2.1705   2.1705   2.1706  14.3112  14.3113  14.3113  14.3113
    17.4337  17.4338

     occupation numbers 
     1.0000   1.0000   1.0000   1.0000   0.0000   0.0000   0.0000   0.0000
     0.0000   0.0000

          k =-0.5000-0.5000 0.1159 (   736 PWs)   bands (ev):

     2.2583   2.2583   2.2583   2.2584  13.3979  13.3979  13.3979  13.3979
    18.1296  18.1298

     occupation numbers 
     1.0000   1.0000   1.0000   1.0000   0.0000   0.0000   0.0000   0.0000
     0.0000   0.0000

          k =-0.5000-0.5000 0.1739 (   748 PWs)   bands (ev):

     2.4043   2.4044   2.4044   2.4045  12.4122  12.4122  12.4122  12.4123
    18.2538  18.2540

     occupation numbers 
     1.0000   1.0000   1.0000   1.0000   0.0000   0.0000   0.0000   0.0000
     0.0000   0.0000

          k =-0.5000-0.5000 0.2319 (   732 PWs)   bands (ev):

     2.6083   2.6084   2.6084   2.6084  11.4340  11.4340  11.4340  11.4341
    18.4275  18.4276

     occupation numbers 
     1.0000   1.0000   1.0000   1.0000   0.0000   0.0000   0.0000   0.0000
     0.0000   0.0000

          k =-0.5000-0.5000 0.2898 (   732 PWs)   bands (ev):

     2.8695   2.8696   2.8696   2.8696  10.4872  10.4872  10.4872  10.4873
    18.6496  18.6498

     occupation numbers 
     1.0000   1.0000   1.0000   1.0000   1.0778   1.0779   1.0779   1.0779
     0.0000   0.0000

          k =-0.5000-0.5000 0.3478 (   740 PWs)   bands (ev):

     3.1869   3.1870   3.1870   3.1870   9.5824   9.5825   9.5825   9.5825
    18.9194  18.9198

     occupation numbers 
     1.0000   1.0000   1.0000   1.0000   1.0000   1.0000   1.0000   1.0000
     0.0000   0.0000

          k =-0.5000-0.5000 0.4057 (   748 PWs)   bands (ev):

     3.5587   3.5587   3.5587   3.5588   8.7262   8.7263   8.7263   8.7263
    19.2347  19.2350

     occupation numbers 
     1.0000   1.0000   1.0000   1.0000   1.0000   1.0000   1.0000   1.0000
     0.0000   0.0000

          k =-0.5000-0.5000 0.4637 (   748 PWs)   bands (ev):

     3.9810   3.9811   3.9811   3.9812   7.9251   7.9251   7.9251   7.9252
    19.5906  19.5909

     occupation numbers 
     1.0000   1.0000   1.0000   1.0000   1.0000   1.0000   1.0000   1.0000
     0.0000   0.0000

          k =-0.5000-0.5000 0.5217 (   756 PWs)   bands (ev):

     4.4444   4.4444   4.4444   4.4445   7.1903   7.1903   7.1903   7.1904
    19.9745  19.9748

     occupation numbers 
     1.0000   1.0000   1.0000   1.0000   1.0000   1.0000   1.0000   1.0000
     0.0000   0.0000

          k =-0.5000-0.5000 0.5796 (   756 PWs)   bands (ev):

     4.9126   4.9126   4.9126   4.9126   6.5589   6.5589   6.5589   6.5590
    20.3431  20.3434

     occupation numbers 
     1.0000   1.0000   1.0000   1.0000   1.0000   1.0000   1.0000   1.0000
     0.0000   0.0000

          k =-0.5000-0.5000-0.6376 (   752 PWs)   bands (ev):

     5.1847   5.1848   5.1848   5.1848   6.2322   6.2323   6.2323   6.2324
    20.5334  20.5336

     occupation numbers 
     1.0000   1.0000   1.0000   1.0000   1.0000   1.0000   1.0000   1.0000
     0.0000   0.0000

     the Fermi energy is    10.7019 ev

!    total energy              =     -26.71074212 Ry
     Harris-Foulkes estimate   =     -26.71074216 Ry
     estimated scf accuracy    <       0.00000008 Ry

     The total energy is the sum of the following terms:

     one-electron contribution =      14.44472198 Ry
     hartree contribution      =       0.04439868 Ry
     xc contribution           =     -17.75008523 Ry
     ewald contribution        =     -23.44985258 Ry
     smearing contrib. (-TS)   =       0.00007502 Ry

     convergence has been achieved in   5 iterations
 
     init_run     :    216.46s CPU     47.59s WALL (       1 calls)
     electrons    :   4659.81s CPU    702.30s WALL (       1 calls)

     Called by init_run:
     wfcinit      :    216.12s CPU     46.81s WALL (       1 calls)
     wfcinit:atom :      0.62s CPU      0.12s WALL (     660 calls)
     wfcinit:wfcr :    212.70s CPU     46.15s WALL (     660 calls)
     potinit      :      0.04s CPU      0.04s WALL (       1 calls)

     Called by electrons:
     c_bands      :   4368.00s CPU    659.52s WALL (       6 calls)
     sum_band     :    289.64s CPU     42.48s WALL (       6 calls)
     v_of_rho     :      0.76s CPU      0.12s WALL (       6 calls)
     v_h          :      0.01s CPU      0.00s WALL (       6 calls)
     v_xc         :      0.75s CPU      0.12s WALL (       6 calls)
     newd         :      0.64s CPU      0.13s WALL (       6 calls)
     mix_rho      :      0.35s CPU      0.05s WALL (       6 calls)

     Called by c_bands:
     init_us_2    :     15.60s CPU      2.18s WALL (    8580 calls)
     cegterg      :   4329.09s CPU    654.32s WALL (    3960 calls)

     Called by sum_band:
     sum_band:bec :      0.79s CPU      0.11s WALL (    3960 calls)
     addusdens    :      0.57s CPU      0.09s WALL (       6 calls)

     Called by *egterg:
     h_psi        :   2728.63s CPU    426.64s WALL (   13650 calls)
     s_psi        :    372.04s CPU     53.13s WALL (   13650 calls)
     g_psi        :      3.10s CPU      0.40s WALL (    9030 calls)
     cdiaghg      :    138.84s CPU     21.28s WALL (   12330 calls)
     cegterg:over :    445.58s CPU     75.99s WALL (    9030 calls)
     cegterg:upda :    492.16s CPU     68.03s WALL (    9030 calls)
     cegterg:last :    114.90s CPU     16.69s WALL (    3966 calls)

     Called by h_psi:
     h_psi:pot    :   2724.60s CPU    426.11s WALL (   13650 calls)
     h_psi:calbec :    470.75s CPU     65.12s WALL (   13650 calls)
     vloc_psi     :   1850.09s CPU    303.71s WALL (   13650 calls)
     add_vuspsi   :    400.71s CPU     56.93s WALL (   13650 calls)

     General routines
     calbec       :    675.31s CPU     96.07s WALL (   17610 calls)
     fft          :      0.77s CPU      0.15s WALL (      80 calls)
     fftw         :   1867.20s CPU    306.15s WALL (  259130 calls)
 
     Parallel routines
 
     PWSCF        :     1h21m CPU        0h12m WALL

 
   This run was terminated on:  17:12:51  24Jan2019            

=------------------------------------------------------------------------------=
   JOB DONE.
=------------------------------------------------------------------------------=
