
     Program PWSCF v.6.2 (svn rev. 14038) starts on 24Jan2019 at 17: 1:48 

     This program is part of the open-source Quantum ESPRESSO suite
     for quantum simulation of materials; please cite
         "P. Giannozzi et al., J. Phys.:Condens. Matter 21 395502 (2009);
         "P. Giannozzi et al., J. Phys.:Condens. Matter 29 465901 (2017);
          URL http://www.quantum-espresso.org", 
     in publications or presentations arising from this work. More details at
     http://www.quantum-espresso.org/quote

     Parallel version (MPI), running on     1 processors

     MPI processes distributed on     1 nodes
     Reading input from ./AlfccSEPNEG0DOT18498519082954898.in
Warning: card &IONS ignored
Warning: card / ignored
Warning: card &CELL ignored
Warning: card / ignored

     Current dimensions of program PWSCF are:
     Max number of different atomic species (ntypx) = 10
     Max number of k-points (npk) =  40000
     Max angular momentum in pseudopotentials (lmaxx) =  3
     Message from routine iosys:
     minimal I/O required, wf_collect reset to FALSE

     Subspace diagonalization in iterative solution of the eigenvalue problem:
     a serial algorithm will be used

     Found symmetry operation: I + ( -0.5000 -0.5000  0.0000)
     This is a supercell, fractional translations are disabled
 
     G-vector sticks info
     --------------------
     sticks:   dense  smooth     PW     G-vecs:    dense   smooth      PW
     Sum         465     465    149                 6115     6115    1167
 


     bravais-lattice index     =            0
     lattice parameter (alat)  =       7.6325  a.u.
     unit-cell volume          =     362.3773 (a.u.)^3
     number of atoms/cell      =            4
     number of atomic types    =            1
     number of electrons       =        12.00
     number of Kohn-Sham states=           10
     kinetic-energy cutoff     =      25.0000  Ry
     charge density cutoff     =     100.0000  Ry
     convergence threshold     =      1.0E-07
     mixing beta               =       0.7000
     number of iterations used =            8  plain     mixing
     Exchange-correlation      = SLA  PW   PBE  PBE ( 1  4  3  4 0 0)

     celldm(1)=   7.632472  celldm(2)=   0.000000  celldm(3)=   0.000000
     celldm(4)=   0.000000  celldm(5)=   0.000000  celldm(6)=   0.000000

     crystal axes: (cart. coord. in units of alat)
               a(1) = (   1.000000   0.000000   0.000000 )  
               a(2) = (   0.000000   1.000000   0.000000 )  
               a(3) = (   0.000000   0.000000   0.815015 )  

     reciprocal axes: (cart. coord. in units 2 pi/alat)
               b(1) = (  1.000000  0.000000  0.000000 )  
               b(2) = (  0.000000  1.000000  0.000000 )  
               b(3) = (  0.000000  0.000000  1.226972 )  


     PseudoPot. # 1 for Al read from file:
     ./al_pbe_v1.uspp.F.UPF
     MD5 check sum: 0a6289f5291fc8f409219462bc851e1f
     Pseudo is Ultrasoft + core correction, Zval =  3.0
     Generated by new atomic code, or converted to UPF format
     Using radial grid of  893 points,  3 beta functions with: 
                l(1) =   0
                l(2) =   1
                l(3) =   2
     Q(r) pseudized with  8 coefficients,  rinner =    0.900   0.900   0.900
                                                       0.900   0.900

     atomic species   valence    mass     pseudopotential
        Al             3.00    26.98150     Al( 1.00)

     16 Sym. Ops., with inversion, found


                                    s                        frac. trans.

      isym =  1     identity                                     

 cryst.   s( 1) = (     1          0          0      )
                  (     0          1          0      )
                  (     0          0          1      )

 cart.    s( 1) = (  1.0000000  0.0000000  0.0000000 )
                  (  0.0000000  1.0000000  0.0000000 )
                  (  0.0000000  0.0000000  1.0000000 )


      isym =  2     180 deg rotation - cart. axis [0,0,1]        

 cryst.   s( 2) = (    -1          0          0      )
                  (     0         -1          0      )
                  (     0          0          1      )

 cart.    s( 2) = ( -1.0000000  0.0000000  0.0000000 )
                  (  0.0000000 -1.0000000  0.0000000 )
                  (  0.0000000  0.0000000  1.0000000 )


      isym =  3     180 deg rotation - cart. axis [0,1,0]        

 cryst.   s( 3) = (    -1          0          0      )
                  (     0          1          0      )
                  (     0          0         -1      )

 cart.    s( 3) = ( -1.0000000  0.0000000  0.0000000 )
                  (  0.0000000  1.0000000  0.0000000 )
                  (  0.0000000  0.0000000 -1.0000000 )


      isym =  4     180 deg rotation - cart. axis [1,0,0]        

 cryst.   s( 4) = (     1          0          0      )
                  (     0         -1          0      )
                  (     0          0         -1      )

 cart.    s( 4) = (  1.0000000  0.0000000  0.0000000 )
                  (  0.0000000 -1.0000000  0.0000000 )
                  (  0.0000000  0.0000000 -1.0000000 )


      isym =  5     180 deg rotation - cart. axis [1,1,0]        

 cryst.   s( 5) = (     0          1          0      )
                  (     1          0          0      )
                  (     0          0         -1      )

 cart.    s( 5) = (  0.0000000  1.0000000  0.0000000 )
                  (  1.0000000  0.0000000  0.0000000 )
                  (  0.0000000  0.0000000 -1.0000000 )


      isym =  6     180 deg rotation - cart. axis [1,-1,0]       

 cryst.   s( 6) = (     0         -1          0      )
                  (    -1          0          0      )
                  (     0          0         -1      )

 cart.    s( 6) = (  0.0000000 -1.0000000  0.0000000 )
                  ( -1.0000000  0.0000000  0.0000000 )
                  (  0.0000000  0.0000000 -1.0000000 )


      isym =  7      90 deg rotation - cart. axis [0,0,-1]       

 cryst.   s( 7) = (     0         -1          0      )
                  (     1          0          0      )
                  (     0          0          1      )

 cart.    s( 7) = (  0.0000000  1.0000000  0.0000000 )
                  ( -1.0000000  0.0000000  0.0000000 )
                  (  0.0000000  0.0000000  1.0000000 )


      isym =  8      90 deg rotation - cart. axis [0,0,1]        

 cryst.   s( 8) = (     0          1          0      )
                  (    -1          0          0      )
                  (     0          0          1      )

 cart.    s( 8) = (  0.0000000 -1.0000000  0.0000000 )
                  (  1.0000000  0.0000000  0.0000000 )
                  (  0.0000000  0.0000000  1.0000000 )


      isym =  9     inversion                                    

 cryst.   s( 9) = (    -1          0          0      )
                  (     0         -1          0      )
                  (     0          0         -1      )

 cart.    s( 9) = ( -1.0000000  0.0000000  0.0000000 )
                  (  0.0000000 -1.0000000  0.0000000 )
                  (  0.0000000  0.0000000 -1.0000000 )


      isym = 10     inv. 180 deg rotation - cart. axis [0,0,1]   

 cryst.   s(10) = (     1          0          0      )
                  (     0          1          0      )
                  (     0          0         -1      )

 cart.    s(10) = (  1.0000000  0.0000000  0.0000000 )
                  (  0.0000000  1.0000000  0.0000000 )
                  (  0.0000000  0.0000000 -1.0000000 )


      isym = 11     inv. 180 deg rotation - cart. axis [0,1,0]   

 cryst.   s(11) = (     1          0          0      )
                  (     0         -1          0      )
                  (     0          0          1      )

 cart.    s(11) = (  1.0000000  0.0000000  0.0000000 )
                  (  0.0000000 -1.0000000  0.0000000 )
                  (  0.0000000  0.0000000  1.0000000 )


      isym = 12     inv. 180 deg rotation - cart. axis [1,0,0]   

 cryst.   s(12) = (    -1          0          0      )
                  (     0          1          0      )
                  (     0          0          1      )

 cart.    s(12) = ( -1.0000000  0.0000000  0.0000000 )
                  (  0.0000000  1.0000000  0.0000000 )
                  (  0.0000000  0.0000000  1.0000000 )


      isym = 13     inv. 180 deg rotation - cart. axis [1,1,0]   

 cryst.   s(13) = (     0         -1          0      )
                  (    -1          0          0      )
                  (     0          0          1      )

 cart.    s(13) = (  0.0000000 -1.0000000  0.0000000 )
                  ( -1.0000000  0.0000000  0.0000000 )
                  (  0.0000000  0.0000000  1.0000000 )


      isym = 14     inv. 180 deg rotation - cart. axis [1,-1,0]  

 cryst.   s(14) = (     0          1          0      )
                  (     1          0          0      )
                  (     0          0          1      )

 cart.    s(14) = (  0.0000000  1.0000000  0.0000000 )
                  (  1.0000000  0.0000000  0.0000000 )
                  (  0.0000000  0.0000000  1.0000000 )


      isym = 15     inv.  90 deg rotation - cart. axis [0,0,-1]  

 cryst.   s(15) = (     0          1          0      )
                  (    -1          0          0      )
                  (     0          0         -1      )

 cart.    s(15) = (  0.0000000 -1.0000000  0.0000000 )
                  (  1.0000000  0.0000000  0.0000000 )
                  (  0.0000000  0.0000000 -1.0000000 )


      isym = 16     inv.  90 deg rotation - cart. axis [0,0,1]   

 cryst.   s(16) = (     0         -1          0      )
                  (     1          0          0      )
                  (     0          0         -1      )

 cart.    s(16) = (  0.0000000  1.0000000  0.0000000 )
                  ( -1.0000000  0.0000000  0.0000000 )
                  (  0.0000000  0.0000000 -1.0000000 )


   Cartesian axes

     site n.     atom                  positions (alat units)
         1           Al  tau(   1) = (   0.0000000   0.0000000   0.0000000  )
         2           Al  tau(   2) = (   0.5000000   0.5000000   0.0000000  )
         3           Al  tau(   3) = (   0.5000000   0.0000000   0.4075073  )
         4           Al  tau(   4) = (   0.0000000   0.5000000   0.4075073  )

   Crystallographic axes

     site n.     atom                  positions (cryst. coord.)
         1           Al  tau(   1) = (  0.0000000  0.0000000  0.0000000  )
         2           Al  tau(   2) = (  0.5000000  0.5000000  0.0000000  )
         3           Al  tau(   3) = (  0.5000000  0.0000000  0.5000000  )
         4           Al  tau(   4) = (  0.0000000  0.5000000  0.5000000  )

     number of k points=   660  Marzari-Vanderbilt smearing, width (Ry)=  0.0100
                       cart. coord. in units 2pi/alat
        k(    1) = (   0.0000000   0.0000000   0.0000000), wk =   0.0002806
        k(    2) = (   0.0000000   0.0000000   0.0557714), wk =   0.0005612
        k(    3) = (   0.0000000   0.0000000   0.1115429), wk =   0.0005612
        k(    4) = (   0.0000000   0.0000000   0.1673143), wk =   0.0005612
        k(    5) = (   0.0000000   0.0000000   0.2230858), wk =   0.0005612
        k(    6) = (   0.0000000   0.0000000   0.2788572), wk =   0.0005612
        k(    7) = (   0.0000000   0.0000000   0.3346287), wk =   0.0005612
        k(    8) = (   0.0000000   0.0000000   0.3904001), wk =   0.0005612
        k(    9) = (   0.0000000   0.0000000   0.4461716), wk =   0.0005612
        k(   10) = (   0.0000000   0.0000000   0.5019430), wk =   0.0005612
        k(   11) = (   0.0000000   0.0000000   0.5577145), wk =   0.0005612
        k(   12) = (   0.0000000   0.0000000  -0.6134859), wk =   0.0002806
        k(   13) = (   0.0000000   0.0555556   0.0000000), wk =   0.0011223
        k(   14) = (   0.0000000   0.0555556   0.0557714), wk =   0.0022447
        k(   15) = (   0.0000000   0.0555556   0.1115429), wk =   0.0022447
        k(   16) = (   0.0000000   0.0555556   0.1673143), wk =   0.0022447
        k(   17) = (   0.0000000   0.0555556   0.2230858), wk =   0.0022447
        k(   18) = (   0.0000000   0.0555556   0.2788572), wk =   0.0022447
        k(   19) = (   0.0000000   0.0555556   0.3346287), wk =   0.0022447
        k(   20) = (   0.0000000   0.0555556   0.3904001), wk =   0.0022447
        k(   21) = (   0.0000000   0.0555556   0.4461716), wk =   0.0022447
        k(   22) = (   0.0000000   0.0555556   0.5019430), wk =   0.0022447
        k(   23) = (   0.0000000   0.0555556   0.5577145), wk =   0.0022447
        k(   24) = (   0.0000000   0.0555556  -0.6134859), wk =   0.0011223
        k(   25) = (   0.0000000   0.1111111   0.0000000), wk =   0.0011223
        k(   26) = (   0.0000000   0.1111111   0.0557714), wk =   0.0022447
        k(   27) = (   0.0000000   0.1111111   0.1115429), wk =   0.0022447
        k(   28) = (   0.0000000   0.1111111   0.1673143), wk =   0.0022447
        k(   29) = (   0.0000000   0.1111111   0.2230858), wk =   0.0022447
        k(   30) = (   0.0000000   0.1111111   0.2788572), wk =   0.0022447
        k(   31) = (   0.0000000   0.1111111   0.3346287), wk =   0.0022447
        k(   32) = (   0.0000000   0.1111111   0.3904001), wk =   0.0022447
        k(   33) = (   0.0000000   0.1111111   0.4461716), wk =   0.0022447
        k(   34) = (   0.0000000   0.1111111   0.5019430), wk =   0.0022447
        k(   35) = (   0.0000000   0.1111111   0.5577145), wk =   0.0022447
        k(   36) = (   0.0000000   0.1111111  -0.6134859), wk =   0.0011223
        k(   37) = (   0.0000000   0.1666667   0.0000000), wk =   0.0011223
        k(   38) = (   0.0000000   0.1666667   0.0557714), wk =   0.0022447
        k(   39) = (   0.0000000   0.1666667   0.1115429), wk =   0.0022447
        k(   40) = (   0.0000000   0.1666667   0.1673143), wk =   0.0022447
        k(   41) = (   0.0000000   0.1666667   0.2230858), wk =   0.0022447
        k(   42) = (   0.0000000   0.1666667   0.2788572), wk =   0.0022447
        k(   43) = (   0.0000000   0.1666667   0.3346287), wk =   0.0022447
        k(   44) = (   0.0000000   0.1666667   0.3904001), wk =   0.0022447
        k(   45) = (   0.0000000   0.1666667   0.4461716), wk =   0.0022447
        k(   46) = (   0.0000000   0.1666667   0.5019430), wk =   0.0022447
        k(   47) = (   0.0000000   0.1666667   0.5577145), wk =   0.0022447
        k(   48) = (   0.0000000   0.1666667  -0.6134859), wk =   0.0011223
        k(   49) = (   0.0000000   0.2222222   0.0000000), wk =   0.0011223
        k(   50) = (   0.0000000   0.2222222   0.0557714), wk =   0.0022447
        k(   51) = (   0.0000000   0.2222222   0.1115429), wk =   0.0022447
        k(   52) = (   0.0000000   0.2222222   0.1673143), wk =   0.0022447
        k(   53) = (   0.0000000   0.2222222   0.2230858), wk =   0.0022447
        k(   54) = (   0.0000000   0.2222222   0.2788572), wk =   0.0022447
        k(   55) = (   0.0000000   0.2222222   0.3346287), wk =   0.0022447
        k(   56) = (   0.0000000   0.2222222   0.3904001), wk =   0.0022447
        k(   57) = (   0.0000000   0.2222222   0.4461716), wk =   0.0022447
        k(   58) = (   0.0000000   0.2222222   0.5019430), wk =   0.0022447
        k(   59) = (   0.0000000   0.2222222   0.5577145), wk =   0.0022447
        k(   60) = (   0.0000000   0.2222222  -0.6134859), wk =   0.0011223
        k(   61) = (   0.0000000   0.2777778   0.0000000), wk =   0.0011223
        k(   62) = (   0.0000000   0.2777778   0.0557714), wk =   0.0022447
        k(   63) = (   0.0000000   0.2777778   0.1115429), wk =   0.0022447
        k(   64) = (   0.0000000   0.2777778   0.1673143), wk =   0.0022447
        k(   65) = (   0.0000000   0.2777778   0.2230858), wk =   0.0022447
        k(   66) = (   0.0000000   0.2777778   0.2788572), wk =   0.0022447
        k(   67) = (   0.0000000   0.2777778   0.3346287), wk =   0.0022447
        k(   68) = (   0.0000000   0.2777778   0.3904001), wk =   0.0022447
        k(   69) = (   0.0000000   0.2777778   0.4461716), wk =   0.0022447
        k(   70) = (   0.0000000   0.2777778   0.5019430), wk =   0.0022447
        k(   71) = (   0.0000000   0.2777778   0.5577145), wk =   0.0022447
        k(   72) = (   0.0000000   0.2777778  -0.6134859), wk =   0.0011223
        k(   73) = (   0.0000000   0.3333333   0.0000000), wk =   0.0011223
        k(   74) = (   0.0000000   0.3333333   0.0557714), wk =   0.0022447
        k(   75) = (   0.0000000   0.3333333   0.1115429), wk =   0.0022447
        k(   76) = (   0.0000000   0.3333333   0.1673143), wk =   0.0022447
        k(   77) = (   0.0000000   0.3333333   0.2230858), wk =   0.0022447
        k(   78) = (   0.0000000   0.3333333   0.2788572), wk =   0.0022447
        k(   79) = (   0.0000000   0.3333333   0.3346287), wk =   0.0022447
        k(   80) = (   0.0000000   0.3333333   0.3904001), wk =   0.0022447
        k(   81) = (   0.0000000   0.3333333   0.4461716), wk =   0.0022447
        k(   82) = (   0.0000000   0.3333333   0.5019430), wk =   0.0022447
        k(   83) = (   0.0000000   0.3333333   0.5577145), wk =   0.0022447
        k(   84) = (   0.0000000   0.3333333  -0.6134859), wk =   0.0011223
        k(   85) = (   0.0000000   0.3888889   0.0000000), wk =   0.0011223
        k(   86) = (   0.0000000   0.3888889   0.0557714), wk =   0.0022447
        k(   87) = (   0.0000000   0.3888889   0.1115429), wk =   0.0022447
        k(   88) = (   0.0000000   0.3888889   0.1673143), wk =   0.0022447
        k(   89) = (   0.0000000   0.3888889   0.2230858), wk =   0.0022447
        k(   90) = (   0.0000000   0.3888889   0.2788572), wk =   0.0022447
        k(   91) = (   0.0000000   0.3888889   0.3346287), wk =   0.0022447
        k(   92) = (   0.0000000   0.3888889   0.3904001), wk =   0.0022447
        k(   93) = (   0.0000000   0.3888889   0.4461716), wk =   0.0022447
        k(   94) = (   0.0000000   0.3888889   0.5019430), wk =   0.0022447
        k(   95) = (   0.0000000   0.3888889   0.5577145), wk =   0.0022447
        k(   96) = (   0.0000000   0.3888889  -0.6134859), wk =   0.0011223
        k(   97) = (   0.0000000   0.4444444   0.0000000), wk =   0.0011223
        k(   98) = (   0.0000000   0.4444444   0.0557714), wk =   0.0022447
        k(   99) = (   0.0000000   0.4444444   0.1115429), wk =   0.0022447
        k(  100) = (   0.0000000   0.4444444   0.1673143), wk =   0.0022447
        k(  101) = (   0.0000000   0.4444444   0.2230858), wk =   0.0022447
        k(  102) = (   0.0000000   0.4444444   0.2788572), wk =   0.0022447
        k(  103) = (   0.0000000   0.4444444   0.3346287), wk =   0.0022447
        k(  104) = (   0.0000000   0.4444444   0.3904001), wk =   0.0022447
        k(  105) = (   0.0000000   0.4444444   0.4461716), wk =   0.0022447
        k(  106) = (   0.0000000   0.4444444   0.5019430), wk =   0.0022447
        k(  107) = (   0.0000000   0.4444444   0.5577145), wk =   0.0022447
        k(  108) = (   0.0000000   0.4444444  -0.6134859), wk =   0.0011223
        k(  109) = (   0.0000000  -0.5000000   0.0000000), wk =   0.0005612
        k(  110) = (   0.0000000  -0.5000000   0.0557714), wk =   0.0011223
        k(  111) = (   0.0000000  -0.5000000   0.1115429), wk =   0.0011223
        k(  112) = (   0.0000000  -0.5000000   0.1673143), wk =   0.0011223
        k(  113) = (   0.0000000  -0.5000000   0.2230858), wk =   0.0011223
        k(  114) = (   0.0000000  -0.5000000   0.2788572), wk =   0.0011223
        k(  115) = (   0.0000000  -0.5000000   0.3346287), wk =   0.0011223
        k(  116) = (   0.0000000  -0.5000000   0.3904001), wk =   0.0011223
        k(  117) = (   0.0000000  -0.5000000   0.4461716), wk =   0.0011223
        k(  118) = (   0.0000000  -0.5000000   0.5019430), wk =   0.0011223
        k(  119) = (   0.0000000  -0.5000000   0.5577145), wk =   0.0011223
        k(  120) = (   0.0000000  -0.5000000  -0.6134859), wk =   0.0005612
        k(  121) = (   0.0555556   0.0555556   0.0000000), wk =   0.0011223
        k(  122) = (   0.0555556   0.0555556   0.0557714), wk =   0.0022447
        k(  123) = (   0.0555556   0.0555556   0.1115429), wk =   0.0022447
        k(  124) = (   0.0555556   0.0555556   0.1673143), wk =   0.0022447
        k(  125) = (   0.0555556   0.0555556   0.2230858), wk =   0.0022447
        k(  126) = (   0.0555556   0.0555556   0.2788572), wk =   0.0022447
        k(  127) = (   0.0555556   0.0555556   0.3346287), wk =   0.0022447
        k(  128) = (   0.0555556   0.0555556   0.3904001), wk =   0.0022447
        k(  129) = (   0.0555556   0.0555556   0.4461716), wk =   0.0022447
        k(  130) = (   0.0555556   0.0555556   0.5019430), wk =   0.0022447
        k(  131) = (   0.0555556   0.0555556   0.5577145), wk =   0.0022447
        k(  132) = (   0.0555556   0.0555556  -0.6134859), wk =   0.0011223
        k(  133) = (   0.0555556   0.1111111   0.0000000), wk =   0.0022447
        k(  134) = (   0.0555556   0.1111111   0.0557714), wk =   0.0044893
        k(  135) = (   0.0555556   0.1111111   0.1115429), wk =   0.0044893
        k(  136) = (   0.0555556   0.1111111   0.1673143), wk =   0.0044893
        k(  137) = (   0.0555556   0.1111111   0.2230858), wk =   0.0044893
        k(  138) = (   0.0555556   0.1111111   0.2788572), wk =   0.0044893
        k(  139) = (   0.0555556   0.1111111   0.3346287), wk =   0.0044893
        k(  140) = (   0.0555556   0.1111111   0.3904001), wk =   0.0044893
        k(  141) = (   0.0555556   0.1111111   0.4461716), wk =   0.0044893
        k(  142) = (   0.0555556   0.1111111   0.5019430), wk =   0.0044893
        k(  143) = (   0.0555556   0.1111111   0.5577145), wk =   0.0044893
        k(  144) = (   0.0555556   0.1111111  -0.6134859), wk =   0.0022447
        k(  145) = (   0.0555556   0.1666667   0.0000000), wk =   0.0022447
        k(  146) = (   0.0555556   0.1666667   0.0557714), wk =   0.0044893
        k(  147) = (   0.0555556   0.1666667   0.1115429), wk =   0.0044893
        k(  148) = (   0.0555556   0.1666667   0.1673143), wk =   0.0044893
        k(  149) = (   0.0555556   0.1666667   0.2230858), wk =   0.0044893
        k(  150) = (   0.0555556   0.1666667   0.2788572), wk =   0.0044893
        k(  151) = (   0.0555556   0.1666667   0.3346287), wk =   0.0044893
        k(  152) = (   0.0555556   0.1666667   0.3904001), wk =   0.0044893
        k(  153) = (   0.0555556   0.1666667   0.4461716), wk =   0.0044893
        k(  154) = (   0.0555556   0.1666667   0.5019430), wk =   0.0044893
        k(  155) = (   0.0555556   0.1666667   0.5577145), wk =   0.0044893
        k(  156) = (   0.0555556   0.1666667  -0.6134859), wk =   0.0022447
        k(  157) = (   0.0555556   0.2222222   0.0000000), wk =   0.0022447
        k(  158) = (   0.0555556   0.2222222   0.0557714), wk =   0.0044893
        k(  159) = (   0.0555556   0.2222222   0.1115429), wk =   0.0044893
        k(  160) = (   0.0555556   0.2222222   0.1673143), wk =   0.0044893
        k(  161) = (   0.0555556   0.2222222   0.2230858), wk =   0.0044893
        k(  162) = (   0.0555556   0.2222222   0.2788572), wk =   0.0044893
        k(  163) = (   0.0555556   0.2222222   0.3346287), wk =   0.0044893
        k(  164) = (   0.0555556   0.2222222   0.3904001), wk =   0.0044893
        k(  165) = (   0.0555556   0.2222222   0.4461716), wk =   0.0044893
        k(  166) = (   0.0555556   0.2222222   0.5019430), wk =   0.0044893
        k(  167) = (   0.0555556   0.2222222   0.5577145), wk =   0.0044893
        k(  168) = (   0.0555556   0.2222222  -0.6134859), wk =   0.0022447
        k(  169) = (   0.0555556   0.2777778   0.0000000), wk =   0.0022447
        k(  170) = (   0.0555556   0.2777778   0.0557714), wk =   0.0044893
        k(  171) = (   0.0555556   0.2777778   0.1115429), wk =   0.0044893
        k(  172) = (   0.0555556   0.2777778   0.1673143), wk =   0.0044893
        k(  173) = (   0.0555556   0.2777778   0.2230858), wk =   0.0044893
        k(  174) = (   0.0555556   0.2777778   0.2788572), wk =   0.0044893
        k(  175) = (   0.0555556   0.2777778   0.3346287), wk =   0.0044893
        k(  176) = (   0.0555556   0.2777778   0.3904001), wk =   0.0044893
        k(  177) = (   0.0555556   0.2777778   0.4461716), wk =   0.0044893
        k(  178) = (   0.0555556   0.2777778   0.5019430), wk =   0.0044893
        k(  179) = (   0.0555556   0.2777778   0.5577145), wk =   0.0044893
        k(  180) = (   0.0555556   0.2777778  -0.6134859), wk =   0.0022447
        k(  181) = (   0.0555556   0.3333333   0.0000000), wk =   0.0022447
        k(  182) = (   0.0555556   0.3333333   0.0557714), wk =   0.0044893
        k(  183) = (   0.0555556   0.3333333   0.1115429), wk =   0.0044893
        k(  184) = (   0.0555556   0.3333333   0.1673143), wk =   0.0044893
        k(  185) = (   0.0555556   0.3333333   0.2230858), wk =   0.0044893
        k(  186) = (   0.0555556   0.3333333   0.2788572), wk =   0.0044893
        k(  187) = (   0.0555556   0.3333333   0.3346287), wk =   0.0044893
        k(  188) = (   0.0555556   0.3333333   0.3904001), wk =   0.0044893
        k(  189) = (   0.0555556   0.3333333   0.4461716), wk =   0.0044893
        k(  190) = (   0.0555556   0.3333333   0.5019430), wk =   0.0044893
        k(  191) = (   0.0555556   0.3333333   0.5577145), wk =   0.0044893
        k(  192) = (   0.0555556   0.3333333  -0.6134859), wk =   0.0022447
        k(  193) = (   0.0555556   0.3888889   0.0000000), wk =   0.0022447
        k(  194) = (   0.0555556   0.3888889   0.0557714), wk =   0.0044893
        k(  195) = (   0.0555556   0.3888889   0.1115429), wk =   0.0044893
        k(  196) = (   0.0555556   0.3888889   0.1673143), wk =   0.0044893
        k(  197) = (   0.0555556   0.3888889   0.2230858), wk =   0.0044893
        k(  198) = (   0.0555556   0.3888889   0.2788572), wk =   0.0044893
        k(  199) = (   0.0555556   0.3888889   0.3346287), wk =   0.0044893
        k(  200) = (   0.0555556   0.3888889   0.3904001), wk =   0.0044893
        k(  201) = (   0.0555556   0.3888889   0.4461716), wk =   0.0044893
        k(  202) = (   0.0555556   0.3888889   0.5019430), wk =   0.0044893
        k(  203) = (   0.0555556   0.3888889   0.5577145), wk =   0.0044893
        k(  204) = (   0.0555556   0.3888889  -0.6134859), wk =   0.0022447
        k(  205) = (   0.0555556   0.4444444   0.0000000), wk =   0.0022447
        k(  206) = (   0.0555556   0.4444444   0.0557714), wk =   0.0044893
        k(  207) = (   0.0555556   0.4444444   0.1115429), wk =   0.0044893
        k(  208) = (   0.0555556   0.4444444   0.1673143), wk =   0.0044893
        k(  209) = (   0.0555556   0.4444444   0.2230858), wk =   0.0044893
        k(  210) = (   0.0555556   0.4444444   0.2788572), wk =   0.0044893
        k(  211) = (   0.0555556   0.4444444   0.3346287), wk =   0.0044893
        k(  212) = (   0.0555556   0.4444444   0.3904001), wk =   0.0044893
        k(  213) = (   0.0555556   0.4444444   0.4461716), wk =   0.0044893
        k(  214) = (   0.0555556   0.4444444   0.5019430), wk =   0.0044893
        k(  215) = (   0.0555556   0.4444444   0.5577145), wk =   0.0044893
        k(  216) = (   0.0555556   0.4444444  -0.6134859), wk =   0.0022447
        k(  217) = (   0.0555556  -0.5000000   0.0000000), wk =   0.0011223
        k(  218) = (   0.0555556  -0.5000000   0.0557714), wk =   0.0022447
        k(  219) = (   0.0555556  -0.5000000   0.1115429), wk =   0.0022447
        k(  220) = (   0.0555556  -0.5000000   0.1673143), wk =   0.0022447
        k(  221) = (   0.0555556  -0.5000000   0.2230858), wk =   0.0022447
        k(  222) = (   0.0555556  -0.5000000   0.2788572), wk =   0.0022447
        k(  223) = (   0.0555556  -0.5000000   0.3346287), wk =   0.0022447
        k(  224) = (   0.0555556  -0.5000000   0.3904001), wk =   0.0022447
        k(  225) = (   0.0555556  -0.5000000   0.4461716), wk =   0.0022447
        k(  226) = (   0.0555556  -0.5000000   0.5019430), wk =   0.0022447
        k(  227) = (   0.0555556  -0.5000000   0.5577145), wk =   0.0022447
        k(  228) = (   0.0555556  -0.5000000  -0.6134859), wk =   0.0011223
        k(  229) = (   0.1111111   0.1111111   0.0000000), wk =   0.0011223
        k(  230) = (   0.1111111   0.1111111   0.0557714), wk =   0.0022447
        k(  231) = (   0.1111111   0.1111111   0.1115429), wk =   0.0022447
        k(  232) = (   0.1111111   0.1111111   0.1673143), wk =   0.0022447
        k(  233) = (   0.1111111   0.1111111   0.2230858), wk =   0.0022447
        k(  234) = (   0.1111111   0.1111111   0.2788572), wk =   0.0022447
        k(  235) = (   0.1111111   0.1111111   0.3346287), wk =   0.0022447
        k(  236) = (   0.1111111   0.1111111   0.3904001), wk =   0.0022447
        k(  237) = (   0.1111111   0.1111111   0.4461716), wk =   0.0022447
        k(  238) = (   0.1111111   0.1111111   0.5019430), wk =   0.0022447
        k(  239) = (   0.1111111   0.1111111   0.5577145), wk =   0.0022447
        k(  240) = (   0.1111111   0.1111111  -0.6134859), wk =   0.0011223
        k(  241) = (   0.1111111   0.1666667   0.0000000), wk =   0.0022447
        k(  242) = (   0.1111111   0.1666667   0.0557714), wk =   0.0044893
        k(  243) = (   0.1111111   0.1666667   0.1115429), wk =   0.0044893
        k(  244) = (   0.1111111   0.1666667   0.1673143), wk =   0.0044893
        k(  245) = (   0.1111111   0.1666667   0.2230858), wk =   0.0044893
        k(  246) = (   0.1111111   0.1666667   0.2788572), wk =   0.0044893
        k(  247) = (   0.1111111   0.1666667   0.3346287), wk =   0.0044893
        k(  248) = (   0.1111111   0.1666667   0.3904001), wk =   0.0044893
        k(  249) = (   0.1111111   0.1666667   0.4461716), wk =   0.0044893
        k(  250) = (   0.1111111   0.1666667   0.5019430), wk =   0.0044893
        k(  251) = (   0.1111111   0.1666667   0.5577145), wk =   0.0044893
        k(  252) = (   0.1111111   0.1666667  -0.6134859), wk =   0.0022447
        k(  253) = (   0.1111111   0.2222222   0.0000000), wk =   0.0022447
        k(  254) = (   0.1111111   0.2222222   0.0557714), wk =   0.0044893
        k(  255) = (   0.1111111   0.2222222   0.1115429), wk =   0.0044893
        k(  256) = (   0.1111111   0.2222222   0.1673143), wk =   0.0044893
        k(  257) = (   0.1111111   0.2222222   0.2230858), wk =   0.0044893
        k(  258) = (   0.1111111   0.2222222   0.2788572), wk =   0.0044893
        k(  259) = (   0.1111111   0.2222222   0.3346287), wk =   0.0044893
        k(  260) = (   0.1111111   0.2222222   0.3904001), wk =   0.0044893
        k(  261) = (   0.1111111   0.2222222   0.4461716), wk =   0.0044893
        k(  262) = (   0.1111111   0.2222222   0.5019430), wk =   0.0044893
        k(  263) = (   0.1111111   0.2222222   0.5577145), wk =   0.0044893
        k(  264) = (   0.1111111   0.2222222  -0.6134859), wk =   0.0022447
        k(  265) = (   0.1111111   0.2777778   0.0000000), wk =   0.0022447
        k(  266) = (   0.1111111   0.2777778   0.0557714), wk =   0.0044893
        k(  267) = (   0.1111111   0.2777778   0.1115429), wk =   0.0044893
        k(  268) = (   0.1111111   0.2777778   0.1673143), wk =   0.0044893
        k(  269) = (   0.1111111   0.2777778   0.2230858), wk =   0.0044893
        k(  270) = (   0.1111111   0.2777778   0.2788572), wk =   0.0044893
        k(  271) = (   0.1111111   0.2777778   0.3346287), wk =   0.0044893
        k(  272) = (   0.1111111   0.2777778   0.3904001), wk =   0.0044893
        k(  273) = (   0.1111111   0.2777778   0.4461716), wk =   0.0044893
        k(  274) = (   0.1111111   0.2777778   0.5019430), wk =   0.0044893
        k(  275) = (   0.1111111   0.2777778   0.5577145), wk =   0.0044893
        k(  276) = (   0.1111111   0.2777778  -0.6134859), wk =   0.0022447
        k(  277) = (   0.1111111   0.3333333   0.0000000), wk =   0.0022447
        k(  278) = (   0.1111111   0.3333333   0.0557714), wk =   0.0044893
        k(  279) = (   0.1111111   0.3333333   0.1115429), wk =   0.0044893
        k(  280) = (   0.1111111   0.3333333   0.1673143), wk =   0.0044893
        k(  281) = (   0.1111111   0.3333333   0.2230858), wk =   0.0044893
        k(  282) = (   0.1111111   0.3333333   0.2788572), wk =   0.0044893
        k(  283) = (   0.1111111   0.3333333   0.3346287), wk =   0.0044893
        k(  284) = (   0.1111111   0.3333333   0.3904001), wk =   0.0044893
        k(  285) = (   0.1111111   0.3333333   0.4461716), wk =   0.0044893
        k(  286) = (   0.1111111   0.3333333   0.5019430), wk =   0.0044893
        k(  287) = (   0.1111111   0.3333333   0.5577145), wk =   0.0044893
        k(  288) = (   0.1111111   0.3333333  -0.6134859), wk =   0.0022447
        k(  289) = (   0.1111111   0.3888889   0.0000000), wk =   0.0022447
        k(  290) = (   0.1111111   0.3888889   0.0557714), wk =   0.0044893
        k(  291) = (   0.1111111   0.3888889   0.1115429), wk =   0.0044893
        k(  292) = (   0.1111111   0.3888889   0.1673143), wk =   0.0044893
        k(  293) = (   0.1111111   0.3888889   0.2230858), wk =   0.0044893
        k(  294) = (   0.1111111   0.3888889   0.2788572), wk =   0.0044893
        k(  295) = (   0.1111111   0.3888889   0.3346287), wk =   0.0044893
        k(  296) = (   0.1111111   0.3888889   0.3904001), wk =   0.0044893
        k(  297) = (   0.1111111   0.3888889   0.4461716), wk =   0.0044893
        k(  298) = (   0.1111111   0.3888889   0.5019430), wk =   0.0044893
        k(  299) = (   0.1111111   0.3888889   0.5577145), wk =   0.0044893
        k(  300) = (   0.1111111   0.3888889  -0.6134859), wk =   0.0022447
        k(  301) = (   0.1111111   0.4444444   0.0000000), wk =   0.0022447
        k(  302) = (   0.1111111   0.4444444   0.0557714), wk =   0.0044893
        k(  303) = (   0.1111111   0.4444444   0.1115429), wk =   0.0044893
        k(  304) = (   0.1111111   0.4444444   0.1673143), wk =   0.0044893
        k(  305) = (   0.1111111   0.4444444   0.2230858), wk =   0.0044893
        k(  306) = (   0.1111111   0.4444444   0.2788572), wk =   0.0044893
        k(  307) = (   0.1111111   0.4444444   0.3346287), wk =   0.0044893
        k(  308) = (   0.1111111   0.4444444   0.3904001), wk =   0.0044893
        k(  309) = (   0.1111111   0.4444444   0.4461716), wk =   0.0044893
        k(  310) = (   0.1111111   0.4444444   0.5019430), wk =   0.0044893
        k(  311) = (   0.1111111   0.4444444   0.5577145), wk =   0.0044893
        k(  312) = (   0.1111111   0.4444444  -0.6134859), wk =   0.0022447
        k(  313) = (   0.1111111  -0.5000000   0.0000000), wk =   0.0011223
        k(  314) = (   0.1111111  -0.5000000   0.0557714), wk =   0.0022447
        k(  315) = (   0.1111111  -0.5000000   0.1115429), wk =   0.0022447
        k(  316) = (   0.1111111  -0.5000000   0.1673143), wk =   0.0022447
        k(  317) = (   0.1111111  -0.5000000   0.2230858), wk =   0.0022447
        k(  318) = (   0.1111111  -0.5000000   0.2788572), wk =   0.0022447
        k(  319) = (   0.1111111  -0.5000000   0.3346287), wk =   0.0022447
        k(  320) = (   0.1111111  -0.5000000   0.3904001), wk =   0.0022447
        k(  321) = (   0.1111111  -0.5000000   0.4461716), wk =   0.0022447
        k(  322) = (   0.1111111  -0.5000000   0.5019430), wk =   0.0022447
        k(  323) = (   0.1111111  -0.5000000   0.5577145), wk =   0.0022447
        k(  324) = (   0.1111111  -0.5000000  -0.6134859), wk =   0.0011223
        k(  325) = (   0.1666667   0.1666667   0.0000000), wk =   0.0011223
        k(  326) = (   0.1666667   0.1666667   0.0557714), wk =   0.0022447
        k(  327) = (   0.1666667   0.1666667   0.1115429), wk =   0.0022447
        k(  328) = (   0.1666667   0.1666667   0.1673143), wk =   0.0022447
        k(  329) = (   0.1666667   0.1666667   0.2230858), wk =   0.0022447
        k(  330) = (   0.1666667   0.1666667   0.2788572), wk =   0.0022447
        k(  331) = (   0.1666667   0.1666667   0.3346287), wk =   0.0022447
        k(  332) = (   0.1666667   0.1666667   0.3904001), wk =   0.0022447
        k(  333) = (   0.1666667   0.1666667   0.4461716), wk =   0.0022447
        k(  334) = (   0.1666667   0.1666667   0.5019430), wk =   0.0022447
        k(  335) = (   0.1666667   0.1666667   0.5577145), wk =   0.0022447
        k(  336) = (   0.1666667   0.1666667  -0.6134859), wk =   0.0011223
        k(  337) = (   0.1666667   0.2222222   0.0000000), wk =   0.0022447
        k(  338) = (   0.1666667   0.2222222   0.0557714), wk =   0.0044893
        k(  339) = (   0.1666667   0.2222222   0.1115429), wk =   0.0044893
        k(  340) = (   0.1666667   0.2222222   0.1673143), wk =   0.0044893
        k(  341) = (   0.1666667   0.2222222   0.2230858), wk =   0.0044893
        k(  342) = (   0.1666667   0.2222222   0.2788572), wk =   0.0044893
        k(  343) = (   0.1666667   0.2222222   0.3346287), wk =   0.0044893
        k(  344) = (   0.1666667   0.2222222   0.3904001), wk =   0.0044893
        k(  345) = (   0.1666667   0.2222222   0.4461716), wk =   0.0044893
        k(  346) = (   0.1666667   0.2222222   0.5019430), wk =   0.0044893
        k(  347) = (   0.1666667   0.2222222   0.5577145), wk =   0.0044893
        k(  348) = (   0.1666667   0.2222222  -0.6134859), wk =   0.0022447
        k(  349) = (   0.1666667   0.2777778   0.0000000), wk =   0.0022447
        k(  350) = (   0.1666667   0.2777778   0.0557714), wk =   0.0044893
        k(  351) = (   0.1666667   0.2777778   0.1115429), wk =   0.0044893
        k(  352) = (   0.1666667   0.2777778   0.1673143), wk =   0.0044893
        k(  353) = (   0.1666667   0.2777778   0.2230858), wk =   0.0044893
        k(  354) = (   0.1666667   0.2777778   0.2788572), wk =   0.0044893
        k(  355) = (   0.1666667   0.2777778   0.3346287), wk =   0.0044893
        k(  356) = (   0.1666667   0.2777778   0.3904001), wk =   0.0044893
        k(  357) = (   0.1666667   0.2777778   0.4461716), wk =   0.0044893
        k(  358) = (   0.1666667   0.2777778   0.5019430), wk =   0.0044893
        k(  359) = (   0.1666667   0.2777778   0.5577145), wk =   0.0044893
        k(  360) = (   0.1666667   0.2777778  -0.6134859), wk =   0.0022447
        k(  361) = (   0.1666667   0.3333333   0.0000000), wk =   0.0022447
        k(  362) = (   0.1666667   0.3333333   0.0557714), wk =   0.0044893
        k(  363) = (   0.1666667   0.3333333   0.1115429), wk =   0.0044893
        k(  364) = (   0.1666667   0.3333333   0.1673143), wk =   0.0044893
        k(  365) = (   0.1666667   0.3333333   0.2230858), wk =   0.0044893
        k(  366) = (   0.1666667   0.3333333   0.2788572), wk =   0.0044893
        k(  367) = (   0.1666667   0.3333333   0.3346287), wk =   0.0044893
        k(  368) = (   0.1666667   0.3333333   0.3904001), wk =   0.0044893
        k(  369) = (   0.1666667   0.3333333   0.4461716), wk =   0.0044893
        k(  370) = (   0.1666667   0.3333333   0.5019430), wk =   0.0044893
        k(  371) = (   0.1666667   0.3333333   0.5577145), wk =   0.0044893
        k(  372) = (   0.1666667   0.3333333  -0.6134859), wk =   0.0022447
        k(  373) = (   0.1666667   0.3888889   0.0000000), wk =   0.0022447
        k(  374) = (   0.1666667   0.3888889   0.0557714), wk =   0.0044893
        k(  375) = (   0.1666667   0.3888889   0.1115429), wk =   0.0044893
        k(  376) = (   0.1666667   0.3888889   0.1673143), wk =   0.0044893
        k(  377) = (   0.1666667   0.3888889   0.2230858), wk =   0.0044893
        k(  378) = (   0.1666667   0.3888889   0.2788572), wk =   0.0044893
        k(  379) = (   0.1666667   0.3888889   0.3346287), wk =   0.0044893
        k(  380) = (   0.1666667   0.3888889   0.3904001), wk =   0.0044893
        k(  381) = (   0.1666667   0.3888889   0.4461716), wk =   0.0044893
        k(  382) = (   0.1666667   0.3888889   0.5019430), wk =   0.0044893
        k(  383) = (   0.1666667   0.3888889   0.5577145), wk =   0.0044893
        k(  384) = (   0.1666667   0.3888889  -0.6134859), wk =   0.0022447
        k(  385) = (   0.1666667   0.4444444   0.0000000), wk =   0.0022447
        k(  386) = (   0.1666667   0.4444444   0.0557714), wk =   0.0044893
        k(  387) = (   0.1666667   0.4444444   0.1115429), wk =   0.0044893
        k(  388) = (   0.1666667   0.4444444   0.1673143), wk =   0.0044893
        k(  389) = (   0.1666667   0.4444444   0.2230858), wk =   0.0044893
        k(  390) = (   0.1666667   0.4444444   0.2788572), wk =   0.0044893
        k(  391) = (   0.1666667   0.4444444   0.3346287), wk =   0.0044893
        k(  392) = (   0.1666667   0.4444444   0.3904001), wk =   0.0044893
        k(  393) = (   0.1666667   0.4444444   0.4461716), wk =   0.0044893
        k(  394) = (   0.1666667   0.4444444   0.5019430), wk =   0.0044893
        k(  395) = (   0.1666667   0.4444444   0.5577145), wk =   0.0044893
        k(  396) = (   0.1666667   0.4444444  -0.6134859), wk =   0.0022447
        k(  397) = (   0.1666667  -0.5000000   0.0000000), wk =   0.0011223
        k(  398) = (   0.1666667  -0.5000000   0.0557714), wk =   0.0022447
        k(  399) = (   0.1666667  -0.5000000   0.1115429), wk =   0.0022447
        k(  400) = (   0.1666667  -0.5000000   0.1673143), wk =   0.0022447
        k(  401) = (   0.1666667  -0.5000000   0.2230858), wk =   0.0022447
        k(  402) = (   0.1666667  -0.5000000   0.2788572), wk =   0.0022447
        k(  403) = (   0.1666667  -0.5000000   0.3346287), wk =   0.0022447
        k(  404) = (   0.1666667  -0.5000000   0.3904001), wk =   0.0022447
        k(  405) = (   0.1666667  -0.5000000   0.4461716), wk =   0.0022447
        k(  406) = (   0.1666667  -0.5000000   0.5019430), wk =   0.0022447
        k(  407) = (   0.1666667  -0.5000000   0.5577145), wk =   0.0022447
        k(  408) = (   0.1666667  -0.5000000  -0.6134859), wk =   0.0011223
        k(  409) = (   0.2222222   0.2222222   0.0000000), wk =   0.0011223
        k(  410) = (   0.2222222   0.2222222   0.0557714), wk =   0.0022447
        k(  411) = (   0.2222222   0.2222222   0.1115429), wk =   0.0022447
        k(  412) = (   0.2222222   0.2222222   0.1673143), wk =   0.0022447
        k(  413) = (   0.2222222   0.2222222   0.2230858), wk =   0.0022447
        k(  414) = (   0.2222222   0.2222222   0.2788572), wk =   0.0022447
        k(  415) = (   0.2222222   0.2222222   0.3346287), wk =   0.0022447
        k(  416) = (   0.2222222   0.2222222   0.3904001), wk =   0.0022447
        k(  417) = (   0.2222222   0.2222222   0.4461716), wk =   0.0022447
        k(  418) = (   0.2222222   0.2222222   0.5019430), wk =   0.0022447
        k(  419) = (   0.2222222   0.2222222   0.5577145), wk =   0.0022447
        k(  420) = (   0.2222222   0.2222222  -0.6134859), wk =   0.0011223
        k(  421) = (   0.2222222   0.2777778   0.0000000), wk =   0.0022447
        k(  422) = (   0.2222222   0.2777778   0.0557714), wk =   0.0044893
        k(  423) = (   0.2222222   0.2777778   0.1115429), wk =   0.0044893
        k(  424) = (   0.2222222   0.2777778   0.1673143), wk =   0.0044893
        k(  425) = (   0.2222222   0.2777778   0.2230858), wk =   0.0044893
        k(  426) = (   0.2222222   0.2777778   0.2788572), wk =   0.0044893
        k(  427) = (   0.2222222   0.2777778   0.3346287), wk =   0.0044893
        k(  428) = (   0.2222222   0.2777778   0.3904001), wk =   0.0044893
        k(  429) = (   0.2222222   0.2777778   0.4461716), wk =   0.0044893
        k(  430) = (   0.2222222   0.2777778   0.5019430), wk =   0.0044893
        k(  431) = (   0.2222222   0.2777778   0.5577145), wk =   0.0044893
        k(  432) = (   0.2222222   0.2777778  -0.6134859), wk =   0.0022447
        k(  433) = (   0.2222222   0.3333333   0.0000000), wk =   0.0022447
        k(  434) = (   0.2222222   0.3333333   0.0557714), wk =   0.0044893
        k(  435) = (   0.2222222   0.3333333   0.1115429), wk =   0.0044893
        k(  436) = (   0.2222222   0.3333333   0.1673143), wk =   0.0044893
        k(  437) = (   0.2222222   0.3333333   0.2230858), wk =   0.0044893
        k(  438) = (   0.2222222   0.3333333   0.2788572), wk =   0.0044893
        k(  439) = (   0.2222222   0.3333333   0.3346287), wk =   0.0044893
        k(  440) = (   0.2222222   0.3333333   0.3904001), wk =   0.0044893
        k(  441) = (   0.2222222   0.3333333   0.4461716), wk =   0.0044893
        k(  442) = (   0.2222222   0.3333333   0.5019430), wk =   0.0044893
        k(  443) = (   0.2222222   0.3333333   0.5577145), wk =   0.0044893
        k(  444) = (   0.2222222   0.3333333  -0.6134859), wk =   0.0022447
        k(  445) = (   0.2222222   0.3888889   0.0000000), wk =   0.0022447
        k(  446) = (   0.2222222   0.3888889   0.0557714), wk =   0.0044893
        k(  447) = (   0.2222222   0.3888889   0.1115429), wk =   0.0044893
        k(  448) = (   0.2222222   0.3888889   0.1673143), wk =   0.0044893
        k(  449) = (   0.2222222   0.3888889   0.2230858), wk =   0.0044893
        k(  450) = (   0.2222222   0.3888889   0.2788572), wk =   0.0044893
        k(  451) = (   0.2222222   0.3888889   0.3346287), wk =   0.0044893
        k(  452) = (   0.2222222   0.3888889   0.3904001), wk =   0.0044893
        k(  453) = (   0.2222222   0.3888889   0.4461716), wk =   0.0044893
        k(  454) = (   0.2222222   0.3888889   0.5019430), wk =   0.0044893
        k(  455) = (   0.2222222   0.3888889   0.5577145), wk =   0.0044893
        k(  456) = (   0.2222222   0.3888889  -0.6134859), wk =   0.0022447
        k(  457) = (   0.2222222   0.4444444   0.0000000), wk =   0.0022447
        k(  458) = (   0.2222222   0.4444444   0.0557714), wk =   0.0044893
        k(  459) = (   0.2222222   0.4444444   0.1115429), wk =   0.0044893
        k(  460) = (   0.2222222   0.4444444   0.1673143), wk =   0.0044893
        k(  461) = (   0.2222222   0.4444444   0.2230858), wk =   0.0044893
        k(  462) = (   0.2222222   0.4444444   0.2788572), wk =   0.0044893
        k(  463) = (   0.2222222   0.4444444   0.3346287), wk =   0.0044893
        k(  464) = (   0.2222222   0.4444444   0.3904001), wk =   0.0044893
        k(  465) = (   0.2222222   0.4444444   0.4461716), wk =   0.0044893
        k(  466) = (   0.2222222   0.4444444   0.5019430), wk =   0.0044893
        k(  467) = (   0.2222222   0.4444444   0.5577145), wk =   0.0044893
        k(  468) = (   0.2222222   0.4444444  -0.6134859), wk =   0.0022447
        k(  469) = (   0.2222222  -0.5000000   0.0000000), wk =   0.0011223
        k(  470) = (   0.2222222  -0.5000000   0.0557714), wk =   0.0022447
        k(  471) = (   0.2222222  -0.5000000   0.1115429), wk =   0.0022447
        k(  472) = (   0.2222222  -0.5000000   0.1673143), wk =   0.0022447
        k(  473) = (   0.2222222  -0.5000000   0.2230858), wk =   0.0022447
        k(  474) = (   0.2222222  -0.5000000   0.2788572), wk =   0.0022447
        k(  475) = (   0.2222222  -0.5000000   0.3346287), wk =   0.0022447
        k(  476) = (   0.2222222  -0.5000000   0.3904001), wk =   0.0022447
        k(  477) = (   0.2222222  -0.5000000   0.4461716), wk =   0.0022447
        k(  478) = (   0.2222222  -0.5000000   0.5019430), wk =   0.0022447
        k(  479) = (   0.2222222  -0.5000000   0.5577145), wk =   0.0022447
        k(  480) = (   0.2222222  -0.5000000  -0.6134859), wk =   0.0011223
        k(  481) = (   0.2777778   0.2777778   0.0000000), wk =   0.0011223
        k(  482) = (   0.2777778   0.2777778   0.0557714), wk =   0.0022447
        k(  483) = (   0.2777778   0.2777778   0.1115429), wk =   0.0022447
        k(  484) = (   0.2777778   0.2777778   0.1673143), wk =   0.0022447
        k(  485) = (   0.2777778   0.2777778   0.2230858), wk =   0.0022447
        k(  486) = (   0.2777778   0.2777778   0.2788572), wk =   0.0022447
        k(  487) = (   0.2777778   0.2777778   0.3346287), wk =   0.0022447
        k(  488) = (   0.2777778   0.2777778   0.3904001), wk =   0.0022447
        k(  489) = (   0.2777778   0.2777778   0.4461716), wk =   0.0022447
        k(  490) = (   0.2777778   0.2777778   0.5019430), wk =   0.0022447
        k(  491) = (   0.2777778   0.2777778   0.5577145), wk =   0.0022447
        k(  492) = (   0.2777778   0.2777778  -0.6134859), wk =   0.0011223
        k(  493) = (   0.2777778   0.3333333   0.0000000), wk =   0.0022447
        k(  494) = (   0.2777778   0.3333333   0.0557714), wk =   0.0044893
        k(  495) = (   0.2777778   0.3333333   0.1115429), wk =   0.0044893
        k(  496) = (   0.2777778   0.3333333   0.1673143), wk =   0.0044893
        k(  497) = (   0.2777778   0.3333333   0.2230858), wk =   0.0044893
        k(  498) = (   0.2777778   0.3333333   0.2788572), wk =   0.0044893
        k(  499) = (   0.2777778   0.3333333   0.3346287), wk =   0.0044893
        k(  500) = (   0.2777778   0.3333333   0.3904001), wk =   0.0044893
        k(  501) = (   0.2777778   0.3333333   0.4461716), wk =   0.0044893
        k(  502) = (   0.2777778   0.3333333   0.5019430), wk =   0.0044893
        k(  503) = (   0.2777778   0.3333333   0.5577145), wk =   0.0044893
        k(  504) = (   0.2777778   0.3333333  -0.6134859), wk =   0.0022447
        k(  505) = (   0.2777778   0.3888889   0.0000000), wk =   0.0022447
        k(  506) = (   0.2777778   0.3888889   0.0557714), wk =   0.0044893
        k(  507) = (   0.2777778   0.3888889   0.1115429), wk =   0.0044893
        k(  508) = (   0.2777778   0.3888889   0.1673143), wk =   0.0044893
        k(  509) = (   0.2777778   0.3888889   0.2230858), wk =   0.0044893
        k(  510) = (   0.2777778   0.3888889   0.2788572), wk =   0.0044893
        k(  511) = (   0.2777778   0.3888889   0.3346287), wk =   0.0044893
        k(  512) = (   0.2777778   0.3888889   0.3904001), wk =   0.0044893
        k(  513) = (   0.2777778   0.3888889   0.4461716), wk =   0.0044893
        k(  514) = (   0.2777778   0.3888889   0.5019430), wk =   0.0044893
        k(  515) = (   0.2777778   0.3888889   0.5577145), wk =   0.0044893
        k(  516) = (   0.2777778   0.3888889  -0.6134859), wk =   0.0022447
        k(  517) = (   0.2777778   0.4444444   0.0000000), wk =   0.0022447
        k(  518) = (   0.2777778   0.4444444   0.0557714), wk =   0.0044893
        k(  519) = (   0.2777778   0.4444444   0.1115429), wk =   0.0044893
        k(  520) = (   0.2777778   0.4444444   0.1673143), wk =   0.0044893
        k(  521) = (   0.2777778   0.4444444   0.2230858), wk =   0.0044893
        k(  522) = (   0.2777778   0.4444444   0.2788572), wk =   0.0044893
        k(  523) = (   0.2777778   0.4444444   0.3346287), wk =   0.0044893
        k(  524) = (   0.2777778   0.4444444   0.3904001), wk =   0.0044893
        k(  525) = (   0.2777778   0.4444444   0.4461716), wk =   0.0044893
        k(  526) = (   0.2777778   0.4444444   0.5019430), wk =   0.0044893
        k(  527) = (   0.2777778   0.4444444   0.5577145), wk =   0.0044893
        k(  528) = (   0.2777778   0.4444444  -0.6134859), wk =   0.0022447
        k(  529) = (   0.2777778  -0.5000000   0.0000000), wk =   0.0011223
        k(  530) = (   0.2777778  -0.5000000   0.0557714), wk =   0.0022447
        k(  531) = (   0.2777778  -0.5000000   0.1115429), wk =   0.0022447
        k(  532) = (   0.2777778  -0.5000000   0.1673143), wk =   0.0022447
        k(  533) = (   0.2777778  -0.5000000   0.2230858), wk =   0.0022447
        k(  534) = (   0.2777778  -0.5000000   0.2788572), wk =   0.0022447
        k(  535) = (   0.2777778  -0.5000000   0.3346287), wk =   0.0022447
        k(  536) = (   0.2777778  -0.5000000   0.3904001), wk =   0.0022447
        k(  537) = (   0.2777778  -0.5000000   0.4461716), wk =   0.0022447
        k(  538) = (   0.2777778  -0.5000000   0.5019430), wk =   0.0022447
        k(  539) = (   0.2777778  -0.5000000   0.5577145), wk =   0.0022447
        k(  540) = (   0.2777778  -0.5000000  -0.6134859), wk =   0.0011223
        k(  541) = (   0.3333333   0.3333333   0.0000000), wk =   0.0011223
        k(  542) = (   0.3333333   0.3333333   0.0557714), wk =   0.0022447
        k(  543) = (   0.3333333   0.3333333   0.1115429), wk =   0.0022447
        k(  544) = (   0.3333333   0.3333333   0.1673143), wk =   0.0022447
        k(  545) = (   0.3333333   0.3333333   0.2230858), wk =   0.0022447
        k(  546) = (   0.3333333   0.3333333   0.2788572), wk =   0.0022447
        k(  547) = (   0.3333333   0.3333333   0.3346287), wk =   0.0022447
        k(  548) = (   0.3333333   0.3333333   0.3904001), wk =   0.0022447
        k(  549) = (   0.3333333   0.3333333   0.4461716), wk =   0.0022447
        k(  550) = (   0.3333333   0.3333333   0.5019430), wk =   0.0022447
        k(  551) = (   0.3333333   0.3333333   0.5577145), wk =   0.0022447
        k(  552) = (   0.3333333   0.3333333  -0.6134859), wk =   0.0011223
        k(  553) = (   0.3333333   0.3888889   0.0000000), wk =   0.0022447
        k(  554) = (   0.3333333   0.3888889   0.0557714), wk =   0.0044893
        k(  555) = (   0.3333333   0.3888889   0.1115429), wk =   0.0044893
        k(  556) = (   0.3333333   0.3888889   0.1673143), wk =   0.0044893
        k(  557) = (   0.3333333   0.3888889   0.2230858), wk =   0.0044893
        k(  558) = (   0.3333333   0.3888889   0.2788572), wk =   0.0044893
        k(  559) = (   0.3333333   0.3888889   0.3346287), wk =   0.0044893
        k(  560) = (   0.3333333   0.3888889   0.3904001), wk =   0.0044893
        k(  561) = (   0.3333333   0.3888889   0.4461716), wk =   0.0044893
        k(  562) = (   0.3333333   0.3888889   0.5019430), wk =   0.0044893
        k(  563) = (   0.3333333   0.3888889   0.5577145), wk =   0.0044893
        k(  564) = (   0.3333333   0.3888889  -0.6134859), wk =   0.0022447
        k(  565) = (   0.3333333   0.4444444   0.0000000), wk =   0.0022447
        k(  566) = (   0.3333333   0.4444444   0.0557714), wk =   0.0044893
        k(  567) = (   0.3333333   0.4444444   0.1115429), wk =   0.0044893
        k(  568) = (   0.3333333   0.4444444   0.1673143), wk =   0.0044893
        k(  569) = (   0.3333333   0.4444444   0.2230858), wk =   0.0044893
        k(  570) = (   0.3333333   0.4444444   0.2788572), wk =   0.0044893
        k(  571) = (   0.3333333   0.4444444   0.3346287), wk =   0.0044893
        k(  572) = (   0.3333333   0.4444444   0.3904001), wk =   0.0044893
        k(  573) = (   0.3333333   0.4444444   0.4461716), wk =   0.0044893
        k(  574) = (   0.3333333   0.4444444   0.5019430), wk =   0.0044893
        k(  575) = (   0.3333333   0.4444444   0.5577145), wk =   0.0044893
        k(  576) = (   0.3333333   0.4444444  -0.6134859), wk =   0.0022447
        k(  577) = (   0.3333333  -0.5000000   0.0000000), wk =   0.0011223
        k(  578) = (   0.3333333  -0.5000000   0.0557714), wk =   0.0022447
        k(  579) = (   0.3333333  -0.5000000   0.1115429), wk =   0.0022447
        k(  580) = (   0.3333333  -0.5000000   0.1673143), wk =   0.0022447
        k(  581) = (   0.3333333  -0.5000000   0.2230858), wk =   0.0022447
        k(  582) = (   0.3333333  -0.5000000   0.2788572), wk =   0.0022447
        k(  583) = (   0.3333333  -0.5000000   0.3346287), wk =   0.0022447
        k(  584) = (   0.3333333  -0.5000000   0.3904001), wk =   0.0022447
        k(  585) = (   0.3333333  -0.5000000   0.4461716), wk =   0.0022447
        k(  586) = (   0.3333333  -0.5000000   0.5019430), wk =   0.0022447
        k(  587) = (   0.3333333  -0.5000000   0.5577145), wk =   0.0022447
        k(  588) = (   0.3333333  -0.5000000  -0.6134859), wk =   0.0011223
        k(  589) = (   0.3888889   0.3888889   0.0000000), wk =   0.0011223
        k(  590) = (   0.3888889   0.3888889   0.0557714), wk =   0.0022447
        k(  591) = (   0.3888889   0.3888889   0.1115429), wk =   0.0022447
        k(  592) = (   0.3888889   0.3888889   0.1673143), wk =   0.0022447
        k(  593) = (   0.3888889   0.3888889   0.2230858), wk =   0.0022447
        k(  594) = (   0.3888889   0.3888889   0.2788572), wk =   0.0022447
        k(  595) = (   0.3888889   0.3888889   0.3346287), wk =   0.0022447
        k(  596) = (   0.3888889   0.3888889   0.3904001), wk =   0.0022447
        k(  597) = (   0.3888889   0.3888889   0.4461716), wk =   0.0022447
        k(  598) = (   0.3888889   0.3888889   0.5019430), wk =   0.0022447
        k(  599) = (   0.3888889   0.3888889   0.5577145), wk =   0.0022447
        k(  600) = (   0.3888889   0.3888889  -0.6134859), wk =   0.0011223
        k(  601) = (   0.3888889   0.4444444   0.0000000), wk =   0.0022447
        k(  602) = (   0.3888889   0.4444444   0.0557714), wk =   0.0044893
        k(  603) = (   0.3888889   0.4444444   0.1115429), wk =   0.0044893
        k(  604) = (   0.3888889   0.4444444   0.1673143), wk =   0.0044893
        k(  605) = (   0.3888889   0.4444444   0.2230858), wk =   0.0044893
        k(  606) = (   0.3888889   0.4444444   0.2788572), wk =   0.0044893
        k(  607) = (   0.3888889   0.4444444   0.3346287), wk =   0.0044893
        k(  608) = (   0.3888889   0.4444444   0.3904001), wk =   0.0044893
        k(  609) = (   0.3888889   0.4444444   0.4461716), wk =   0.0044893
        k(  610) = (   0.3888889   0.4444444   0.5019430), wk =   0.0044893
        k(  611) = (   0.3888889   0.4444444   0.5577145), wk =   0.0044893
        k(  612) = (   0.3888889   0.4444444  -0.6134859), wk =   0.0022447
        k(  613) = (   0.3888889  -0.5000000   0.0000000), wk =   0.0011223
        k(  614) = (   0.3888889  -0.5000000   0.0557714), wk =   0.0022447
        k(  615) = (   0.3888889  -0.5000000   0.1115429), wk =   0.0022447
        k(  616) = (   0.3888889  -0.5000000   0.1673143), wk =   0.0022447
        k(  617) = (   0.3888889  -0.5000000   0.2230858), wk =   0.0022447
        k(  618) = (   0.3888889  -0.5000000   0.2788572), wk =   0.0022447
        k(  619) = (   0.3888889  -0.5000000   0.3346287), wk =   0.0022447
        k(  620) = (   0.3888889  -0.5000000   0.3904001), wk =   0.0022447
        k(  621) = (   0.3888889  -0.5000000   0.4461716), wk =   0.0022447
        k(  622) = (   0.3888889  -0.5000000   0.5019430), wk =   0.0022447
        k(  623) = (   0.3888889  -0.5000000   0.5577145), wk =   0.0022447
        k(  624) = (   0.3888889  -0.5000000  -0.6134859), wk =   0.0011223
        k(  625) = (   0.4444444   0.4444444   0.0000000), wk =   0.0011223
        k(  626) = (   0.4444444   0.4444444   0.0557714), wk =   0.0022447
        k(  627) = (   0.4444444   0.4444444   0.1115429), wk =   0.0022447
        k(  628) = (   0.4444444   0.4444444   0.1673143), wk =   0.0022447
        k(  629) = (   0.4444444   0.4444444   0.2230858), wk =   0.0022447
        k(  630) = (   0.4444444   0.4444444   0.2788572), wk =   0.0022447
        k(  631) = (   0.4444444   0.4444444   0.3346287), wk =   0.0022447
        k(  632) = (   0.4444444   0.4444444   0.3904001), wk =   0.0022447
        k(  633) = (   0.4444444   0.4444444   0.4461716), wk =   0.0022447
        k(  634) = (   0.4444444   0.4444444   0.5019430), wk =   0.0022447
        k(  635) = (   0.4444444   0.4444444   0.5577145), wk =   0.0022447
        k(  636) = (   0.4444444   0.4444444  -0.6134859), wk =   0.0011223
        k(  637) = (   0.4444444  -0.5000000   0.0000000), wk =   0.0011223
        k(  638) = (   0.4444444  -0.5000000   0.0557714), wk =   0.0022447
        k(  639) = (   0.4444444  -0.5000000   0.1115429), wk =   0.0022447
        k(  640) = (   0.4444444  -0.5000000   0.1673143), wk =   0.0022447
        k(  641) = (   0.4444444  -0.5000000   0.2230858), wk =   0.0022447
        k(  642) = (   0.4444444  -0.5000000   0.2788572), wk =   0.0022447
        k(  643) = (   0.4444444  -0.5000000   0.3346287), wk =   0.0022447
        k(  644) = (   0.4444444  -0.5000000   0.3904001), wk =   0.0022447
        k(  645) = (   0.4444444  -0.5000000   0.4461716), wk =   0.0022447
        k(  646) = (   0.4444444  -0.5000000   0.5019430), wk =   0.0022447
        k(  647) = (   0.4444444  -0.5000000   0.5577145), wk =   0.0022447
        k(  648) = (   0.4444444  -0.5000000  -0.6134859), wk =   0.0011223
        k(  649) = (  -0.5000000  -0.5000000   0.0000000), wk =   0.0002806
        k(  650) = (  -0.5000000  -0.5000000   0.0557714), wk =   0.0005612
        k(  651) = (  -0.5000000  -0.5000000   0.1115429), wk =   0.0005612
        k(  652) = (  -0.5000000  -0.5000000   0.1673143), wk =   0.0005612
        k(  653) = (  -0.5000000  -0.5000000   0.2230858), wk =   0.0005612
        k(  654) = (  -0.5000000  -0.5000000   0.2788572), wk =   0.0005612
        k(  655) = (  -0.5000000  -0.5000000   0.3346287), wk =   0.0005612
        k(  656) = (  -0.5000000  -0.5000000   0.3904001), wk =   0.0005612
        k(  657) = (  -0.5000000  -0.5000000   0.4461716), wk =   0.0005612
        k(  658) = (  -0.5000000  -0.5000000   0.5019430), wk =   0.0005612
        k(  659) = (  -0.5000000  -0.5000000   0.5577145), wk =   0.0005612
        k(  660) = (  -0.5000000  -0.5000000  -0.6134859), wk =   0.0002806

                       cryst. coord.
        k(    1) = (   0.0000000   0.0000000   0.0000000), wk =   0.0002806
        k(    2) = (   0.0000000   0.0000000   0.0454545), wk =   0.0005612
        k(    3) = (   0.0000000   0.0000000   0.0909091), wk =   0.0005612
        k(    4) = (   0.0000000   0.0000000   0.1363636), wk =   0.0005612
        k(    5) = (   0.0000000   0.0000000   0.1818182), wk =   0.0005612
        k(    6) = (   0.0000000   0.0000000   0.2272727), wk =   0.0005612
        k(    7) = (   0.0000000   0.0000000   0.2727273), wk =   0.0005612
        k(    8) = (   0.0000000   0.0000000   0.3181818), wk =   0.0005612
        k(    9) = (   0.0000000   0.0000000   0.3636364), wk =   0.0005612
        k(   10) = (   0.0000000   0.0000000   0.4090909), wk =   0.0005612
        k(   11) = (   0.0000000   0.0000000   0.4545455), wk =   0.0005612
        k(   12) = (   0.0000000   0.0000000  -0.5000000), wk =   0.0002806
        k(   13) = (   0.0000000   0.0555556   0.0000000), wk =   0.0011223
        k(   14) = (   0.0000000   0.0555556   0.0454545), wk =   0.0022447
        k(   15) = (   0.0000000   0.0555556   0.0909091), wk =   0.0022447
        k(   16) = (   0.0000000   0.0555556   0.1363636), wk =   0.0022447
        k(   17) = (   0.0000000   0.0555556   0.1818182), wk =   0.0022447
        k(   18) = (   0.0000000   0.0555556   0.2272727), wk =   0.0022447
        k(   19) = (   0.0000000   0.0555556   0.2727273), wk =   0.0022447
        k(   20) = (   0.0000000   0.0555556   0.3181818), wk =   0.0022447
        k(   21) = (   0.0000000   0.0555556   0.3636364), wk =   0.0022447
        k(   22) = (   0.0000000   0.0555556   0.4090909), wk =   0.0022447
        k(   23) = (   0.0000000   0.0555556   0.4545455), wk =   0.0022447
        k(   24) = (   0.0000000   0.0555556  -0.5000000), wk =   0.0011223
        k(   25) = (   0.0000000   0.1111111   0.0000000), wk =   0.0011223
        k(   26) = (   0.0000000   0.1111111   0.0454545), wk =   0.0022447
        k(   27) = (   0.0000000   0.1111111   0.0909091), wk =   0.0022447
        k(   28) = (   0.0000000   0.1111111   0.1363636), wk =   0.0022447
        k(   29) = (   0.0000000   0.1111111   0.1818182), wk =   0.0022447
        k(   30) = (   0.0000000   0.1111111   0.2272727), wk =   0.0022447
        k(   31) = (   0.0000000   0.1111111   0.2727273), wk =   0.0022447
        k(   32) = (   0.0000000   0.1111111   0.3181818), wk =   0.0022447
        k(   33) = (   0.0000000   0.1111111   0.3636364), wk =   0.0022447
        k(   34) = (   0.0000000   0.1111111   0.4090909), wk =   0.0022447
        k(   35) = (   0.0000000   0.1111111   0.4545455), wk =   0.0022447
        k(   36) = (   0.0000000   0.1111111  -0.5000000), wk =   0.0011223
        k(   37) = (   0.0000000   0.1666667   0.0000000), wk =   0.0011223
        k(   38) = (   0.0000000   0.1666667   0.0454545), wk =   0.0022447
        k(   39) = (   0.0000000   0.1666667   0.0909091), wk =   0.0022447
        k(   40) = (   0.0000000   0.1666667   0.1363636), wk =   0.0022447
        k(   41) = (   0.0000000   0.1666667   0.1818182), wk =   0.0022447
        k(   42) = (   0.0000000   0.1666667   0.2272727), wk =   0.0022447
        k(   43) = (   0.0000000   0.1666667   0.2727273), wk =   0.0022447
        k(   44) = (   0.0000000   0.1666667   0.3181818), wk =   0.0022447
        k(   45) = (   0.0000000   0.1666667   0.3636364), wk =   0.0022447
        k(   46) = (   0.0000000   0.1666667   0.4090909), wk =   0.0022447
        k(   47) = (   0.0000000   0.1666667   0.4545455), wk =   0.0022447
        k(   48) = (   0.0000000   0.1666667  -0.5000000), wk =   0.0011223
        k(   49) = (   0.0000000   0.2222222   0.0000000), wk =   0.0011223
        k(   50) = (   0.0000000   0.2222222   0.0454545), wk =   0.0022447
        k(   51) = (   0.0000000   0.2222222   0.0909091), wk =   0.0022447
        k(   52) = (   0.0000000   0.2222222   0.1363636), wk =   0.0022447
        k(   53) = (   0.0000000   0.2222222   0.1818182), wk =   0.0022447
        k(   54) = (   0.0000000   0.2222222   0.2272727), wk =   0.0022447
        k(   55) = (   0.0000000   0.2222222   0.2727273), wk =   0.0022447
        k(   56) = (   0.0000000   0.2222222   0.3181818), wk =   0.0022447
        k(   57) = (   0.0000000   0.2222222   0.3636364), wk =   0.0022447
        k(   58) = (   0.0000000   0.2222222   0.4090909), wk =   0.0022447
        k(   59) = (   0.0000000   0.2222222   0.4545455), wk =   0.0022447
        k(   60) = (   0.0000000   0.2222222  -0.5000000), wk =   0.0011223
        k(   61) = (   0.0000000   0.2777778   0.0000000), wk =   0.0011223
        k(   62) = (   0.0000000   0.2777778   0.0454545), wk =   0.0022447
        k(   63) = (   0.0000000   0.2777778   0.0909091), wk =   0.0022447
        k(   64) = (   0.0000000   0.2777778   0.1363636), wk =   0.0022447
        k(   65) = (   0.0000000   0.2777778   0.1818182), wk =   0.0022447
        k(   66) = (   0.0000000   0.2777778   0.2272727), wk =   0.0022447
        k(   67) = (   0.0000000   0.2777778   0.2727273), wk =   0.0022447
        k(   68) = (   0.0000000   0.2777778   0.3181818), wk =   0.0022447
        k(   69) = (   0.0000000   0.2777778   0.3636364), wk =   0.0022447
        k(   70) = (   0.0000000   0.2777778   0.4090909), wk =   0.0022447
        k(   71) = (   0.0000000   0.2777778   0.4545455), wk =   0.0022447
        k(   72) = (   0.0000000   0.2777778  -0.5000000), wk =   0.0011223
        k(   73) = (   0.0000000   0.3333333   0.0000000), wk =   0.0011223
        k(   74) = (   0.0000000   0.3333333   0.0454545), wk =   0.0022447
        k(   75) = (   0.0000000   0.3333333   0.0909091), wk =   0.0022447
        k(   76) = (   0.0000000   0.3333333   0.1363636), wk =   0.0022447
        k(   77) = (   0.0000000   0.3333333   0.1818182), wk =   0.0022447
        k(   78) = (   0.0000000   0.3333333   0.2272727), wk =   0.0022447
        k(   79) = (   0.0000000   0.3333333   0.2727273), wk =   0.0022447
        k(   80) = (   0.0000000   0.3333333   0.3181818), wk =   0.0022447
        k(   81) = (   0.0000000   0.3333333   0.3636364), wk =   0.0022447
        k(   82) = (   0.0000000   0.3333333   0.4090909), wk =   0.0022447
        k(   83) = (   0.0000000   0.3333333   0.4545455), wk =   0.0022447
        k(   84) = (   0.0000000   0.3333333  -0.5000000), wk =   0.0011223
        k(   85) = (   0.0000000   0.3888889   0.0000000), wk =   0.0011223
        k(   86) = (   0.0000000   0.3888889   0.0454545), wk =   0.0022447
        k(   87) = (   0.0000000   0.3888889   0.0909091), wk =   0.0022447
        k(   88) = (   0.0000000   0.3888889   0.1363636), wk =   0.0022447
        k(   89) = (   0.0000000   0.3888889   0.1818182), wk =   0.0022447
        k(   90) = (   0.0000000   0.3888889   0.2272727), wk =   0.0022447
        k(   91) = (   0.0000000   0.3888889   0.2727273), wk =   0.0022447
        k(   92) = (   0.0000000   0.3888889   0.3181818), wk =   0.0022447
        k(   93) = (   0.0000000   0.3888889   0.3636364), wk =   0.0022447
        k(   94) = (   0.0000000   0.3888889   0.4090909), wk =   0.0022447
        k(   95) = (   0.0000000   0.3888889   0.4545455), wk =   0.0022447
        k(   96) = (   0.0000000   0.3888889  -0.5000000), wk =   0.0011223
        k(   97) = (   0.0000000   0.4444444   0.0000000), wk =   0.0011223
        k(   98) = (   0.0000000   0.4444444   0.0454545), wk =   0.0022447
        k(   99) = (   0.0000000   0.4444444   0.0909091), wk =   0.0022447
        k(  100) = (   0.0000000   0.4444444   0.1363636), wk =   0.0022447
        k(  101) = (   0.0000000   0.4444444   0.1818182), wk =   0.0022447
        k(  102) = (   0.0000000   0.4444444   0.2272727), wk =   0.0022447
        k(  103) = (   0.0000000   0.4444444   0.2727273), wk =   0.0022447
        k(  104) = (   0.0000000   0.4444444   0.3181818), wk =   0.0022447
        k(  105) = (   0.0000000   0.4444444   0.3636364), wk =   0.0022447
        k(  106) = (   0.0000000   0.4444444   0.4090909), wk =   0.0022447
        k(  107) = (   0.0000000   0.4444444   0.4545455), wk =   0.0022447
        k(  108) = (   0.0000000   0.4444444  -0.5000000), wk =   0.0011223
        k(  109) = (   0.0000000  -0.5000000   0.0000000), wk =   0.0005612
        k(  110) = (   0.0000000  -0.5000000   0.0454545), wk =   0.0011223
        k(  111) = (   0.0000000  -0.5000000   0.0909091), wk =   0.0011223
        k(  112) = (   0.0000000  -0.5000000   0.1363636), wk =   0.0011223
        k(  113) = (   0.0000000  -0.5000000   0.1818182), wk =   0.0011223
        k(  114) = (   0.0000000  -0.5000000   0.2272727), wk =   0.0011223
        k(  115) = (   0.0000000  -0.5000000   0.2727273), wk =   0.0011223
        k(  116) = (   0.0000000  -0.5000000   0.3181818), wk =   0.0011223
        k(  117) = (   0.0000000  -0.5000000   0.3636364), wk =   0.0011223
        k(  118) = (   0.0000000  -0.5000000   0.4090909), wk =   0.0011223
        k(  119) = (   0.0000000  -0.5000000   0.4545455), wk =   0.0011223
        k(  120) = (   0.0000000  -0.5000000  -0.5000000), wk =   0.0005612
        k(  121) = (   0.0555556   0.0555556   0.0000000), wk =   0.0011223
        k(  122) = (   0.0555556   0.0555556   0.0454545), wk =   0.0022447
        k(  123) = (   0.0555556   0.0555556   0.0909091), wk =   0.0022447
        k(  124) = (   0.0555556   0.0555556   0.1363636), wk =   0.0022447
        k(  125) = (   0.0555556   0.0555556   0.1818182), wk =   0.0022447
        k(  126) = (   0.0555556   0.0555556   0.2272727), wk =   0.0022447
        k(  127) = (   0.0555556   0.0555556   0.2727273), wk =   0.0022447
        k(  128) = (   0.0555556   0.0555556   0.3181818), wk =   0.0022447
        k(  129) = (   0.0555556   0.0555556   0.3636364), wk =   0.0022447
        k(  130) = (   0.0555556   0.0555556   0.4090909), wk =   0.0022447
        k(  131) = (   0.0555556   0.0555556   0.4545455), wk =   0.0022447
        k(  132) = (   0.0555556   0.0555556  -0.5000000), wk =   0.0011223
        k(  133) = (   0.0555556   0.1111111   0.0000000), wk =   0.0022447
        k(  134) = (   0.0555556   0.1111111   0.0454545), wk =   0.0044893
        k(  135) = (   0.0555556   0.1111111   0.0909091), wk =   0.0044893
        k(  136) = (   0.0555556   0.1111111   0.1363636), wk =   0.0044893
        k(  137) = (   0.0555556   0.1111111   0.1818182), wk =   0.0044893
        k(  138) = (   0.0555556   0.1111111   0.2272727), wk =   0.0044893
        k(  139) = (   0.0555556   0.1111111   0.2727273), wk =   0.0044893
        k(  140) = (   0.0555556   0.1111111   0.3181818), wk =   0.0044893
        k(  141) = (   0.0555556   0.1111111   0.3636364), wk =   0.0044893
        k(  142) = (   0.0555556   0.1111111   0.4090909), wk =   0.0044893
        k(  143) = (   0.0555556   0.1111111   0.4545455), wk =   0.0044893
        k(  144) = (   0.0555556   0.1111111  -0.5000000), wk =   0.0022447
        k(  145) = (   0.0555556   0.1666667   0.0000000), wk =   0.0022447
        k(  146) = (   0.0555556   0.1666667   0.0454545), wk =   0.0044893
        k(  147) = (   0.0555556   0.1666667   0.0909091), wk =   0.0044893
        k(  148) = (   0.0555556   0.1666667   0.1363636), wk =   0.0044893
        k(  149) = (   0.0555556   0.1666667   0.1818182), wk =   0.0044893
        k(  150) = (   0.0555556   0.1666667   0.2272727), wk =   0.0044893
        k(  151) = (   0.0555556   0.1666667   0.2727273), wk =   0.0044893
        k(  152) = (   0.0555556   0.1666667   0.3181818), wk =   0.0044893
        k(  153) = (   0.0555556   0.1666667   0.3636364), wk =   0.0044893
        k(  154) = (   0.0555556   0.1666667   0.4090909), wk =   0.0044893
        k(  155) = (   0.0555556   0.1666667   0.4545455), wk =   0.0044893
        k(  156) = (   0.0555556   0.1666667  -0.5000000), wk =   0.0022447
        k(  157) = (   0.0555556   0.2222222   0.0000000), wk =   0.0022447
        k(  158) = (   0.0555556   0.2222222   0.0454545), wk =   0.0044893
        k(  159) = (   0.0555556   0.2222222   0.0909091), wk =   0.0044893
        k(  160) = (   0.0555556   0.2222222   0.1363636), wk =   0.0044893
        k(  161) = (   0.0555556   0.2222222   0.1818182), wk =   0.0044893
        k(  162) = (   0.0555556   0.2222222   0.2272727), wk =   0.0044893
        k(  163) = (   0.0555556   0.2222222   0.2727273), wk =   0.0044893
        k(  164) = (   0.0555556   0.2222222   0.3181818), wk =   0.0044893
        k(  165) = (   0.0555556   0.2222222   0.3636364), wk =   0.0044893
        k(  166) = (   0.0555556   0.2222222   0.4090909), wk =   0.0044893
        k(  167) = (   0.0555556   0.2222222   0.4545455), wk =   0.0044893
        k(  168) = (   0.0555556   0.2222222  -0.5000000), wk =   0.0022447
        k(  169) = (   0.0555556   0.2777778   0.0000000), wk =   0.0022447
        k(  170) = (   0.0555556   0.2777778   0.0454545), wk =   0.0044893
        k(  171) = (   0.0555556   0.2777778   0.0909091), wk =   0.0044893
        k(  172) = (   0.0555556   0.2777778   0.1363636), wk =   0.0044893
        k(  173) = (   0.0555556   0.2777778   0.1818182), wk =   0.0044893
        k(  174) = (   0.0555556   0.2777778   0.2272727), wk =   0.0044893
        k(  175) = (   0.0555556   0.2777778   0.2727273), wk =   0.0044893
        k(  176) = (   0.0555556   0.2777778   0.3181818), wk =   0.0044893
        k(  177) = (   0.0555556   0.2777778   0.3636364), wk =   0.0044893
        k(  178) = (   0.0555556   0.2777778   0.4090909), wk =   0.0044893
        k(  179) = (   0.0555556   0.2777778   0.4545455), wk =   0.0044893
        k(  180) = (   0.0555556   0.2777778  -0.5000000), wk =   0.0022447
        k(  181) = (   0.0555556   0.3333333   0.0000000), wk =   0.0022447
        k(  182) = (   0.0555556   0.3333333   0.0454545), wk =   0.0044893
        k(  183) = (   0.0555556   0.3333333   0.0909091), wk =   0.0044893
        k(  184) = (   0.0555556   0.3333333   0.1363636), wk =   0.0044893
        k(  185) = (   0.0555556   0.3333333   0.1818182), wk =   0.0044893
        k(  186) = (   0.0555556   0.3333333   0.2272727), wk =   0.0044893
        k(  187) = (   0.0555556   0.3333333   0.2727273), wk =   0.0044893
        k(  188) = (   0.0555556   0.3333333   0.3181818), wk =   0.0044893
        k(  189) = (   0.0555556   0.3333333   0.3636364), wk =   0.0044893
        k(  190) = (   0.0555556   0.3333333   0.4090909), wk =   0.0044893
        k(  191) = (   0.0555556   0.3333333   0.4545455), wk =   0.0044893
        k(  192) = (   0.0555556   0.3333333  -0.5000000), wk =   0.0022447
        k(  193) = (   0.0555556   0.3888889   0.0000000), wk =   0.0022447
        k(  194) = (   0.0555556   0.3888889   0.0454545), wk =   0.0044893
        k(  195) = (   0.0555556   0.3888889   0.0909091), wk =   0.0044893
        k(  196) = (   0.0555556   0.3888889   0.1363636), wk =   0.0044893
        k(  197) = (   0.0555556   0.3888889   0.1818182), wk =   0.0044893
        k(  198) = (   0.0555556   0.3888889   0.2272727), wk =   0.0044893
        k(  199) = (   0.0555556   0.3888889   0.2727273), wk =   0.0044893
        k(  200) = (   0.0555556   0.3888889   0.3181818), wk =   0.0044893
        k(  201) = (   0.0555556   0.3888889   0.3636364), wk =   0.0044893
        k(  202) = (   0.0555556   0.3888889   0.4090909), wk =   0.0044893
        k(  203) = (   0.0555556   0.3888889   0.4545455), wk =   0.0044893
        k(  204) = (   0.0555556   0.3888889  -0.5000000), wk =   0.0022447
        k(  205) = (   0.0555556   0.4444444   0.0000000), wk =   0.0022447
        k(  206) = (   0.0555556   0.4444444   0.0454545), wk =   0.0044893
        k(  207) = (   0.0555556   0.4444444   0.0909091), wk =   0.0044893
        k(  208) = (   0.0555556   0.4444444   0.1363636), wk =   0.0044893
        k(  209) = (   0.0555556   0.4444444   0.1818182), wk =   0.0044893
        k(  210) = (   0.0555556   0.4444444   0.2272727), wk =   0.0044893
        k(  211) = (   0.0555556   0.4444444   0.2727273), wk =   0.0044893
        k(  212) = (   0.0555556   0.4444444   0.3181818), wk =   0.0044893
        k(  213) = (   0.0555556   0.4444444   0.3636364), wk =   0.0044893
        k(  214) = (   0.0555556   0.4444444   0.4090909), wk =   0.0044893
        k(  215) = (   0.0555556   0.4444444   0.4545455), wk =   0.0044893
        k(  216) = (   0.0555556   0.4444444  -0.5000000), wk =   0.0022447
        k(  217) = (   0.0555556  -0.5000000   0.0000000), wk =   0.0011223
        k(  218) = (   0.0555556  -0.5000000   0.0454545), wk =   0.0022447
        k(  219) = (   0.0555556  -0.5000000   0.0909091), wk =   0.0022447
        k(  220) = (   0.0555556  -0.5000000   0.1363636), wk =   0.0022447
        k(  221) = (   0.0555556  -0.5000000   0.1818182), wk =   0.0022447
        k(  222) = (   0.0555556  -0.5000000   0.2272727), wk =   0.0022447
        k(  223) = (   0.0555556  -0.5000000   0.2727273), wk =   0.0022447
        k(  224) = (   0.0555556  -0.5000000   0.3181818), wk =   0.0022447
        k(  225) = (   0.0555556  -0.5000000   0.3636364), wk =   0.0022447
        k(  226) = (   0.0555556  -0.5000000   0.4090909), wk =   0.0022447
        k(  227) = (   0.0555556  -0.5000000   0.4545455), wk =   0.0022447
        k(  228) = (   0.0555556  -0.5000000  -0.5000000), wk =   0.0011223
        k(  229) = (   0.1111111   0.1111111   0.0000000), wk =   0.0011223
        k(  230) = (   0.1111111   0.1111111   0.0454545), wk =   0.0022447
        k(  231) = (   0.1111111   0.1111111   0.0909091), wk =   0.0022447
        k(  232) = (   0.1111111   0.1111111   0.1363636), wk =   0.0022447
        k(  233) = (   0.1111111   0.1111111   0.1818182), wk =   0.0022447
        k(  234) = (   0.1111111   0.1111111   0.2272727), wk =   0.0022447
        k(  235) = (   0.1111111   0.1111111   0.2727273), wk =   0.0022447
        k(  236) = (   0.1111111   0.1111111   0.3181818), wk =   0.0022447
        k(  237) = (   0.1111111   0.1111111   0.3636364), wk =   0.0022447
        k(  238) = (   0.1111111   0.1111111   0.4090909), wk =   0.0022447
        k(  239) = (   0.1111111   0.1111111   0.4545455), wk =   0.0022447
        k(  240) = (   0.1111111   0.1111111  -0.5000000), wk =   0.0011223
        k(  241) = (   0.1111111   0.1666667   0.0000000), wk =   0.0022447
        k(  242) = (   0.1111111   0.1666667   0.0454545), wk =   0.0044893
        k(  243) = (   0.1111111   0.1666667   0.0909091), wk =   0.0044893
        k(  244) = (   0.1111111   0.1666667   0.1363636), wk =   0.0044893
        k(  245) = (   0.1111111   0.1666667   0.1818182), wk =   0.0044893
        k(  246) = (   0.1111111   0.1666667   0.2272727), wk =   0.0044893
        k(  247) = (   0.1111111   0.1666667   0.2727273), wk =   0.0044893
        k(  248) = (   0.1111111   0.1666667   0.3181818), wk =   0.0044893
[...]
    15.0477  15.1054

     occupation numbers 
     1.0000   1.0000   1.0000   1.0000   0.0000   0.0000   0.0000   0.0000
     0.0000   0.0000

          k = 0.3889 0.4444 0.0558 (   761 PWs)   bands (ev):

     0.6719   1.6516   2.6231   3.5866  12.0255  12.9082  13.8022  14.7042
    15.0730  15.3308

     occupation numbers 
     1.0000   1.0000   1.0000   1.0000   0.0000   0.0000   0.0000   0.0000
     0.0000   0.0000

          k = 0.3889 0.4444 0.1115 (   767 PWs)   bands (ev):

     0.7545   1.7334   2.7040   3.6662  11.1799  12.0732  12.9788  13.8945
    15.6941  15.9082

     occupation numbers 
     1.0000   1.0000   1.0000   1.0000   0.0000   0.0000   0.0000   0.0000
     0.0000   0.0000

          k = 0.3889 0.4444 0.1673 (   767 PWs)   bands (ev):

     0.8919   1.8695   2.8385   3.7984  10.2605  11.1639  12.0765  12.9970
    15.9468  16.5001

     occupation numbers 
     1.0000   1.0000   1.0000   1.0000   0.1425   0.0000   0.0000   0.0000
     0.0000   0.0000

          k = 0.3889 0.4444 0.2231 (   769 PWs)   bands (ev):

     1.0840   2.0597   3.0262   3.9823   9.3472  10.2575  11.1749  12.0982
    16.1738  16.7751

     occupation numbers 
     1.0000   1.0000   1.0000   1.0000   1.0000   0.1508   0.0000   0.0000
     0.0000   0.0000

          k = 0.3889 0.4444 0.2789 (   775 PWs)   bands (ev):

     1.3305   2.3036   3.2665   4.2161   8.4655   9.3786  10.2994  11.2248
    16.4199  17.0197

     occupation numbers 
     1.0000   1.0000   1.0000   1.0000   1.0000   1.0000   0.0633   0.0000
     0.0000   0.0000

          k = 0.3889 0.4444 0.3346 (   778 PWs)   bands (ev):

     1.6309   2.6004   3.5580   4.4954   7.6291   8.5386   9.4609  10.3881
    16.7005  17.2929

     occupation numbers 
     1.0000   1.0000   1.0000   1.0000   1.0000   1.0000   1.0000   0.0056
     0.0000   0.0000

          k = 0.3889 0.4444 0.3904 (   776 PWs)   bands (ev):

     1.9845   2.9493   3.8982   4.8070   6.8562   7.7451   8.6655   9.5937
    17.0199  17.6063

     occupation numbers 
     1.0000   1.0000   1.0000   1.0000   1.0000   1.0000   1.0000   1.0000
     0.0000   0.0000

          k = 0.3889 0.4444 0.4462 (   776 PWs)   bands (ev):

     2.3906   3.3483   4.2805   5.0856   6.2143   7.0072   7.9179   8.8454
    17.3786  17.9625

     occupation numbers 
     1.0000   1.0000   1.0000   1.0000   1.0000   1.0000   1.0000   1.0000
     0.0000   0.0000

          k = 0.3889 0.4444 0.5019 (   772 PWs)   bands (ev):

     2.8477   3.7939   4.6822   4.9958   6.0407   6.3496   7.2235   8.1460
    17.7713  18.3616

     occupation numbers 
     1.0000   1.0000   1.0000   1.0000   1.0000   1.0000   1.0000   1.0000
     0.0000   0.0000

          k = 0.3889 0.4444 0.5577 (   771 PWs)   bands (ev):

     3.3534   4.2759   4.4777   4.9708   5.9056   6.3960   6.5933   7.4989
    18.1831  18.8017

     occupation numbers 
     1.0000   1.0000   1.0000   1.0000   1.0000   1.0000   1.0000   1.0000
     0.0000   0.0000

          k = 0.3889 0.4444-0.6135 (   772 PWs)   bands (ev):

     3.9022   3.9022   4.7522   4.7522   6.0699   6.0699   6.9100   6.9100
    18.5609  18.5610

     occupation numbers 
     1.0000   1.0000   1.0000   1.0000   1.0000   1.0000   1.0000   1.0000
     0.0000   0.0000

          k = 0.3889-0.5000 0.0000 (   760 PWs)   bands (ev):

     1.1082   1.1083   3.0524   3.0525  12.8779  12.8779  14.6407  14.6407
    14.9108  14.9109

     occupation numbers 
     1.0000   1.0000   1.0000   1.0000   0.0000   0.0000   0.0000   0.0000
     0.0000   0.0000

          k = 0.3889-0.5000 0.0558 (   760 PWs)   bands (ev):

     1.1356   1.1357   3.0792   3.0793  12.4443  12.4443  14.2309  14.2309
    15.2984  15.2985

     occupation numbers 
     1.0000   1.0000   1.0000   1.0000   0.0000   0.0000   0.0000   0.0000
     0.0000   0.0000

          k = 0.3889-0.5000 0.1115 (   758 PWs)   bands (ev):

     1.2178   1.2179   3.1595   3.1596  11.6038  11.6039  13.4144  13.4144
    15.8843  15.8844

     occupation numbers 
     1.0000   1.0000   1.0000   1.0000   0.0000   0.0000   0.0000   0.0000
     0.0000   0.0000

          k = 0.3889-0.5000 0.1673 (   762 PWs)   bands (ev):

     1.3546   1.3547   3.2931   3.2932  10.6885  10.6886  12.5137  12.5137
    16.2420  16.2420

     occupation numbers 
     1.0000   1.0000   1.0000   1.0000   0.0000   0.0000   0.0000   0.0000
     0.0000   0.0000

          k = 0.3889-0.5000 0.2231 (   768 PWs)   bands (ev):

     1.5459   1.5460   3.4792   3.4793   9.7777   9.7778  11.6128  11.6128
    16.4947  16.4947

     occupation numbers 
     1.0000   1.0000   1.0000   1.0000   1.0011   1.0011   0.0000   0.0000
     0.0000   0.0000

          k = 0.3889-0.5000 0.2789 (   774 PWs)   bands (ev):

     1.7911   1.7913   3.7169   3.7170   8.8963   8.8964  10.7378  10.7378
    16.7473  16.7473

     occupation numbers 
     1.0000   1.0000   1.0000   1.0000   1.0000   1.0000   0.0000   0.0000
     0.0000   0.0000

          k = 0.3889-0.5000 0.3346 (   780 PWs)   bands (ev):

     2.0900   2.0901   4.0040   4.0041   8.0562   8.0563   9.8997   9.8997
    17.0294  17.0294

     occupation numbers 
     1.0000   1.0000   1.0000   1.0000   1.0000   1.0000   1.0278   1.0279
     0.0000   0.0000

          k = 0.3889-0.5000 0.3904 (   774 PWs)   bands (ev):

     2.4416   2.4417   4.3353   4.3354   7.2673   7.2674   9.1043   9.1044
    17.3499  17.3499

     occupation numbers 
     1.0000   1.0000   1.0000   1.0000   1.0000   1.0000   1.0000   1.0000
     0.0000   0.0000

          k = 0.3889-0.5000 0.4462 (   778 PWs)   bands (ev):

     2.8447   2.8448   4.6933   4.6934   6.5498   6.5499   8.3556   8.3556
    17.7112  17.7112

     occupation numbers 
     1.0000   1.0000   1.0000   1.0000   1.0000   1.0000   1.0000   1.0000
     0.0000   0.0000

          k = 0.3889-0.5000 0.5019 (   774 PWs)   bands (ev):

     3.2974   3.2975   4.9856   4.9857   5.9976   5.9977   7.6572   7.6573
    18.1120  18.1120

     occupation numbers 
     1.0000   1.0000   1.0000   1.0000   1.0000   1.0000   1.0000   1.0000
     0.0000   0.0000

          k = 0.3889-0.5000 0.5577 (   774 PWs)   bands (ev):

     3.7951   3.7952   4.8283   4.8284   5.9959   5.9960   7.0147   7.0148
    18.5471  18.5472

     occupation numbers 
     1.0000   1.0000   1.0000   1.0000   1.0000   1.0000   1.0000   1.0000
     0.0000   0.0000

          k = 0.3889-0.5000-0.6135 (   772 PWs)   bands (ev):

     4.3251   4.3251   4.3251   4.3252   6.4411   6.4412   6.4412   6.4413
    19.0002  19.0002

     occupation numbers 
     1.0000   1.0000   1.0000   1.0000   1.0000   1.0000   1.0000   1.0000
     0.0000   0.0000

          k = 0.4444 0.4444 0.0000 (   756 PWs)   bands (ev):

     1.0539   2.0306   2.0306   2.9993  12.8291  13.7107  13.7107  14.5920
    15.0734  15.8164

     occupation numbers 
     1.0000   1.0000   1.0000   1.0000   0.0000   0.0000   0.0000   0.0000
     0.0000   0.0000

          k = 0.4444 0.4444 0.0558 (   760 PWs)   bands (ev):

     1.0813   2.0578   2.0578   3.0261  12.3999  13.2891  13.2891  14.1861
    15.5319  16.1897

     occupation numbers 
     1.0000   1.0000   1.0000   1.0000   0.0000   0.0000   0.0000   0.0000
     0.0000   0.0000

          k = 0.4444 0.4444 0.1115 (   760 PWs)   bands (ev):

     1.1635   2.1392   2.1392   3.1065  11.5598  12.4603  12.4603  13.3704
    16.4541  16.7496

     occupation numbers 
     1.0000   1.0000   1.0000   1.0000   0.0000   0.0000   0.0000   0.0000
     0.0000   0.0000

          k = 0.4444 0.4444 0.1673 (   767 PWs)   bands (ev):

     1.3004   2.2746   2.2746   3.2401  10.6428  11.5518  11.5518  12.4685
    17.0847  17.3284

     occupation numbers 
     1.0000   1.0000   1.0000   1.0000   0.0000   0.0000   0.0000   0.0000
     0.0000   0.0000

          k = 0.4444 0.4444 0.2231 (   765 PWs)   bands (ev):

     1.4918   2.4639   2.4639   3.4264   9.7303  10.6453  10.6453  11.5662
    17.3266  17.4919

     occupation numbers 
     1.0000   1.0000   1.0000   1.0000   1.0002   0.0000   0.0000   0.0000
     0.0000   0.0000

          k = 0.4444 0.4444 0.2789 (   772 PWs)   bands (ev):

     1.7372   2.7063   2.7063   3.6642   8.8475   9.7661   9.7661  10.6900
    17.5723  17.7012

     occupation numbers 
     1.0000   1.0000   1.0000   1.0000   1.0000   1.0007   1.0007   0.0000
     0.0000   0.0000

          k = 0.4444 0.4444 0.3346 (   774 PWs)   bands (ev):

     2.0362   3.0011   3.0011   3.9515   8.0063   8.9250   8.9251   9.8510
    17.8480  17.9569

     occupation numbers 
     1.0000   1.0000   1.0000   1.0000   1.0000   1.0000   1.0000   1.0096
     0.0000   0.0000

          k = 0.4444 0.4444 0.3904 (   778 PWs)   bands (ev):

     2.3879   3.3467   3.3467   4.2829   7.2166   8.1286   8.1286   9.0548
    18.1599  18.2578

     occupation numbers 
     1.0000   1.0000   1.0000   1.0000   1.0000   1.0000   1.0000   1.0000
     0.0000   0.0000

          k = 0.4444 0.4444 0.4462 (   775 PWs)   bands (ev):

     2.7913   3.7401   3.7401   4.6412   6.4983   7.3826   7.3826   8.3055
    18.5071  18.6040

     occupation numbers 
     1.0000   1.0000   1.0000   1.0000   1.0000   1.0000   1.0000   1.0000
     0.0000   0.0000

          k = 0.4444 0.4444 0.5019 (   778 PWs)   bands (ev):

     3.2442   4.1733   4.1733   4.9339   5.9456   6.6966   6.6966   7.6066
    18.8792  18.9926

     occupation numbers 
     1.0000   1.0000   1.0000   1.0000   1.0000   1.0000   1.0000   1.0000
     0.0000   0.0000

          k = 0.4444 0.4444 0.5577 (   780 PWs)   bands (ev):

     3.7422   4.6156   4.6156   4.7763   5.9439   6.1023   6.1023   6.9636
    19.2375  19.2376

     occupation numbers 
     1.0000   1.0000   1.0000   1.0000   1.0000   1.0000   1.0000   1.0000
     0.0000   0.0000

          k = 0.4444 0.4444-0.6135 (   784 PWs)   bands (ev):

     4.2726   4.2726   4.8803   4.8803   5.7868   5.7869   6.3896   6.3897
    19.4248  19.4249

     occupation numbers 
     1.0000   1.0000   1.0000   1.0000   1.0000   1.0000   1.0000   1.0000
     0.0000   0.0000

          k = 0.4444-0.5000 0.0000 (   766 PWs)   bands (ev):

     1.5161   1.5162   2.4891   2.4892  13.2455  13.2455  14.1270  14.1270
    15.4819  15.4821

     occupation numbers 
     1.0000   1.0000   1.0000   1.0000   0.0000   0.0000   0.0000   0.0000
     0.0000   0.0000

          k = 0.4444-0.5000 0.0558 (   762 PWs)   bands (ev):

     1.5434   1.5435   2.5161   2.5162  12.8212  12.8212  13.7145  13.7145
    15.9201  15.9202

     occupation numbers 
     1.0000   1.0000   1.0000   1.0000   0.0000   0.0000   0.0000   0.0000
     0.0000   0.0000

          k = 0.4444-0.5000 0.1115 (   758 PWs)   bands (ev):

     1.6253   1.6254   2.5971   2.5972  11.9868  11.9868  12.8924  12.8924
    16.7394  16.7397

     occupation numbers 
     1.0000   1.0000   1.0000   1.0000   0.0000   0.0000   0.0000   0.0000
     0.0000   0.0000

          k = 0.4444-0.5000 0.1673 (   760 PWs)   bands (ev):

     1.7616   1.7617   2.7317   2.7318  11.0735  11.0735  11.9866  11.9867
    17.2892  17.2893

     occupation numbers 
     1.0000   1.0000   1.0000   1.0000   0.0000   0.0000   0.0000   0.0000
     0.0000   0.0000

          k = 0.4444-0.5000 0.2231 (   764 PWs)   bands (ev):

     1.9519   1.9521   2.9197   2.9198  10.1633  10.1634  11.0816  11.0817
    17.5456  17.5457

     occupation numbers 
     1.0000   1.0000   1.0000   1.0000   0.5675   0.5672   0.0000   0.0000
     0.0000   0.0000

          k = 0.4444-0.5000 0.2789 (   776 PWs)   bands (ev):

     2.1960   2.1962   3.1602   3.1603   9.2816   9.2817  10.2034  10.2035
    17.7837  17.7838

     occupation numbers 
     1.0000   1.0000   1.0000   1.0000   1.0000   1.0000   0.3572   0.3569
     0.0000   0.0000

          k = 0.4444-0.5000 0.3346 (   776 PWs)   bands (ev):

     2.4932   2.4933   3.4521   3.4522   8.4394   8.4395   9.3629   9.3629
    18.0526  18.0528

     occupation numbers 
     1.0000   1.0000   1.0000   1.0000   1.0000   1.0000   1.0000   1.0000
     0.0000   0.0000

          k = 0.4444-0.5000 0.3904 (   774 PWs)   bands (ev):

     2.8424   2.8425   3.7926   3.7927   7.6441   7.6442   8.5659   8.5659
    18.3612  18.3613

     occupation numbers 
     1.0000   1.0000   1.0000   1.0000   1.0000   1.0000   1.0000   1.0000
     0.0000   0.0000

          k = 0.4444-0.5000 0.4462 (   772 PWs)   bands (ev):

     3.2419   3.2421   4.1755   4.1756   6.9049   6.9050   7.8170   7.8170
    18.7101  18.7103

     occupation numbers 
     1.0000   1.0000   1.0000   1.0000   1.0000   1.0000   1.0000   1.0000
     0.0000   0.0000

          k = 0.4444-0.5000 0.5019 (   780 PWs)   bands (ev):

     3.6881   3.6882   4.5778   4.5779   6.2460   6.2461   7.1214   7.1215
    19.0962  19.0963

     occupation numbers 
     1.0000   1.0000   1.0000   1.0000   1.0000   1.0000   1.0000   1.0000
     0.0000   0.0000

          k = 0.4444-0.5000 0.5577 (   784 PWs)   bands (ev):

     4.1708   4.1709   4.8672   4.8673   5.8009   5.8010   6.4901   6.4902
    19.5076  19.5078

     occupation numbers 
     1.0000   1.0000   1.0000   1.0000   1.0000   1.0000   1.0000   1.0000
     0.0000   0.0000

          k = 0.4444-0.5000-0.6135 (   780 PWs)   bands (ev):

     4.6480   4.6480   4.6481   4.6481   5.9657   5.9658   5.9658   5.9659
    19.8982  19.8983

     occupation numbers 
     1.0000   1.0000   1.0000   1.0000   1.0000   1.0000   1.0000   1.0000
     0.0000   0.0000

          k =-0.5000-0.5000 0.0000 (   776 PWs)   bands (ev):

     1.9766   1.9768   1.9768   1.9769  13.6619  13.6619  13.6619  13.6619
    15.9825  15.9826

     occupation numbers 
     1.0000   1.0000   1.0000   1.0000   0.0000   0.0000   0.0000   0.0000
     0.0000   0.0000

          k =-0.5000-0.5000 0.0558 (   764 PWs)   bands (ev):

     2.0038   2.0039   2.0039   2.0040  13.2445  13.2445  13.2445  13.2445
    16.4302  16.4303

     occupation numbers 
     1.0000   1.0000   1.0000   1.0000   0.0000   0.0000   0.0000   0.0000
     0.0000   0.0000

          k =-0.5000-0.5000 0.1115 (   760 PWs)   bands (ev):

     2.0853   2.0854   2.0854   2.0855  12.4163  12.4163  12.4163  12.4163
    17.3438  17.3439

     occupation numbers 
     1.0000   1.0000   1.0000   1.0000   0.0000   0.0000   0.0000   0.0000
     0.0000   0.0000

          k =-0.5000-0.5000 0.1673 (   756 PWs)   bands (ev):

     2.2208   2.2209   2.2209   2.2210  11.5063  11.5063  11.5063  11.5064
    18.1265  18.1266

     occupation numbers 
     1.0000   1.0000   1.0000   1.0000   0.0000   0.0000   0.0000   0.0000
     0.0000   0.0000

          k =-0.5000-0.5000 0.2231 (   764 PWs)   bands (ev):

     2.4101   2.4102   2.4102   2.4104  10.5981  10.5982  10.5982  10.5983
    18.2887  18.2890

     occupation numbers 
     1.0000   1.0000   1.0000   1.0000   0.0000   0.0000   0.0000   0.0000
     0.0000   0.0000

          k =-0.5000-0.5000 0.2789 (   772 PWs)   bands (ev):

     2.6527   2.6528   2.6528   2.6529   9.7176   9.7177   9.7177   9.7178
    18.4970  18.4971

     occupation numbers 
     1.0000   1.0000   1.0000   1.0000   1.0001   1.0001   1.0001   1.0001
     0.0000   0.0000

          k =-0.5000-0.5000 0.3346 (   772 PWs)   bands (ev):

     2.9477   2.9478   2.9478   2.9479   8.8755   8.8756   8.8756   8.8757
    18.7500  18.7502

     occupation numbers 
     1.0000   1.0000   1.0000   1.0000   1.0000   1.0000   1.0000   1.0000
     0.0000   0.0000

          k =-0.5000-0.5000 0.3904 (   780 PWs)   bands (ev):

     3.2935   3.2936   3.2936   3.2937   8.0783   8.0784   8.0784   8.0784
    19.0467  19.0469

     occupation numbers 
     1.0000   1.0000   1.0000   1.0000   1.0000   1.0000   1.0000   1.0000
     0.0000   0.0000

          k =-0.5000-0.5000 0.4462 (   776 PWs)   bands (ev):

     3.6872   3.6873   3.6873   3.6874   7.3316   7.3317   7.3317   7.3318
    19.3833  19.3836

     occupation numbers 
     1.0000   1.0000   1.0000   1.0000   1.0000   1.0000   1.0000   1.0000
     0.0000   0.0000

          k =-0.5000-0.5000 0.5019 (   784 PWs)   bands (ev):

     4.1206   4.1207   4.1207   4.1208   6.6450   6.6451   6.6451   6.6452
    19.7511  19.7513

     occupation numbers 
     1.0000   1.0000   1.0000   1.0000   1.0000   1.0000   1.0000   1.0000
     0.0000   0.0000

          k =-0.5000-0.5000 0.5577 (   784 PWs)   bands (ev):

     4.5634   4.5635   4.5635   4.5636   6.0501   6.0502   6.0502   6.0503
    20.1147  20.1150

     occupation numbers 
     1.0000   1.0000   1.0000   1.0000   1.0000   1.0000   1.0000   1.0000
     0.0000   0.0000

          k =-0.5000-0.5000-0.6135 (   776 PWs)   bands (ev):

     4.8285   4.8286   4.8286   4.8287   5.7342   5.7343   5.7343   5.7344
    21.3006  21.3011

     occupation numbers 
     1.0000   1.0000   1.0000   1.0000   1.0000   1.0000   1.0000   1.0000
     0.0000   0.0000

     the Fermi energy is    10.1946 ev

!    total energy              =     -26.74390177 Ry
     Harris-Foulkes estimate   =     -26.74390181 Ry
     estimated scf accuracy    <       0.00000007 Ry

     The total energy is the sum of the following terms:

     one-electron contribution =      14.01863485 Ry
     hartree contribution      =       0.04119735 Ry
     xc contribution           =     -17.65431113 Ry
     ewald contribution        =     -23.14943757 Ry
     smearing contrib. (-TS)   =       0.00001472 Ry

     convergence has been achieved in   5 iterations
 
     init_run     :    287.64s CPU     45.67s WALL (       1 calls)
     electrons    :   2847.69s CPU    588.11s WALL (       1 calls)

     Called by init_run:
     wfcinit      :    287.24s CPU     45.12s WALL (       1 calls)
     wfcinit:atom :      0.93s CPU      0.13s WALL (     660 calls)
     wfcinit:wfcr :    282.17s CPU     44.42s WALL (     660 calls)
     potinit      :      0.05s CPU      0.04s WALL (       1 calls)

     Called by electrons:
     c_bands      :   2646.01s CPU    546.66s WALL (       6 calls)
     sum_band     :    200.07s CPU     41.13s WALL (       6 calls)
     v_of_rho     :      0.58s CPU      0.12s WALL (       6 calls)
     v_h          :      0.01s CPU      0.00s WALL (       6 calls)
     v_xc         :      0.58s CPU      0.12s WALL (       6 calls)
     newd         :      0.71s CPU      0.15s WALL (       6 calls)
     mix_rho      :      0.17s CPU      0.04s WALL (       6 calls)

     Called by c_bands:
     init_us_2    :     13.22s CPU      2.36s WALL (    8580 calls)
     cegterg      :   2614.41s CPU    541.18s WALL (    3960 calls)

     Called by sum_band:
     sum_band:bec :      0.61s CPU      0.12s WALL (    3960 calls)
     addusdens    :      0.50s CPU      0.10s WALL (       6 calls)

     Called by *egterg:
     h_psi        :   2073.37s CPU    418.45s WALL (   13681 calls)
     s_psi        :    178.05s CPU     35.15s WALL (   13681 calls)
     g_psi        :      2.40s CPU      0.41s WALL (    9061 calls)
     cdiaghg      :     72.77s CPU     14.18s WALL (   12361 calls)
     cegterg:over :    164.46s CPU     39.25s WALL (    9061 calls)
     cegterg:upda :    210.39s CPU     41.80s WALL (    9061 calls)
     cegterg:last :     54.50s CPU     10.83s WALL (    3962 calls)

     Called by h_psi:
     h_psi:pot    :   2070.02s CPU    417.87s WALL (   13681 calls)
     h_psi:calbec :    261.00s CPU     53.11s WALL (   13681 calls)
     vloc_psi     :   1596.88s CPU    322.28s WALL (   13681 calls)
     add_vuspsi   :    210.08s CPU     42.15s WALL (   13681 calls)

     General routines
     calbec       :    403.95s CPU     83.48s WALL (   17641 calls)
     fft          :      0.93s CPU      0.22s WALL (      80 calls)
     fftw         :   1601.58s CPU    323.64s WALL (  258876 calls)
 
     Parallel routines
 
     PWSCF        : 52m15.55s CPU    10m33.86s WALL

 
   This run was terminated on:  17:12:22  24Jan2019            

=------------------------------------------------------------------------------=
   JOB DONE.
=------------------------------------------------------------------------------=
