
     Program PWSCF v.6.2 (svn rev. 14038) starts on 31Jan2019 at  0:12:56 

     This program is part of the open-source Quantum ESPRESSO suite
     for quantum simulation of materials; please cite
         "P. Giannozzi et al., J. Phys.:Condens. Matter 21 395502 (2009);
         "P. Giannozzi et al., J. Phys.:Condens. Matter 29 465901 (2017);
          URL http://www.quantum-espresso.org", 
     in publications or presentations arising from this work. More details at
     http://www.quantum-espresso.org/quote

     Parallel version (MPI), running on     1 processors

     MPI processes distributed on     1 nodes
     Reading input from ./091c4a7d8ba5.in
Warning: card &CELL ignored
Warning: card / ignored

     Current dimensions of program PWSCF are:
     Max number of different atomic species (ntypx) = 10
     Max number of k-points (npk) =  40000
     Max angular momentum in pseudopotentials (lmaxx) =  3
     Message from routine iosys:
     minimal I/O required, wf_collect reset to FALSE

     Subspace diagonalization in iterative solution of the eigenvalue problem:
     a serial algorithm will be used

 
     G-vector sticks info
     --------------------
     sticks:   dense  smooth     PW     G-vecs:    dense   smooth      PW
     Sum         283     283     91                 3071     3071     609
 


     bravais-lattice index     =            0
     lattice parameter (alat)  =       5.3552  a.u.
     unit-cell volume          =     108.5965 (a.u.)^3
     number of atoms/cell      =            1
     number of atomic types    =            1
     number of electrons       =         4.00
     number of Kohn-Sham states=            6
     kinetic-energy cutoff     =      35.0000  Ry
     charge density cutoff     =     140.0000  Ry
     convergence threshold     =      1.0E-06
     mixing beta               =       0.7000
     number of iterations used =            8  plain     mixing
     Exchange-correlation      = SLA  PW   PBE  PBE ( 1  4  3  4 0 0)
     nstep                     =           50


     celldm(1)=   5.355215  celldm(2)=   0.000000  celldm(3)=   0.000000
     celldm(4)=   0.000000  celldm(5)=   0.000000  celldm(6)=   0.000000

     crystal axes: (cart. coord. in units of alat)
               a(1) = (   0.866025   0.000000   0.500000 )  
               a(2) = (   0.288675   0.816496   0.500000 )  
               a(3) = (   0.000000   0.000000   1.000000 )  

     reciprocal axes: (cart. coord. in units 2 pi/alat)
               b(1) = (  1.154701 -0.408248  0.000000 )  
               b(2) = (  0.000000  1.224745  0.000000 )  
               b(3) = ( -0.577350 -0.408248  1.000000 )  


     PseudoPot. # 1 for Si read from file:
     ./si_pbe_v1.uspp.F.UPF
     MD5 check sum: a056efeee980c13900f22a371efd63c1
     Pseudo is Ultrasoft + core correction, Zval =  4.0
     Generated by new atomic code, or converted to UPF format
     Using radial grid of  899 points,  6 beta functions with: 
                l(1) =   0
                l(2) =   0
                l(3) =   1
                l(4) =   1
                l(5) =   2
                l(6) =   2
     Q(r) pseudized with  8 coefficients,  rinner =    0.900   0.900   0.900
                                                       0.900   0.900

     atomic species   valence    mass     pseudopotential
        Si             4.00    28.08550     Si( 1.00)

      4 Sym. Ops., with inversion, found


                                    s                        frac. trans.

      isym =  1     identity                                     

 cryst.   s( 1) = (     1          0          0      )
                  (     0          1          0      )
                  (     0          0          1      )

 cart.    s( 1) = (  1.0000000  0.0000000  0.0000000 )
                  (  0.0000000  1.0000000  0.0000000 )
                  (  0.0000000  0.0000000  1.0000000 )


      isym =  2     180 deg rotation - cart. axis [0,0,1]        

 cryst.   s( 2) = (    -1          0          1      )
                  (     0         -1          1      )
                  (     0          0          1      )

 cart.    s( 2) = ( -1.0000000  0.0000000  0.0000000 )
                  (  0.0000000 -1.0000000  0.0000000 )
                  (  0.0000000  0.0000000  1.0000000 )


      isym =  3     inversion                                    

 cryst.   s( 3) = (    -1          0          0      )
                  (     0         -1          0      )
                  (     0          0         -1      )

 cart.    s( 3) = ( -1.0000000  0.0000000  0.0000000 )
                  (  0.0000000 -1.0000000  0.0000000 )
                  (  0.0000000  0.0000000 -1.0000000 )


      isym =  4     inv. 180 deg rotation - cart. axis [0,0,1]   

 cryst.   s( 4) = (     1          0         -1      )
                  (     0          1         -1      )
                  (     0          0         -1      )

 cart.    s( 4) = (  1.0000000  0.0000000  0.0000000 )
                  (  0.0000000  1.0000000  0.0000000 )
                  (  0.0000000  0.0000000 -1.0000000 )


   Cartesian axes

     site n.     atom                  positions (alat units)
         1           Si  tau(   1) = (   0.0000000   0.0000000   0.0000000  )

   Crystallographic axes

     site n.     atom                  positions (cryst. coord.)
         1           Si  tau(   1) = (  0.0000000  0.0000000  0.0000000  )

     number of k points=   476  Marzari-Vanderbilt smearing, width (Ry)=  0.0038
                       cart. coord. in units 2pi/alat
        k(    1) = (   0.0000000   0.0000000   0.0000000), wk =   0.0011574
        k(    2) = (  -0.0481125  -0.0340207   0.0833333), wk =   0.0046296
        k(    3) = (  -0.0962250  -0.0680414   0.1666667), wk =   0.0046296
        k(    4) = (  -0.1443376  -0.1020621   0.2500000), wk =   0.0046296
        k(    5) = (  -0.1924501  -0.1360828   0.3333333), wk =   0.0046296
        k(    6) = (  -0.2405626  -0.1701035   0.4166667), wk =   0.0046296
        k(    7) = (   0.2886751   0.2041242  -0.5000000), wk =   0.0023148
        k(    8) = (   0.0000000   0.1020621   0.0000000), wk =   0.0023148
        k(    9) = (  -0.0481125   0.0680414   0.0833333), wk =   0.0046296
        k(   10) = (  -0.0962250   0.0340207   0.1666667), wk =   0.0046296
        k(   11) = (  -0.1443376  -0.0000000   0.2500000), wk =   0.0046296
        k(   12) = (  -0.1924501  -0.0340207   0.3333333), wk =   0.0046296
        k(   13) = (  -0.2405626  -0.0680414   0.4166667), wk =   0.0046296
        k(   14) = (   0.2886751   0.3061863  -0.5000000), wk =   0.0046296
        k(   15) = (   0.2405626   0.2721656  -0.4166667), wk =   0.0046296
        k(   16) = (   0.1924501   0.2381449  -0.3333333), wk =   0.0046296
        k(   17) = (   0.1443376   0.2041242  -0.2500000), wk =   0.0046296
        k(   18) = (   0.0962250   0.1701035  -0.1666667), wk =   0.0046296
        k(   19) = (   0.0481125   0.1360828  -0.0833333), wk =   0.0046296
        k(   20) = (   0.0000000   0.2041242   0.0000000), wk =   0.0023148
        k(   21) = (  -0.0481125   0.1701035   0.0833333), wk =   0.0046296
        k(   22) = (  -0.0962250   0.1360828   0.1666667), wk =   0.0046296
        k(   23) = (  -0.1443376   0.1020621   0.2500000), wk =   0.0046296
        k(   24) = (  -0.1924501   0.0680414   0.3333333), wk =   0.0046296
        k(   25) = (  -0.2405626   0.0340207   0.4166667), wk =   0.0046296
        k(   26) = (   0.2886751   0.4082484  -0.5000000), wk =   0.0046296
        k(   27) = (   0.2405626   0.3742277  -0.4166667), wk =   0.0046296
        k(   28) = (   0.1924501   0.3402070  -0.3333333), wk =   0.0046296
        k(   29) = (   0.1443376   0.3061863  -0.2500000), wk =   0.0046296
        k(   30) = (   0.0962250   0.2721656  -0.1666667), wk =   0.0046296
        k(   31) = (   0.0481125   0.2381449  -0.0833333), wk =   0.0046296
        k(   32) = (   0.0000000   0.3061863   0.0000000), wk =   0.0023148
        k(   33) = (  -0.0481125   0.2721656   0.0833333), wk =   0.0046296
        k(   34) = (  -0.0962250   0.2381449   0.1666667), wk =   0.0046296
        k(   35) = (  -0.1443376   0.2041242   0.2500000), wk =   0.0046296
        k(   36) = (  -0.1924501   0.1701035   0.3333333), wk =   0.0046296
        k(   37) = (  -0.2405626   0.1360827   0.4166667), wk =   0.0046296
        k(   38) = (   0.2886751   0.5103105  -0.5000000), wk =   0.0046296
        k(   39) = (   0.2405626   0.4762898  -0.4166667), wk =   0.0046296
        k(   40) = (   0.1924501   0.4422691  -0.3333333), wk =   0.0046296
        k(   41) = (   0.1443376   0.4082484  -0.2500000), wk =   0.0046296
        k(   42) = (   0.0962250   0.3742277  -0.1666667), wk =   0.0046296
        k(   43) = (   0.0481125   0.3402070  -0.0833333), wk =   0.0046296
        k(   44) = (   0.0000000   0.4082484   0.0000000), wk =   0.0023148
        k(   45) = (  -0.0481125   0.3742277   0.0833333), wk =   0.0046296
        k(   46) = (  -0.0962250   0.3402069   0.1666667), wk =   0.0046296
        k(   47) = (  -0.1443376   0.3061862   0.2500000), wk =   0.0046296
        k(   48) = (  -0.1924501   0.2721655   0.3333333), wk =   0.0046296
        k(   49) = (  -0.2405626   0.2381448   0.4166667), wk =   0.0046296
        k(   50) = (   0.2886751   0.6123726  -0.5000000), wk =   0.0046296
        k(   51) = (   0.2405626   0.5783519  -0.4166667), wk =   0.0046296
        k(   52) = (   0.1924501   0.5443312  -0.3333333), wk =   0.0046296
        k(   53) = (   0.1443376   0.5103105  -0.2500000), wk =   0.0046296
        k(   54) = (   0.0962250   0.4762898  -0.1666667), wk =   0.0046296
        k(   55) = (   0.0481125   0.4422691  -0.0833333), wk =   0.0046296
        k(   56) = (   0.0000000   0.5103104   0.0000000), wk =   0.0023148
        k(   57) = (  -0.0481125   0.4762897   0.0833333), wk =   0.0046296
        k(   58) = (  -0.0962250   0.4422690   0.1666667), wk =   0.0046296
        k(   59) = (  -0.1443376   0.4082483   0.2500000), wk =   0.0046296
        k(   60) = (  -0.1924501   0.3742276   0.3333333), wk =   0.0046296
        k(   61) = (  -0.2405626   0.3402069   0.4166667), wk =   0.0046296
        k(   62) = (   0.2886751   0.7144347  -0.5000000), wk =   0.0046296
        k(   63) = (   0.2405626   0.6804140  -0.4166667), wk =   0.0046296
        k(   64) = (   0.1924501   0.6463933  -0.3333333), wk =   0.0046296
        k(   65) = (   0.1443376   0.6123726  -0.2500000), wk =   0.0046296
        k(   66) = (   0.0962250   0.5783518  -0.1666667), wk =   0.0046296
        k(   67) = (   0.0481125   0.5443311  -0.0833333), wk =   0.0046296
        k(   68) = (   0.0000000  -0.6123725   0.0000000), wk =   0.0011574
        k(   69) = (  -0.0481125  -0.6463932   0.0833333), wk =   0.0046296
        k(   70) = (  -0.0962250  -0.6804139   0.1666667), wk =   0.0046296
        k(   71) = (  -0.1443376  -0.7144346   0.2500000), wk =   0.0046296
        k(   72) = (  -0.1924501  -0.7484553   0.3333333), wk =   0.0046296
        k(   73) = (  -0.2405626  -0.7824760   0.4166667), wk =   0.0046296
        k(   74) = (   0.2886751  -0.4082483  -0.5000000), wk =   0.0023148
        k(   75) = (   0.0962250  -0.0340207   0.0000000), wk =   0.0023148
        k(   76) = (   0.0000000  -0.1020621   0.1666667), wk =   0.0046296
        k(   77) = (  -0.0481125  -0.1360828   0.2500000), wk =   0.0046296
        k(   78) = (  -0.0962250  -0.1701035   0.3333333), wk =   0.0046296
        k(   79) = (  -0.1443376  -0.2041242   0.4166667), wk =   0.0046296
        k(   80) = (   0.3849002   0.1701035  -0.5000000), wk =   0.0046296
        k(   81) = (   0.3367877   0.1360828  -0.4166667), wk =   0.0046296
        k(   82) = (   0.2886751   0.1020621  -0.3333333), wk =   0.0046296
        k(   83) = (   0.2405626   0.0680414  -0.2500000), wk =   0.0046296
        k(   84) = (   0.1924501   0.0340207  -0.1666667), wk =   0.0046296
        k(   85) = (   0.1443376   0.0000000  -0.0833333), wk =   0.0046296
        k(   86) = (   0.0962250   0.0680414   0.0000000), wk =   0.0023148
        k(   87) = (   0.0000000   0.0000000   0.1666667), wk =   0.0023148
        k(   88) = (  -0.0481125  -0.0340207   0.2500000), wk =   0.0046296
        k(   89) = (  -0.0962250  -0.0680414   0.3333333), wk =   0.0046296
        k(   90) = (  -0.1443376  -0.1020621   0.4166667), wk =   0.0046296
        k(   91) = (   0.3849002   0.2721656  -0.5000000), wk =   0.0046296
        k(   92) = (   0.3367877   0.2381449  -0.4166667), wk =   0.0046296
        k(   93) = (   0.2886751   0.2041242  -0.3333333), wk =   0.0046296
        k(   94) = (   0.2405626   0.1701035  -0.2500000), wk =   0.0046296
        k(   95) = (   0.1924501   0.1360828  -0.1666667), wk =   0.0046296
        k(   96) = (   0.1443376   0.1020621  -0.0833333), wk =   0.0046296
        k(   97) = (   0.0962250   0.1701035   0.0000000), wk =   0.0023148
        k(   98) = (  -0.0481125   0.0680414   0.2500000), wk =   0.0046296
        k(   99) = (  -0.0962250   0.0340207   0.3333333), wk =   0.0046296
        k(  100) = (  -0.1443376  -0.0000000   0.4166667), wk =   0.0046296
        k(  101) = (   0.3849002   0.3742277  -0.5000000), wk =   0.0046296
        k(  102) = (   0.3367877   0.3402070  -0.4166667), wk =   0.0046296
        k(  103) = (   0.2886751   0.3061863  -0.3333333), wk =   0.0046296
        k(  104) = (   0.2405626   0.2721656  -0.2500000), wk =   0.0046296
        k(  105) = (   0.1924501   0.2381449  -0.1666667), wk =   0.0046296
        k(  106) = (   0.1443376   0.2041242  -0.0833333), wk =   0.0046296
        k(  107) = (   0.0962250   0.2721656   0.0000000), wk =   0.0023148
        k(  108) = (   0.0000000   0.2041242   0.1666667), wk =   0.0046296
        k(  109) = (  -0.0481125   0.1701035   0.2500000), wk =   0.0046296
        k(  110) = (  -0.0962250   0.1360828   0.3333333), wk =   0.0046296
        k(  111) = (  -0.1443376   0.1020621   0.4166667), wk =   0.0046296
        k(  112) = (   0.3849002   0.4762898  -0.5000000), wk =   0.0046296
        k(  113) = (   0.3367877   0.4422691  -0.4166667), wk =   0.0046296
        k(  114) = (   0.2886751   0.4082484  -0.3333333), wk =   0.0046296
        k(  115) = (   0.2405626   0.3742277  -0.2500000), wk =   0.0046296
        k(  116) = (   0.1924501   0.3402070  -0.1666667), wk =   0.0046296
        k(  117) = (   0.1443376   0.3061863  -0.0833333), wk =   0.0046296
        k(  118) = (   0.0962250   0.3742277   0.0000000), wk =   0.0023148
        k(  119) = (   0.0000000   0.3061863   0.1666667), wk =   0.0046296
        k(  120) = (  -0.0481125   0.2721656   0.2500000), wk =   0.0046296
        k(  121) = (  -0.0962250   0.2381449   0.3333333), wk =   0.0046296
        k(  122) = (  -0.1443376   0.2041242   0.4166667), wk =   0.0046296
        k(  123) = (   0.3849002   0.5783519  -0.5000000), wk =   0.0046296
        k(  124) = (   0.3367877   0.5443312  -0.4166667), wk =   0.0046296
        k(  125) = (   0.2886751   0.5103105  -0.3333333), wk =   0.0046296
        k(  126) = (   0.2405626   0.4762898  -0.2500000), wk =   0.0046296
        k(  127) = (   0.1924501   0.4422691  -0.1666667), wk =   0.0046296
        k(  128) = (   0.1443376   0.4082484  -0.0833333), wk =   0.0046296
        k(  129) = (   0.0962250   0.4762898   0.0000000), wk =   0.0023148
        k(  130) = (   0.0000000   0.4082484   0.1666667), wk =   0.0046296
        k(  131) = (  -0.0481125   0.3742277   0.2500000), wk =   0.0046296
        k(  132) = (  -0.0962250   0.3402069   0.3333333), wk =   0.0046296
        k(  133) = (  -0.1443376   0.3061862   0.4166667), wk =   0.0046296
        k(  134) = (   0.3849002   0.6804140  -0.5000000), wk =   0.0046296
        k(  135) = (   0.3367877   0.6463933  -0.4166667), wk =   0.0046296
        k(  136) = (   0.2886751   0.6123726  -0.3333333), wk =   0.0046296
        k(  137) = (   0.2405626   0.5783519  -0.2500000), wk =   0.0046296
        k(  138) = (   0.1924501   0.5443312  -0.1666667), wk =   0.0046296
        k(  139) = (   0.1443376   0.5103105  -0.0833333), wk =   0.0046296
        k(  140) = (   0.0962250  -0.6463932   0.0000000), wk =   0.0023148
        k(  141) = (   0.0000000  -0.7144346   0.1666667), wk =   0.0046296
        k(  142) = (  -0.0481125  -0.7484553   0.2500000), wk =   0.0046296
        k(  143) = (  -0.0962250  -0.7824760   0.3333333), wk =   0.0046296
        k(  144) = (  -0.1443376  -0.8164967   0.4166667), wk =   0.0046296
        k(  145) = (   0.3849002  -0.4422690  -0.5000000), wk =   0.0046296
        k(  146) = (   0.3367877  -0.4762897  -0.4166667), wk =   0.0046296
        k(  147) = (   0.2886751  -0.5103104  -0.3333333), wk =   0.0046296
        k(  148) = (   0.2405626  -0.5443311  -0.2500000), wk =   0.0046296
        k(  149) = (   0.1924501  -0.5783518  -0.1666667), wk =   0.0046296
        k(  150) = (   0.1443376  -0.6123725  -0.0833333), wk =   0.0046296
        k(  151) = (   0.0962250  -0.5443311   0.0000000), wk =   0.0023148
        k(  152) = (   0.0000000  -0.6123725   0.1666667), wk =   0.0023148
        k(  153) = (  -0.0481125  -0.6463932   0.2500000), wk =   0.0046296
        k(  154) = (  -0.0962250  -0.6804139   0.3333333), wk =   0.0046296
        k(  155) = (  -0.1443376  -0.7144346   0.4166667), wk =   0.0046296
        k(  156) = (   0.3849002  -0.3402069  -0.5000000), wk =   0.0046296
        k(  157) = (   0.3367877  -0.3742276  -0.4166667), wk =   0.0046296
        k(  158) = (   0.2886751  -0.4082483  -0.3333333), wk =   0.0046296
        k(  159) = (   0.2405626  -0.4422690  -0.2500000), wk =   0.0046296
        k(  160) = (   0.1924501  -0.4762897  -0.1666667), wk =   0.0046296
        k(  161) = (   0.1443376  -0.5103104  -0.0833333), wk =   0.0046296
        k(  162) = (   0.0962250  -0.4422690   0.0000000), wk =   0.0023148
        k(  163) = (  -0.0481125  -0.5443311   0.2500000), wk =   0.0046296
        k(  164) = (  -0.0962250  -0.5783518   0.3333333), wk =   0.0046296
        k(  165) = (  -0.1443376  -0.6123726   0.4166667), wk =   0.0046296
        k(  166) = (   0.3849002  -0.2381448  -0.5000000), wk =   0.0046296
        k(  167) = (   0.3367877  -0.2721655  -0.4166667), wk =   0.0046296
        k(  168) = (   0.2886751  -0.3061862  -0.3333333), wk =   0.0046296
        k(  169) = (   0.2405626  -0.3402069  -0.2500000), wk =   0.0046296
        k(  170) = (   0.1924501  -0.3742276  -0.1666667), wk =   0.0046296
        k(  171) = (   0.1443376  -0.4082483  -0.0833333), wk =   0.0046296
        k(  172) = (   0.0962250  -0.3402069   0.0000000), wk =   0.0023148
        k(  173) = (  -0.0481125  -0.4422691   0.2500000), wk =   0.0046296
        k(  174) = (  -0.0962250  -0.4762898   0.3333333), wk =   0.0046296
        k(  175) = (  -0.1443376  -0.5103105   0.4166667), wk =   0.0046296
        k(  176) = (   0.3849002  -0.1360827  -0.5000000), wk =   0.0046296
        k(  177) = (   0.3367877  -0.1701034  -0.4166667), wk =   0.0046296
        k(  178) = (   0.2886751  -0.2041241  -0.3333333), wk =   0.0046296
        k(  179) = (   0.2405626  -0.2381448  -0.2500000), wk =   0.0046296
        k(  180) = (   0.1924501  -0.2721655  -0.1666667), wk =   0.0046296
        k(  181) = (   0.1443376  -0.3061862  -0.0833333), wk =   0.0046296
        k(  182) = (   0.0962250  -0.2381449   0.0000000), wk =   0.0023148
        k(  183) = (  -0.0481125  -0.3402070   0.2500000), wk =   0.0046296
        k(  184) = (  -0.0962250  -0.3742277   0.3333333), wk =   0.0046296
        k(  185) = (  -0.1443376  -0.4082484   0.4166667), wk =   0.0046296
        k(  186) = (   0.3849002  -0.0340206  -0.5000000), wk =   0.0046296
        k(  187) = (   0.3367877  -0.0680413  -0.4166667), wk =   0.0046296
        k(  188) = (   0.2886751  -0.1020620  -0.3333333), wk =   0.0046296
        k(  189) = (   0.2405626  -0.1360827  -0.2500000), wk =   0.0046296
        k(  190) = (   0.1924501  -0.1701035  -0.1666667), wk =   0.0046296
        k(  191) = (   0.1443376  -0.2041242  -0.0833333), wk =   0.0046296
        k(  192) = (   0.0962250  -0.1360828   0.0000000), wk =   0.0023148
        k(  193) = (  -0.0481125  -0.2381449   0.2500000), wk =   0.0046296
        k(  194) = (  -0.0962250  -0.2721656   0.3333333), wk =   0.0046296
        k(  195) = (  -0.1443376  -0.3061863   0.4166667), wk =   0.0046296
        k(  196) = (   0.3849002   0.0680414  -0.5000000), wk =   0.0046296
        k(  197) = (   0.3367877   0.0340207  -0.4166667), wk =   0.0046296
        k(  198) = (   0.2886751   0.0000000  -0.3333333), wk =   0.0046296
        k(  199) = (   0.2405626  -0.0340207  -0.2500000), wk =   0.0046296
        k(  200) = (   0.1924501  -0.0680414  -0.1666667), wk =   0.0046296
        k(  201) = (   0.1443376  -0.1020621  -0.0833333), wk =   0.0046296
        k(  202) = (   0.1924501  -0.0680414   0.0000000), wk =   0.0023148
        k(  203) = (   0.0000000  -0.2041242   0.3333333), wk =   0.0046296
        k(  204) = (  -0.0481125  -0.2381449   0.4166667), wk =   0.0046296
        k(  205) = (   0.4811252   0.1360829  -0.5000000), wk =   0.0046296
        k(  206) = (   0.4330127   0.1020622  -0.4166667), wk =   0.0046296
        k(  207) = (   0.3849002   0.0680414  -0.3333333), wk =   0.0046296
        k(  208) = (   0.3367877   0.0340207  -0.2500000), wk =   0.0046296
        k(  209) = (   0.2886751   0.0000000  -0.1666667), wk =   0.0046296
        k(  210) = (   0.2405626  -0.0340207  -0.0833333), wk =   0.0046296
        k(  211) = (   0.1924501   0.0340207   0.0000000), wk =   0.0023148
        k(  212) = (   0.0000000  -0.1020621   0.3333333), wk =   0.0046296
        k(  213) = (  -0.0481125  -0.1360828   0.4166667), wk =   0.0046296
        k(  214) = (   0.4811252   0.2381449  -0.5000000), wk =   0.0046296
        k(  215) = (   0.4330127   0.2041242  -0.4166667), wk =   0.0046296
        k(  216) = (   0.3849002   0.1701035  -0.3333333), wk =   0.0046296
        k(  217) = (   0.3367877   0.1360828  -0.2500000), wk =   0.0046296
        k(  218) = (   0.2886751   0.1020621  -0.1666667), wk =   0.0046296
        k(  219) = (   0.2405626   0.0680414  -0.0833333), wk =   0.0046296
        k(  220) = (   0.1924501   0.1360828   0.0000000), wk =   0.0023148
        k(  221) = (   0.0000000   0.0000000   0.3333333), wk =   0.0023148
        k(  222) = (  -0.0481125  -0.0340207   0.4166667), wk =   0.0046296
        k(  223) = (   0.4811252   0.3402070  -0.5000000), wk =   0.0046296
        k(  224) = (   0.4330127   0.3061863  -0.4166667), wk =   0.0046296
        k(  225) = (   0.3849002   0.2721656  -0.3333333), wk =   0.0046296
        k(  226) = (   0.3367877   0.2381449  -0.2500000), wk =   0.0046296
        k(  227) = (   0.2886751   0.2041242  -0.1666667), wk =   0.0046296
        k(  228) = (   0.2405626   0.1701035  -0.0833333), wk =   0.0046296
        k(  229) = (   0.1924501   0.2381449   0.0000000), wk =   0.0023148
        k(  230) = (  -0.0481125   0.0680414   0.4166667), wk =   0.0046296
        k(  231) = (   0.4811252   0.4422691  -0.5000000), wk =   0.0046296
        k(  232) = (   0.4330127   0.4082484  -0.4166667), wk =   0.0046296
        k(  233) = (   0.3849002   0.3742277  -0.3333333), wk =   0.0046296
        k(  234) = (   0.3367877   0.3402070  -0.2500000), wk =   0.0046296
        k(  235) = (   0.2886751   0.3061863  -0.1666667), wk =   0.0046296
        k(  236) = (   0.2405626   0.2721656  -0.0833333), wk =   0.0046296
        k(  237) = (   0.1924501   0.3402070   0.0000000), wk =   0.0023148
        k(  238) = (  -0.0481125   0.1701035   0.4166667), wk =   0.0046296
        k(  239) = (   0.4811252   0.5443312  -0.5000000), wk =   0.0046296
        k(  240) = (   0.4330127   0.5103105  -0.4166667), wk =   0.0046296
        k(  241) = (   0.3849002   0.4762898  -0.3333333), wk =   0.0046296
        k(  242) = (   0.3367877   0.4422691  -0.2500000), wk =   0.0046296
        k(  243) = (   0.2886751   0.4082484  -0.1666667), wk =   0.0046296
        k(  244) = (   0.2405626   0.3742277  -0.0833333), wk =   0.0046296
        k(  245) = (   0.1924501   0.4422691   0.0000000), wk =   0.0023148
        k(  246) = (   0.0000000   0.3061863   0.3333333), wk =   0.0046296
        k(  247) = (  -0.0481125   0.2721656   0.4166667), wk =   0.0046296
        k(  248) = (   0.4811252   0.6463933  -0.5000000), wk =   0.0046296
        k(  249) = (   0.4330127   0.6123726  -0.4166667), wk =   0.0046296
        k(  250) = (   0.3849002   0.5783519  -0.3333333), wk =   0.0046296
        k(  251) = (   0.3367877   0.5443312  -0.2500000), wk =   0.0046296
        k(  252) = (   0.2886751   0.5103105  -0.1666667), wk =   0.0046296
        k(  253) = (   0.2405626   0.4762898  -0.0833333), wk =   0.0046296
        k(  254) = (   0.1924501  -0.6804139   0.0000000), wk =   0.0023148
        k(  255) = (   0.0000000  -0.8164967   0.3333333), wk =   0.0046296
        k(  256) = (  -0.0481125  -0.8505174   0.4166667), wk =   0.0046296
        k(  257) = (   0.4811252  -0.4762897  -0.5000000), wk =   0.0046296
        k(  258) = (   0.4330127  -0.5103104  -0.4166667), wk =   0.0046296
        k(  259) = (   0.3849002  -0.5443311  -0.3333333), wk =   0.0046296
        k(  260) = (   0.3367877  -0.5783518  -0.2500000), wk =   0.0046296
        k(  261) = (   0.2886751  -0.6123725  -0.1666667), wk =   0.0046296
        k(  262) = (   0.2405626  -0.6463932  -0.0833333), wk =   0.0046296
        k(  263) = (   0.1924501  -0.5783518   0.0000000), wk =   0.0023148
        k(  264) = (   0.0000000  -0.7144346   0.3333333), wk =   0.0046296
        k(  265) = (  -0.0481125  -0.7484553   0.4166667), wk =   0.0046296
        k(  266) = (   0.4811252  -0.3742276  -0.5000000), wk =   0.0046296
        k(  267) = (   0.4330127  -0.4082483  -0.4166667), wk =   0.0046296
        k(  268) = (   0.3849002  -0.4422690  -0.3333333), wk =   0.0046296
        k(  269) = (   0.3367877  -0.4762897  -0.2500000), wk =   0.0046296
        k(  270) = (   0.2886751  -0.5103104  -0.1666667), wk =   0.0046296
        k(  271) = (   0.2405626  -0.5443311  -0.0833333), wk =   0.0046296
        k(  272) = (   0.1924501  -0.4762897   0.0000000), wk =   0.0023148
        k(  273) = (   0.0000000  -0.6123725   0.3333333), wk =   0.0023148
        k(  274) = (  -0.0481125  -0.6463932   0.4166667), wk =   0.0046296
        k(  275) = (   0.4811252  -0.2721655  -0.5000000), wk =   0.0046296
        k(  276) = (   0.4330127  -0.3061862  -0.4166667), wk =   0.0046296
        k(  277) = (   0.3849002  -0.3402069  -0.3333333), wk =   0.0046296
        k(  278) = (   0.3367877  -0.3742276  -0.2500000), wk =   0.0046296
        k(  279) = (   0.2886751  -0.4082483  -0.1666667), wk =   0.0046296
        k(  280) = (   0.2405626  -0.4422690  -0.0833333), wk =   0.0046296
        k(  281) = (   0.1924501  -0.3742276   0.0000000), wk =   0.0023148
        k(  282) = (  -0.0481125  -0.5443311   0.4166667), wk =   0.0046296
        k(  283) = (   0.4811252  -0.1701034  -0.5000000), wk =   0.0046296
        k(  284) = (   0.4330127  -0.2041241  -0.4166667), wk =   0.0046296
        k(  285) = (   0.3849002  -0.2381448  -0.3333333), wk =   0.0046296
        k(  286) = (   0.3367877  -0.2721655  -0.2500000), wk =   0.0046296
        k(  287) = (   0.2886751  -0.3061862  -0.1666667), wk =   0.0046296
        k(  288) = (   0.2405626  -0.3402069  -0.0833333), wk =   0.0046296
        k(  289) = (   0.1924501  -0.2721655   0.0000000), wk =   0.0023148
        k(  290) = (  -0.0481125  -0.4422691   0.4166667), wk =   0.0046296
        k(  291) = (   0.4811252  -0.0680413  -0.5000000), wk =   0.0046296
        k(  292) = (   0.4330127  -0.1020620  -0.4166667), wk =   0.0046296
        k(  293) = (   0.3849002  -0.1360827  -0.3333333), wk =   0.0046296
        k(  294) = (   0.3367877  -0.1701034  -0.2500000), wk =   0.0046296
        k(  295) = (   0.2886751  -0.2041241  -0.1666667), wk =   0.0046296
        k(  296) = (   0.2405626  -0.2381448  -0.0833333), wk =   0.0046296
        k(  297) = (   0.1924501  -0.1701035   0.0000000), wk =   0.0023148
        k(  298) = (  -0.0481125  -0.3402070   0.4166667), wk =   0.0046296
        k(  299) = (   0.4811252   0.0340208  -0.5000000), wk =   0.0046296
        k(  300) = (   0.4330127   0.0000001  -0.4166667), wk =   0.0046296
        k(  301) = (   0.3849002  -0.0340206  -0.3333333), wk =   0.0046296
        k(  302) = (   0.3367877  -0.0680413  -0.2500000), wk =   0.0046296
        k(  303) = (   0.2886751  -0.1020620  -0.1666667), wk =   0.0046296
        k(  304) = (   0.2405626  -0.1360827  -0.0833333), wk =   0.0046296
        k(  305) = (   0.2886751  -0.1020620   0.0000000), wk =   0.0023148
        k(  306) = (   0.5773503   0.1020622  -0.5000000), wk =   0.0046296
        k(  307) = (   0.5292377   0.0680415  -0.4166667), wk =   0.0046296
        k(  308) = (   0.4811252   0.0340208  -0.3333333), wk =   0.0046296
        k(  309) = (   0.4330127   0.0000001  -0.2500000), wk =   0.0046296
        k(  310) = (   0.3849002  -0.0340206  -0.1666667), wk =   0.0046296
        k(  311) = (   0.3367877  -0.0680413  -0.0833333), wk =   0.0046296
        k(  312) = (   0.2886751   0.0000000   0.0000000), wk =   0.0023148
        k(  313) = (   0.5773503   0.2041243  -0.5000000), wk =   0.0046296
        k(  314) = (   0.5292377   0.1701036  -0.4166667), wk =   0.0046296
        k(  315) = (   0.4811252   0.1360829  -0.3333333), wk =   0.0046296
        k(  316) = (   0.4330127   0.1020622  -0.2500000), wk =   0.0046296
        k(  317) = (   0.3849002   0.0680414  -0.1666667), wk =   0.0046296
        k(  318) = (   0.3367877   0.0340207  -0.0833333), wk =   0.0046296
        k(  319) = (   0.2886751   0.1020621   0.0000000), wk =   0.0023148
        k(  320) = (   0.5773503   0.3061863  -0.5000000), wk =   0.0046296
        k(  321) = (   0.5292377   0.2721656  -0.4166667), wk =   0.0046296
        k(  322) = (   0.4811252   0.2381449  -0.3333333), wk =   0.0046296
        k(  323) = (   0.4330127   0.2041242  -0.2500000), wk =   0.0046296
        k(  324) = (   0.3849002   0.1701035  -0.1666667), wk =   0.0046296
        k(  325) = (   0.3367877   0.1360828  -0.0833333), wk =   0.0046296
        k(  326) = (   0.2886751   0.2041242   0.0000000), wk =   0.0023148
        k(  327) = (   0.5773503   0.4082484  -0.5000000), wk =   0.0023148
        k(  328) = (   0.5292377   0.3742277  -0.4166667), wk =   0.0046296
        k(  329) = (   0.4811252   0.3402070  -0.3333333), wk =   0.0046296
        k(  330) = (   0.4330127   0.3061863  -0.2500000), wk =   0.0046296
        k(  331) = (   0.3849002   0.2721656  -0.1666667), wk =   0.0046296
        k(  332) = (   0.3367877   0.2381449  -0.0833333), wk =   0.0046296
        k(  333) = (   0.2886751   0.3061863   0.0000000), wk =   0.0023148
        k(  334) = (   0.5292377   0.4762898  -0.4166667), wk =   0.0046296
        k(  335) = (   0.4811252   0.4422691  -0.3333333), wk =   0.0046296
        k(  336) = (   0.4330127   0.4082484  -0.2500000), wk =   0.0046296
        k(  337) = (   0.3849002   0.3742277  -0.1666667), wk =   0.0046296
        k(  338) = (   0.3367877   0.3402070  -0.0833333), wk =   0.0046296
        k(  339) = (   0.2886751   0.4082484   0.0000000), wk =   0.0023148
        k(  340) = (   0.5292377   0.5783519  -0.4166667), wk =   0.0046296
        k(  341) = (   0.4811252   0.5443312  -0.3333333), wk =   0.0046296
        k(  342) = (   0.4330127   0.5103105  -0.2500000), wk =   0.0046296
        k(  343) = (   0.3849002   0.4762898  -0.1666667), wk =   0.0046296
        k(  344) = (   0.3367877   0.4422691  -0.0833333), wk =   0.0046296
        k(  345) = (   0.2886751  -0.7144346   0.0000000), wk =   0.0023148
        k(  346) = (   0.5292377  -0.5443311  -0.4166667), wk =   0.0046296
        k(  347) = (   0.4811252  -0.5783518  -0.3333333), wk =   0.0046296
        k(  348) = (   0.4330127  -0.6123725  -0.2500000), wk =   0.0046296
        k(  349) = (   0.3849002  -0.6463932  -0.1666667), wk =   0.0046296
        k(  350) = (   0.3367877  -0.6804139  -0.0833333), wk =   0.0046296
        k(  351) = (   0.2886751  -0.6123725   0.0000000), wk =   0.0023148
        k(  352) = (   0.5773503  -0.4082483  -0.5000000), wk =   0.0046296
        k(  353) = (   0.5292377  -0.4422690  -0.4166667), wk =   0.0046296
        k(  354) = (   0.4811252  -0.4762897  -0.3333333), wk =   0.0046296
        k(  355) = (   0.4330127  -0.5103104  -0.2500000), wk =   0.0046296
        k(  356) = (   0.3849002  -0.5443311  -0.1666667), wk =   0.0046296
        k(  357) = (   0.3367877  -0.5783518  -0.0833333), wk =   0.0046296
        k(  358) = (   0.2886751  -0.5103104   0.0000000), wk =   0.0023148
        k(  359) = (   0.5773503  -0.3061862  -0.5000000), wk =   0.0046296
        k(  360) = (   0.5292377  -0.3402069  -0.4166667), wk =   0.0046296
        k(  361) = (   0.4811252  -0.3742276  -0.3333333), wk =   0.0046296
        k(  362) = (   0.4330127  -0.4082483  -0.2500000), wk =   0.0046296
        k(  363) = (   0.3849002  -0.4422690  -0.1666667), wk =   0.0046296
        k(  364) = (   0.3367877  -0.4762897  -0.0833333), wk =   0.0046296
        k(  365) = (   0.2886751  -0.4082483   0.0000000), wk =   0.0023148
        k(  366) = (   0.5773503  -0.2041241  -0.5000000), wk =   0.0023148
        k(  367) = (   0.5292377  -0.2381448  -0.4166667), wk =   0.0046296
        k(  368) = (   0.4811252  -0.2721655  -0.3333333), wk =   0.0046296
        k(  369) = (   0.4330127  -0.3061862  -0.2500000), wk =   0.0046296
        k(  370) = (   0.3849002  -0.3402069  -0.1666667), wk =   0.0046296
        k(  371) = (   0.3367877  -0.3742276  -0.0833333), wk =   0.0046296
        k(  372) = (   0.2886751  -0.3061862   0.0000000), wk =   0.0023148
        k(  373) = (   0.5292377  -0.1360827  -0.4166667), wk =   0.0046296
        k(  374) = (   0.4811252  -0.1701034  -0.3333333), wk =   0.0046296
        k(  375) = (   0.4330127  -0.2041241  -0.2500000), wk =   0.0046296
        k(  376) = (   0.3849002  -0.2381448  -0.1666667), wk =   0.0046296
        k(  377) = (   0.3367877  -0.2721655  -0.0833333), wk =   0.0046296
        k(  378) = (   0.2886751  -0.2041241   0.0000000), wk =   0.0023148
        k(  379) = (   0.5292377  -0.0340206  -0.4166667), wk =   0.0046296
        k(  380) = (   0.4811252  -0.0680413  -0.3333333), wk =   0.0046296
        k(  381) = (   0.4330127  -0.1020620  -0.2500000), wk =   0.0046296
        k(  382) = (   0.3849002  -0.1360827  -0.1666667), wk =   0.0046296
        k(  383) = (   0.3367877  -0.1701034  -0.0833333), wk =   0.0046296
        k(  384) = (   0.3849002  -0.1360827   0.0000000), wk =   0.0023148
        k(  385) = (   0.5773503   0.0000001  -0.3333333), wk =   0.0046296
        k(  386) = (   0.5292377  -0.0340206  -0.2500000), wk =   0.0046296
        k(  387) = (   0.4811252  -0.0680413  -0.1666667), wk =   0.0046296
        k(  388) = (   0.4330127  -0.1020620  -0.0833333), wk =   0.0046296
        k(  389) = (   0.3849002  -0.0340206   0.0000000), wk =   0.0023148
        k(  390) = (   0.5773503   0.1020622  -0.3333333), wk =   0.0046296
        k(  391) = (   0.5292377   0.0680415  -0.2500000), wk =   0.0046296
        k(  392) = (   0.4811252   0.0340208  -0.1666667), wk =   0.0046296
        k(  393) = (   0.4330127   0.0000001  -0.0833333), wk =   0.0046296
        k(  394) = (   0.3849002   0.0680414   0.0000000), wk =   0.0023148
        k(  395) = (   0.5773503   0.2041243  -0.3333333), wk =   0.0046296
        k(  396) = (   0.5292377   0.1701036  -0.2500000), wk =   0.0046296
        k(  397) = (   0.4811252   0.1360829  -0.1666667), wk =   0.0046296
        k(  398) = (   0.4330127   0.1020622  -0.0833333), wk =   0.0046296
        k(  399) = (   0.3849002   0.1701035   0.0000000), wk =   0.0023148
        k(  400) = (   0.5773503   0.3061863  -0.3333333), wk =   0.0046296
        k(  401) = (   0.5292377   0.2721656  -0.2500000), wk =   0.0046296
        k(  402) = (   0.4811252   0.2381449  -0.1666667), wk =   0.0046296
        k(  403) = (   0.4330127   0.2041242  -0.0833333), wk =   0.0046296
        k(  404) = (   0.3849002   0.2721656   0.0000000), wk =   0.0023148
        k(  405) = (   0.5773503   0.4082484  -0.3333333), wk =   0.0023148
        k(  406) = (   0.5292377   0.3742277  -0.2500000), wk =   0.0046296
        k(  407) = (   0.4811252   0.3402070  -0.1666667), wk =   0.0046296
        k(  408) = (   0.4330127   0.3061863  -0.0833333), wk =   0.0046296
        k(  409) = (   0.3849002   0.3742277   0.0000000), wk =   0.0023148
        k(  410) = (   0.5292377   0.4762898  -0.2500000), wk =   0.0046296
        k(  411) = (   0.4811252   0.4422691  -0.1666667), wk =   0.0046296
        k(  412) = (   0.4330127   0.4082484  -0.0833333), wk =   0.0046296
        k(  413) = (   0.3849002  -0.7484553   0.0000000), wk =   0.0023148
        k(  414) = (   0.5292377  -0.6463931  -0.2500000), wk =   0.0046296
        k(  415) = (   0.4811252  -0.6804139  -0.1666667), wk =   0.0046296
        k(  416) = (   0.4330127  -0.7144346  -0.0833333), wk =   0.0046296
        k(  417) = (   0.3849002  -0.6463932   0.0000000), wk =   0.0023148
        k(  418) = (   0.5292377  -0.5443311  -0.2500000), wk =   0.0046296
        k(  419) = (   0.4811252  -0.5783518  -0.1666667), wk =   0.0046296
        k(  420) = (   0.4330127  -0.6123725  -0.0833333), wk =   0.0046296
        k(  421) = (   0.3849002  -0.5443311   0.0000000), wk =   0.0023148
        k(  422) = (   0.5292377  -0.4422690  -0.2500000), wk =   0.0046296
        k(  423) = (   0.4811252  -0.4762897  -0.1666667), wk =   0.0046296
        k(  424) = (   0.4330127  -0.5103104  -0.0833333), wk =   0.0046296
        k(  425) = (   0.3849002  -0.4422690   0.0000000), wk =   0.0023148
        k(  426) = (   0.5773503  -0.3061862  -0.3333333), wk =   0.0046296
        k(  427) = (   0.5292377  -0.3402069  -0.2500000), wk =   0.0046296
        k(  428) = (   0.4811252  -0.3742276  -0.1666667), wk =   0.0046296
        k(  429) = (   0.4330127  -0.4082483  -0.0833333), wk =   0.0046296
        k(  430) = (   0.3849002  -0.3402069   0.0000000), wk =   0.0023148
        k(  431) = (   0.5773503  -0.2041241  -0.3333333), wk =   0.0023148
        k(  432) = (   0.5292377  -0.2381448  -0.2500000), wk =   0.0046296
        k(  433) = (   0.4811252  -0.2721655  -0.1666667), wk =   0.0046296
        k(  434) = (   0.4330127  -0.3061862  -0.0833333), wk =   0.0046296
        k(  435) = (   0.3849002  -0.2381448   0.0000000), wk =   0.0023148
        k(  436) = (   0.5292377  -0.1360827  -0.2500000), wk =   0.0046296
        k(  437) = (   0.4811252  -0.1701034  -0.1666667), wk =   0.0046296
        k(  438) = (   0.4330127  -0.2041241  -0.0833333), wk =   0.0046296
        k(  439) = (   0.4811252  -0.1701034   0.0000000), wk =   0.0023148
        k(  440) = (   0.5773503  -0.1020620  -0.1666667), wk =   0.0046296
        k(  441) = (   0.5292377  -0.1360827  -0.0833333), wk =   0.0046296
        k(  442) = (   0.4811252  -0.0680413   0.0000000), wk =   0.0023148
        k(  443) = (   0.5773503   0.0000001  -0.1666667), wk =   0.0046296
        k(  444) = (   0.5292377  -0.0340206  -0.0833333), wk =   0.0046296
        k(  445) = (   0.4811252   0.0340208   0.0000000), wk =   0.0023148
        k(  446) = (   0.5773503   0.1020622  -0.1666667), wk =   0.0046296
        k(  447) = (   0.5292377   0.0680415  -0.0833333), wk =   0.0046296
        k(  448) = (   0.4811252   0.1360829   0.0000000), wk =   0.0023148
        k(  449) = (   0.5773503   0.2041243  -0.1666667), wk =   0.0046296
        k(  450) = (   0.5292377   0.1701036  -0.0833333), wk =   0.0046296
        k(  451) = (   0.4811252   0.2381449   0.0000000), wk =   0.0023148
        k(  452) = (   0.5773503   0.3061863  -0.1666667), wk =   0.0046296
        k(  453) = (   0.5292377   0.2721656  -0.0833333), wk =   0.0046296
        k(  454) = (   0.4811252   0.3402070   0.0000000), wk =   0.0023148
        k(  455) = (   0.5773503   0.4082484  -0.1666667), wk =   0.0023148
        k(  456) = (   0.5292377   0.3742277  -0.0833333), wk =   0.0046296
        k(  457) = (   0.4811252  -0.7824759   0.0000000), wk =   0.0023148
        k(  458) = (   0.5292377  -0.7484552  -0.0833333), wk =   0.0046296
        k(  459) = (   0.4811252  -0.6804139   0.0000000), wk =   0.0023148
        k(  460) = (   0.5292377  -0.6463931  -0.0833333), wk =   0.0046296
        k(  461) = (   0.4811252  -0.5783518   0.0000000), wk =   0.0023148
        k(  462) = (   0.5292377  -0.5443311  -0.0833333), wk =   0.0046296
        k(  463) = (   0.4811252  -0.4762897   0.0000000), wk =   0.0023148
        k(  464) = (   0.5292377  -0.4422690  -0.0833333), wk =   0.0046296
        k(  465) = (   0.4811252  -0.3742276   0.0000000), wk =   0.0023148
        k(  466) = (   0.5292377  -0.3402069  -0.0833333), wk =   0.0046296
        k(  467) = (   0.4811252  -0.2721655   0.0000000), wk =   0.0023148
        k(  468) = (   0.5773503  -0.2041241  -0.1666667), wk =   0.0023148
        k(  469) = (   0.5292377  -0.2381448  -0.0833333), wk =   0.0046296
        k(  470) = (  -0.5773503   0.2041241   0.0000000), wk =   0.0011574
        k(  471) = (  -0.5773503   0.3061862   0.0000000), wk =   0.0023148
        k(  472) = (  -0.5773503   0.4082483   0.0000000), wk =   0.0023148
        k(  473) = (  -0.5773503   0.5103104   0.0000000), wk =   0.0023148
        k(  474) = (  -0.5773503   0.6123724   0.0000000), wk =   0.0023148
        k(  475) = (  -0.5773503   0.7144345   0.0000000), wk =   0.0023148
        k(  476) = (  -0.5773503  -0.4082484   0.0000000), wk =   0.0011574

                       cryst. coord.
        k(    1) = (   0.0000000   0.0000000   0.0000000), wk =   0.0011574
        k(    2) = (  -0.0000000  -0.0000000   0.0833333), wk =   0.0046296
        k(    3) = (  -0.0000000  -0.0000000   0.1666667), wk =   0.0046296
        k(    4) = (  -0.0000000  -0.0000000   0.2500000), wk =   0.0046296
        k(    5) = (  -0.0000000  -0.0000000   0.3333333), wk =   0.0046296
        k(    6) = (  -0.0000000  -0.0000000   0.4166667), wk =   0.0046296
        k(    7) = (   0.0000000   0.0000000  -0.5000000), wk =   0.0023148
        k(    8) = (   0.0000000   0.0833333   0.0000000), wk =   0.0023148
        k(    9) = (  -0.0000000   0.0833333   0.0833333), wk =   0.0046296
        k(   10) = (  -0.0000000   0.0833333   0.1666667), wk =   0.0046296
        k(   11) = (  -0.0000000   0.0833333   0.2500000), wk =   0.0046296
        k(   12) = (  -0.0000000   0.0833333   0.3333333), wk =   0.0046296
        k(   13) = (  -0.0000000   0.0833333   0.4166667), wk =   0.0046296
        k(   14) = (   0.0000000   0.0833333  -0.5000000), wk =   0.0046296
        k(   15) = (   0.0000000   0.0833333  -0.4166667), wk =   0.0046296
        k(   16) = (   0.0000000   0.0833333  -0.3333333), wk =   0.0046296
        k(   17) = (   0.0000000   0.0833333  -0.2500000), wk =   0.0046296
        k(   18) = (   0.0000000   0.0833333  -0.1666667), wk =   0.0046296
        k(   19) = (   0.0000000   0.0833333  -0.0833333), wk =   0.0046296
        k(   20) = (   0.0000000   0.1666667   0.0000000), wk =   0.0023148
        k(   21) = (  -0.0000000   0.1666667   0.0833333), wk =   0.0046296
        k(   22) = (  -0.0000000   0.1666667   0.1666667), wk =   0.0046296
        k(   23) = (  -0.0000000   0.1666667   0.2500000), wk =   0.0046296
        k(   24) = (  -0.0000000   0.1666667   0.3333333), wk =   0.0046296
        k(   25) = (  -0.0000000   0.1666667   0.4166667), wk =   0.0046296
        k(   26) = (   0.0000000   0.1666667  -0.5000000), wk =   0.0046296
        k(   27) = (   0.0000000   0.1666667  -0.4166667), wk =   0.0046296
        k(   28) = (   0.0000000   0.1666667  -0.3333333), wk =   0.0046296
        k(   29) = (   0.0000000   0.1666667  -0.2500000), wk =   0.0046296
        k(   30) = (   0.0000000   0.1666667  -0.1666667), wk =   0.0046296
        k(   31) = (   0.0000000   0.1666667  -0.0833333), wk =   0.0046296
        k(   32) = (   0.0000000   0.2500000   0.0000000), wk =   0.0023148
        k(   33) = (  -0.0000000   0.2500000   0.0833333), wk =   0.0046296
        k(   34) = (  -0.0000000   0.2500000   0.1666667), wk =   0.0046296
        k(   35) = (  -0.0000000   0.2500000   0.2500000), wk =   0.0046296
        k(   36) = (  -0.0000000   0.2500000   0.3333333), wk =   0.0046296
        k(   37) = (  -0.0000000   0.2500000   0.4166667), wk =   0.0046296
        k(   38) = (   0.0000000   0.2500000  -0.5000000), wk =   0.0046296
        k(   39) = (   0.0000000   0.2500000  -0.4166667), wk =   0.0046296
        k(   40) = (   0.0000000   0.2500000  -0.3333333), wk =   0.0046296
        k(   41) = (   0.0000000   0.2500000  -0.2500000), wk =   0.0046296
        k(   42) = (   0.0000000   0.2500000  -0.1666667), wk =   0.0046296
        k(   43) = (   0.0000000   0.2500000  -0.0833333), wk =   0.0046296
        k(   44) = (   0.0000000   0.3333333   0.0000000), wk =   0.0023148
        k(   45) = (  -0.0000000   0.3333333   0.0833333), wk =   0.0046296
        k(   46) = (  -0.0000000   0.3333333   0.1666667), wk =   0.0046296
        k(   47) = (  -0.0000000   0.3333333   0.2500000), wk =   0.0046296
        k(   48) = (  -0.0000000   0.3333333   0.3333333), wk =   0.0046296
        k(   49) = (  -0.0000000   0.3333333   0.4166667), wk =   0.0046296
        k(   50) = (   0.0000000   0.3333333  -0.5000000), wk =   0.0046296
        k(   51) = (   0.0000000   0.3333333  -0.4166667), wk =   0.0046296
        k(   52) = (   0.0000000   0.3333333  -0.3333333), wk =   0.0046296
        k(   53) = (   0.0000000   0.3333333  -0.2500000), wk =   0.0046296
        k(   54) = (   0.0000000   0.3333333  -0.1666667), wk =   0.0046296
        k(   55) = (   0.0000000   0.3333333  -0.0833333), wk =   0.0046296
        k(   56) = (   0.0000000   0.4166667   0.0000000), wk =   0.0023148
        k(   57) = (  -0.0000000   0.4166667   0.0833333), wk =   0.0046296
        k(   58) = (  -0.0000000   0.4166667   0.1666667), wk =   0.0046296
        k(   59) = (  -0.0000000   0.4166667   0.2500000), wk =   0.0046296
        k(   60) = (  -0.0000000   0.4166667   0.3333333), wk =   0.0046296
        k(   61) = (  -0.0000000   0.4166667   0.4166667), wk =   0.0046296
        k(   62) = (   0.0000000   0.4166667  -0.5000000), wk =   0.0046296
        k(   63) = (   0.0000000   0.4166667  -0.4166667), wk =   0.0046296
        k(   64) = (   0.0000000   0.4166667  -0.3333333), wk =   0.0046296
        k(   65) = (   0.0000000   0.4166667  -0.2500000), wk =   0.0046296
        k(   66) = (   0.0000000   0.4166667  -0.1666667), wk =   0.0046296
        k(   67) = (   0.0000000   0.4166667  -0.0833333), wk =   0.0046296
        k(   68) = (   0.0000000  -0.5000000   0.0000000), wk =   0.0011574
        k(   69) = (  -0.0000000  -0.5000000   0.0833333), wk =   0.0046296
        k(   70) = (  -0.0000000  -0.5000000   0.1666667), wk =   0.0046296
        k(   71) = (  -0.0000000  -0.5000000   0.2500000), wk =   0.0046296
        k(   72) = (  -0.0000000  -0.5000000   0.3333333), wk =   0.0046296
        k(   73) = (  -0.0000000  -0.5000000   0.4166667), wk =   0.0046296
        k(   74) = (   0.0000000  -0.5000000  -0.5000000), wk =   0.0023148
        k(   75) = (   0.0833333   0.0000000   0.0000000), wk =   0.0023148
        k(   76) = (   0.0833333  -0.0000000   0.1666667), wk =   0.0046296
        k(   77) = (   0.0833333   0.0000000   0.2500000), wk =   0.0046296
        k(   78) = (   0.0833333   0.0000000   0.3333333), wk =   0.0046296
        k(   79) = (   0.0833333  -0.0000000   0.4166667), wk =   0.0046296
        k(   80) = (   0.0833333   0.0000000  -0.5000000), wk =   0.0046296
        k(   81) = (   0.0833333   0.0000000  -0.4166667), wk =   0.0046296
        k(   82) = (   0.0833333   0.0000000  -0.3333333), wk =   0.0046296
        k(   83) = (   0.0833333   0.0000000  -0.2500000), wk =   0.0046296
        k(   84) = (   0.0833333   0.0000000  -0.1666667), wk =   0.0046296
        k(   85) = (   0.0833333   0.0000000  -0.0833333), wk =   0.0046296
        k(   86) = (   0.0833333   0.0833333   0.0000000), wk =   0.0023148
        k(   87) = (   0.0833333   0.0833333   0.1666667), wk =   0.0023148
        k(   88) = (   0.0833333   0.0833333   0.2500000), wk =   0.0046296
        k(   89) = (   0.0833333   0.0833333   0.3333333), wk =   0.0046296
        k(   90) = (   0.0833333   0.0833333   0.4166667), wk =   0.0046296
        k(   91) = (   0.0833333   0.0833333  -0.5000000), wk =   0.0046296
        k(   92) = (   0.0833333   0.0833333  -0.4166667), wk =   0.0046296
        k(   93) = (   0.0833333   0.0833333  -0.3333333), wk =   0.0046296
        k(   94) = (   0.0833333   0.0833333  -0.2500000), wk =   0.0046296
        k(   95) = (   0.0833333   0.0833333  -0.1666667), wk =   0.0046296
        k(   96) = (   0.0833333   0.0833333  -0.0833333), wk =   0.0046296
        k(   97) = (   0.0833333   0.1666667   0.0000000), wk =   0.0023148
        k(   98) = (   0.0833333   0.1666667   0.2500000), wk =   0.0046296
        k(   99) = (   0.0833333   0.1666667   0.3333333), wk =   0.0046296
        k(  100) = (   0.0833333   0.1666667   0.4166667), wk =   0.0046296
        k(  101) = (   0.0833333   0.1666667  -0.5000000), wk =   0.0046296
        k(  102) = (   0.0833333   0.1666667  -0.4166667), wk =   0.0046296
        k(  103) = (   0.0833333   0.1666667  -0.3333333), wk =   0.0046296
        k(  104) = (   0.0833333   0.1666667  -0.2500000), wk =   0.0046296
        k(  105) = (   0.0833333   0.1666667  -0.1666667), wk =   0.0046296
        k(  106) = (   0.0833333   0.1666667  -0.0833333), wk =   0.0046296
        k(  107) = (   0.0833333   0.2500000   0.0000000), wk =   0.0023148
        k(  108) = (   0.0833333   0.2500000   0.1666667), wk =   0.0046296
        k(  109) = (   0.0833333   0.2500000   0.2500000), wk =   0.0046296
        k(  110) = (   0.0833333   0.2500000   0.3333333), wk =   0.0046296
        k(  111) = (   0.0833333   0.2500000   0.4166667), wk =   0.0046296
        k(  112) = (   0.0833333   0.2500000  -0.5000000), wk =   0.0046296
        k(  113) = (   0.0833333   0.2500000  -0.4166667), wk =   0.0046296
        k(  114) = (   0.0833333   0.2500000  -0.3333333), wk =   0.0046296
        k(  115) = (   0.0833333   0.2500000  -0.2500000), wk =   0.0046296
        k(  116) = (   0.0833333   0.2500000  -0.1666667), wk =   0.0046296
        k(  117) = (   0.0833333   0.2500000  -0.0833333), wk =   0.0046296
        k(  118) = (   0.0833333   0.3333333   0.0000000), wk =   0.0023148
        k(  119) = (   0.0833333   0.3333333   0.1666667), wk =   0.0046296
        k(  120) = (   0.0833333   0.3333333   0.2500000), wk =   0.0046296
        k(  121) = (   0.0833333   0.3333333   0.3333333), wk =   0.0046296
        k(  122) = (   0.0833333   0.3333333   0.4166667), wk =   0.0046296
        k(  123) = (   0.0833333   0.3333333  -0.5000000), wk =   0.0046296
        k(  124) = (   0.0833333   0.3333333  -0.4166667), wk =   0.0046296
        k(  125) = (   0.0833333   0.3333333  -0.3333333), wk =   0.0046296
        k(  126) = (   0.0833333   0.3333333  -0.2500000), wk =   0.0046296
        k(  127) = (   0.0833333   0.3333333  -0.1666667), wk =   0.0046296
        k(  128) = (   0.0833333   0.3333333  -0.0833333), wk =   0.0046296
        k(  129) = (   0.0833333   0.4166667   0.0000000), wk =   0.0023148
        k(  130) = (   0.0833333   0.4166667   0.1666667), wk =   0.0046296
        k(  131) = (   0.0833333   0.4166667   0.2500000), wk =   0.0046296
        k(  132) = (   0.0833333   0.4166667   0.3333333), wk =   0.0046296
        k(  133) = (   0.0833333   0.4166667   0.4166667), wk =   0.0046296
        k(  134) = (   0.0833333   0.4166667  -0.5000000), wk =   0.0046296
        k(  135) = (   0.0833333   0.4166667  -0.4166667), wk =   0.0046296
        k(  136) = (   0.0833333   0.4166667  -0.3333333), wk =   0.0046296
        k(  137) = (   0.0833333   0.4166667  -0.2500000), wk =   0.0046296
        k(  138) = (   0.0833333   0.4166667  -0.1666667), wk =   0.0046296
        k(  139) = (   0.0833333   0.4166667  -0.0833333), wk =   0.0046296
        k(  140) = (   0.0833333  -0.5000000   0.0000000), wk =   0.0023148
        k(  141) = (   0.0833333  -0.5000000   0.1666667), wk =   0.0046296
        k(  142) = (   0.0833333  -0.5000000   0.2500000), wk =   0.0046296
        k(  143) = (   0.0833333  -0.5000000   0.3333333), wk =   0.0046296
        k(  144) = (   0.0833333  -0.5000000   0.4166667), wk =   0.0046296
        k(  145) = (   0.0833333  -0.5000000  -0.5000000), wk =   0.0046296
        k(  146) = (   0.0833333  -0.5000000  -0.4166667), wk =   0.0046296
        k(  147) = (   0.0833333  -0.5000000  -0.3333333), wk =   0.0046296
        k(  148) = (   0.0833333  -0.5000000  -0.2500000), wk =   0.0046296
        k(  149) = (   0.0833333  -0.5000000  -0.1666667), wk =   0.0046296
        k(  150) = (   0.0833333  -0.5000000  -0.0833333), wk =   0.0046296
        k(  151) = (   0.0833333  -0.4166667   0.0000000), wk =   0.0023148
        k(  152) = (   0.0833333  -0.4166667   0.1666667), wk =   0.0023148
        k(  153) = (   0.0833333  -0.4166667   0.2500000), wk =   0.0046296
        k(  154) = (   0.0833333  -0.4166667   0.3333333), wk =   0.0046296
        k(  155) = (   0.0833333  -0.4166667   0.4166667), wk =   0.0046296
        k(  156) = (   0.0833333  -0.4166667  -0.5000000), wk =   0.0046296
        k(  157) = (   0.0833333  -0.4166667  -0.4166667), wk =   0.0046296
        k(  158) = (   0.0833333  -0.4166667  -0.3333333), wk =   0.0046296
        k(  159) = (   0.0833333  -0.4166667  -0.2500000), wk =   0.0046296
        k(  160) = (   0.0833333  -0.4166667  -0.1666667), wk =   0.0046296
        k(  161) = (   0.0833333  -0.4166667  -0.0833333), wk =   0.0046296
        k(  162) = (   0.0833333  -0.3333333   0.0000000), wk =   0.0023148
        k(  163) = (   0.0833333  -0.3333333   0.2500000), wk =   0.0046296
        k(  164) = (   0.0833333  -0.3333333   0.3333333), wk =   0.0046296
        k(  165) = (   0.0833333  -0.3333333   0.4166667), wk =   0.0046296
        k(  166) = (   0.0833333  -0.3333333  -0.5000000), wk =   0.0046296
        k(  167) = (   0.0833333  -0.3333333  -0.4166667), wk =   0.0046296
        k(  168) = (   0.0833333  -0.3333333  -0.3333333), wk =   0.0046296
        k(  169) = (   0.0833333  -0.3333333  -0.2500000), wk =   0.0046296
        k(  170) = (   0.0833333  -0.3333333  -0.1666667), wk =   0.0046296
        k(  171) = (   0.0833333  -0.3333333  -0.0833333), wk =   0.0046296
        k(  172) = (   0.0833333  -0.2500000   0.0000000), wk =   0.0023148
        k(  173) = (   0.0833333  -0.2500000   0.2500000), wk =   0.0046296
        k(  174) = (   0.0833333  -0.2500000   0.3333333), wk =   0.0046296
        k(  175) = (   0.0833333  -0.2500000   0.4166667), wk =   0.0046296
        k(  176) = (   0.0833333  -0.2500000  -0.5000000), wk =   0.0046296
        k(  177) = (   0.0833333  -0.2500000  -0.4166667), wk =   0.0046296
        k(  178) = (   0.0833333  -0.2500000  -0.3333333), wk =   0.0046296
        k(  179) = (   0.0833333  -0.2500000  -0.2500000), wk =   0.0046296
        k(  180) = (   0.0833333  -0.2500000  -0.1666667), wk =   0.0046296
        k(  181) = (   0.0833333  -0.2500000  -0.0833333), wk =   0.0046296
        k(  182) = (   0.0833333  -0.1666667   0.0000000), wk =   0.0023148
        k(  183) = (   0.0833333  -0.1666667   0.2500000), wk =   0.0046296
        k(  184) = (   0.0833333  -0.1666667   0.3333333), wk =   0.0046296
        k(  185) = (   0.0833333  -0.1666667   0.4166667), wk =   0.0046296
        k(  186) = (   0.0833333  -0.1666667  -0.5000000), wk =   0.0046296
        k(  187) = (   0.0833333  -0.1666667  -0.4166667), wk =   0.0046296
        k(  188) = (   0.0833333  -0.1666667  -0.3333333), wk =   0.0046296
        k(  189) = (   0.0833333  -0.1666667  -0.2500000), wk =   0.0046296
        k(  190) = (   0.0833333  -0.1666667  -0.1666667), wk =   0.0046296
        k(  191) = (   0.0833333  -0.1666667  -0.0833333), wk =   0.0046296
        k(  192) = (   0.0833333  -0.0833333   0.0000000), wk =   0.0023148
        k(  193) = (   0.0833333  -0.0833333   0.2500000), wk =   0.0046296
        k(  194) = (   0.0833333  -0.0833333   0.3333333), wk =   0.0046296
        k(  195) = (   0.0833333  -0.0833333   0.4166667), wk =   0.0046296
        k(  196) = (   0.0833333  -0.0833333  -0.5000000), wk =   0.0046296
        k(  197) = (   0.0833333  -0.0833333  -0.4166667), wk =   0.0046296
        k(  198) = (   0.0833333  -0.0833333  -0.3333333), wk =   0.0046296
        k(  199) = (   0.0833333  -0.0833333  -0.2500000), wk =   0.0046296
        k(  200) = (   0.0833333  -0.0833333  -0.1666667), wk =   0.0046296
        k(  201) = (   0.0833333  -0.0833333  -0.0833333), wk =   0.0046296
        k(  202) = (   0.1666667   0.0000000   0.0000000), wk =   0.0023148
        k(  203) = (   0.1666667  -0.0000000   0.3333333), wk =   0.0046296
        k(  204) = (   0.1666667  -0.0000000   0.4166667), wk =   0.0046296
        k(  205) = (   0.1666667   0.0000000  -0.5000000), wk =   0.0046296
        k(  206) = (   0.1666667   0.0000000  -0.4166667), wk =   0.0046296
        k(  207) = (   0.1666667   0.0000000  -0.3333333), wk =   0.0046296
        k(  208) = (   0.1666667   0.0000000  -0.2500000), wk =   0.0046296
        k(  209) = (   0.1666667   0.0000000  -0.1666667), wk =   0.0046296
        k(  210) = (   0.1666667   0.0000000  -0.0833333), wk =   0.0046296
        k(  211) = (   0.1666667   0.0833333   0.0000000), wk =   0.0023148
        k(  212) = (   0.1666667   0.0833333   0.3333333), wk =   0.0046296
        k(  213) = (   0.1666667   0.0833333   0.4166667), wk =   0.0046296
        k(  214) = (   0.1666667   0.0833333  -0.5000000), wk =   0.0046296
        k(  215) = (   0.1666667   0.0833333  -0.4166667), wk =   0.0046296
        k(  216) = (   0.1666667   0.0833333  -0.3333333), wk =   0.0046296
        k(  217) = (   0.1666667   0.0833333  -0.2500000), wk =   0.0046296
        k(  218) = (   0.1666667   0.0833333  -0.1666667), wk =   0.0046296
        k(  219) = (   0.1666667   0.0833333  -0.0833333), wk =   0.0046296
        k(  220) = (   0.1666667   0.1666667   0.0000000), wk =   0.0023148
        k(  221) = (   0.1666667   0.1666667   0.3333333), wk =   0.0023148
        k(  222) = (   0.1666667   0.1666667   0.4166667), wk =   0.0046296
        k(  223) = (   0.1666667   0.1666667  -0.5000000), wk =   0.0046296
        k(  224) = (   0.1666667   0.1666667  -0.4166667), wk =   0.0046296
        k(  225) = (   0.1666667   0.1666667  -0.3333333), wk =   0.0046296
        k(  226) = (   0.1666667   0.1666667  -0.2500000), wk =   0.0046296
        k(  227) = (   0.1666667   0.1666667  -0.1666667), wk =   0.0046296
        k(  228) = (   0.1666667   0.1666667  -0.0833333), wk =   0.0046296
        k(  229) = (   0.1666667   0.2500000   0.0000000), wk =   0.0023148
        k(  230) = (   0.1666667   0.2500000   0.4166667), wk =   0.0046296
        k(  231) = (   0.1666667   0.2500000  -0.5000000), wk =   0.0046296
        k(  232) = (   0.1666667   0.2500000  -0.4166667), wk =   0.0046296
        k(  233) = (   0.1666667   0.2500000  -0.3333333), wk =   0.0046296
        k(  234) = (   0.1666667   0.2500000  -0.2500000), wk =   0.0046296
        k(  235) = (   0.1666667   0.2500000  -0.1666667), wk =   0.0046296
        k(  236) = (   0.1666667   0.2500000  -0.0833333), wk =   0.0046296
        k(  237) = (   0.1666667   0.3333333   0.0000000), wk =   0.0023148
        k(  238) = (   0.1666667   0.3333333   0.4166667), wk =   0.0046296
        k(  239) = (   0.1666667   0.3333333  -0.5000000), wk =   0.0046296
        k(  240) = (   0.1666667   0.3333333  -0.4166667), wk =   0.0046296
        k(  241) = (   0.1666667   0.3333333  -0.3333333), wk =   0.0046296
        k(  242) = (   0.1666667   0.3333333  -0.2500000), wk =   0.0046296
        k(  243) = (   0.1666667   0.3333333  -0.1666667), wk =   0.0046296
        k(  244) = (   0.1666667   0.3333333  -0.0833333), wk =   0.0046296
        k(  245) = (   0.1666667   0.4166667   0.0000000), wk =   0.0023148
        k(  246) = (   0.1666667   0.4166667   0.3333333), wk =   0.0046296
        k(  247) = (   0.1666667   0.4166667   0.4166667), wk =   0.0046296
        k(  248) = (   0.1666667   0.4166667  -0.5000000), wk =   0.0046296
        k(  249) = (   0.1666667   0.4166667  -0.4166667), wk =   0.0046296
        k(  250) = (   0.1666667   0.4166667  -0.3333333), wk =   0.0046296
        k(  251) = (   0.1666667   0.4166667  -0.2500000), wk =   0.0046296
        k(  252) = (   0.1666667   0.4166667  -0.1666667), wk =   0.0046296
        k(  253) = (   0.1666667   0.4166667  -0.0833333), wk =   0.0046296
        k(  254) = (   0.1666667  -0.5000000   0.0000000), wk =   0.0023148
        k(  255) = (   0.1666667  -0.5000000   0.3333333), wk =   0.0046296
        k(  256) = (   0.1666667  -0.5000000   0.4166667), wk =   0.0046296
        k(  257) = (   0.1666667  -0.5000000  -0.5000000), wk =   0.0046296
        k(  258) = (   0.1666667  -0.5000000  -0.4166667), wk =   0.0046296
        k(  259) = (   0.1666667  -0.5000000  -0.3333333), wk =   0.0046296
        k(  260) = (   0.1666667  -0.5000000  -0.2500000), wk =   0.0046296
        k(  261) = (   0.1666667  -0.5000000  -0.1666667), wk =   0.0046296
        k(  262) = (   0.1666667  -0.5000000  -0.0833333), wk =   0.0046296
        k(  263) = (   0.1666667  -0.4166667   0.0000000), wk =   0.0023148
        k(  264) = (   0.1666667  -0.4166667   0.3333333), wk =   0.0046296
        k(  265) = (   0.1666667  -0.4166667   0.4166667), wk =   0.0046296
        k(  266) = (   0.1666667  -0.4166667  -0.5000000), wk =   0.0046296
        k(  267) = (   0.1666667  -0.4166667  -0.4166667), wk =   0.0046296
        k(  268) = (   0.1666667  -0.4166667  -0.3333333), wk =   0.0046296
        k(  269) = (   0.1666667  -0.4166667  -0.2500000), wk =   0.0046296
        k(  270) = (   0.1666667  -0.4166667  -0.1666667), wk =   0.0046296
        k(  271) = (   0.1666667  -0.4166667  -0.0833333), wk =   0.0046296
        k(  272) = (   0.1666667  -0.3333333   0.0000000), wk =   0.0023148
        k(  273) = (   0.1666667  -0.3333333   0.3333333), wk =   0.0023148
        k(  274) = (   0.1666667  -0.3333333   0.4166667), wk =   0.0046296
        k(  275) = (   0.1666667  -0.3333333  -0.5000000), wk =   0.0046296
        k(  276) = (   0.1666667  -0.3333333  -0.4166667), wk =   0.0046296
        k(  277) = (   0.1666667  -0.3333333  -0.3333333), wk =   0.0046296
        k(  278) = (   0.1666667  -0.3333333  -0.2500000), wk =   0.0046296
        k(  279) = (   0.1666667  -0.3333333  -0.1666667), wk =   0.0046296
        k(  280) = (   0.1666667  -0.3333333  -0.0833333), wk =   0.0046296
        k(  281) = (   0.1666667  -0.2500000   0.0000000), wk =   0.0023148
        k(  282) = (   0.1666667  -0.2500000   0.4166667), wk =   0.0046296
        k(  283) = (   0.1666667  -0.2500000  -0.5000000), wk =   0.0046296
        k(  284) = (   0.1666667  -0.2500000  -0.4166667), wk =   0.0046296
        k(  285) = (   0.1666667  -0.2500000  -0.3333333), wk =   0.0046296
        k(  286) = (   0.1666667  -0.2500000  -0.2500000), wk =   0.0046296
        k(  287) = (   0.1666667  -0.2500000  -0.1666667), wk =   0.0046296
        k(  288) = (   0.1666667  -0.2500000  -0.0833333), wk =   0.0046296
        k(  289) = (   0.1666667  -0.1666667   0.0000000), wk =   0.0023148
        k(  290) = (   0.1666667  -0.1666667   0.4166667), wk =   0.0046296
        k(  291) = (   0.1666667  -0.1666667  -0.5000000), wk =   0.0046296
        k(  292) = (   0.1666667  -0.1666667  -0.4166667), wk =   0.0046296
        k(  293) = (   0.1666667  -0.1666667  -0.3333333), wk =   0.0046296
        k(  294) = (   0.1666667  -0.1666667  -0.2500000), wk =   0.0046296
        k(  295) = (   0.1666667  -0.1666667  -0.1666667), wk =   0.0046296
        k(  296) = (   0.1666667  -0.1666667  -0.0833333), wk =   0.0046296
        k(  297) = (   0.1666667  -0.0833333   0.0000000), wk =   0.0023148
        k(  298) = (   0.1666667  -0.0833333   0.4166667), wk =   0.0046296
        k(  299) = (   0.1666667  -0.0833333  -0.5000000), wk =   0.0046296
        k(  300) = (   0.1666667  -0.0833333  -0.4166667), wk =   0.0046296
        k(  301) = (   0.1666667  -0.0833333  -0.3333333), wk =   0.0046296
        k(  302) = (   0.1666667  -0.0833333  -0.2500000), wk =   0.0046296
        k(  303) = (   0.1666667  -0.0833333  -0.1666667), wk =   0.0046296
        k(  304) = (   0.1666667  -0.0833333  -0.0833333), wk =   0.0046296
        k(  305) = (   0.2500000   0.0000000   0.0000000), wk =   0.0023148
        k(  306) = (   0.2500000   0.0000000  -0.5000000), wk =   0.0046296
        k(  307) = (   0.2500000   0.0000000  -0.4166667), wk =   0.0046296
        k(  308) = (   0.2500000   0.0000000  -0.3333333), wk =   0.0046296
        k(  309) = (   0.2500000   0.0000000  -0.2500000), wk =   0.0046296
        k(  310) = (   0.2500000   0.0000000  -0.1666667), wk =   0.0046296
        k(  311) = (   0.2500000   0.0000000  -0.0833333), wk =   0.0046296
        k(  312) = (   0.2500000   0.0833333   0.0000000), wk =   0.0023148
        k(  313) = (   0.2500000   0.0833333  -0.5000000), wk =   0.0046296
        k(  314) = (   0.2500000   0.0833333  -0.4166667), wk =   0.0046296
        k(  315) = (   0.2500000   0.0833333  -0.3333333), wk =   0.0046296
        k(  316) = (   0.2500000   0.0833333  -0.2500000), wk =   0.0046296
        k(  317) = (   0.2500000   0.0833333  -0.1666667), wk =   0.0046296
        k(  318) = (   0.2500000   0.0833333  -0.0833333), wk =   0.0046296
        k(  319) = (   0.2500000   0.1666667   0.0000000), wk =   0.0023148
        k(  320) = (   0.2500000   0.1666667  -0.5000000), wk =   0.0046296
        k(  321) = (   0.2500000   0.1666667  -0.4166667), wk =   0.0046296
        k(  322) = (   0.2500000   0.1666667  -0.3333333), wk =   0.0046296
        k(  323) = (   0.2500000   0.1666667  -0.2500000), wk =   0.0046296
        k(  324) = (   0.2500000   0.1666667  -0.1666667), wk =   0.0046296
        k(  325) = (   0.2500000   0.1666667  -0.0833333), wk =   0.0046296
        k(  326) = (   0.2500000   0.2500000   0.0000000), wk =   0.0023148
        k(  327) = (   0.2500000   0.2500000  -0.5000000), wk =   0.0023148
        k(  328) = (   0.2500000   0.2500000  -0.4166667), wk =   0.0046296
        k(  329) = (   0.2500000   0.2500000  -0.3333333), wk =   0.0046296
        k(  330) = (   0.2500000   0.2500000  -0.2500000), wk =   0.0046296
        k(  331) = (   0.2500000   0.2500000  -0.1666667), wk =   0.0046296
        k(  332) = (   0.2500000   0.2500000  -0.0833333), wk =   0.0046296
        k(  333) = (   0.2500000   0.3333333   0.0000000), wk =   0.0023148
        k(  334) = (   0.2500000   0.3333333  -0.4166667), wk =   0.0046296
        k(  335) = (   0.2500000   0.3333333  -0.3333333), wk =   0.0046296
        k(  336) = (   0.2500000   0.3333333  -0.2500000), wk =   0.0046296
        k(  337) = (   0.2500000   0.3333333  -0.1666667), wk =   0.0046296
        k(  338) = (   0.2500000   0.3333333  -0.0833333), wk =   0.0046296
        k(  339) = (   0.2500000   0.4166667   0.0000000), wk =   0.0023148
        k(  340) = (   0.2500000   0.4166667  -0.4166667), wk =   0.0046296
        k(  341) = (   0.2500000   0.4166667  -0.3333333), wk =   0.0046296
        k(  342) = (   0.2500000   0.4166667  -0.2500000), wk =   0.0046296
        k(  343) = (   0.2500000   0.4166667  -0.1666667), wk =   0.0046296
        k(  344) = (   0.2500000   0.4166667  -0.0833333), wk =   0.0046296
        k(  345) = (   0.2500000  -0.5000000   0.0000000), wk =   0.0023148
        k(  346) = (   0.2500000  -0.5000000  -0.4166667), wk =   0.0046296
        k(  347) = (   0.2500000  -0.5000000  -0.3333333), wk =   0.0046296
        k(  348) = (   0.2500000  -0.5000000  -0.2500000), wk =   0.0046296
        k(  349) = (   0.2500000  -0.5000000  -0.1666667), wk =   0.0046296
        k(  350) = (   0.2500000  -0.5000000  -0.0833333), wk =   0.0046296
        k(  351) = (   0.2500000  -0.4166667   0.0000000), wk =   0.0023148
        k(  352) = (   0.2500000  -0.4166667  -0.5000000), wk =   0.0046296
        k(  353) = (   0.2500000  -0.4166667  -0.4166667), wk =   0.0046296
        k(  354) = (   0.2500000  -0.4166667  -0.3333333), wk =   0.0046296
        k(  355) = (   0.2500000  -0.4166667  -0.2500000), wk =   0.0046296
        k(  356) = (   0.2500000  -0.4166667  -0.1666667), wk =   0.0046296
        k(  357) = (   0.2500000  -0.4166667  -0.0833333), wk =   0.0046296
        k(  358) = (   0.2500000  -0.3333333   0.0000000), wk =   0.0023148
        k(  359) = (   0.2500000  -0.3333333  -0.5000000), wk =   0.0046296
        k(  360) = (   0.2500000  -0.3333333  -0.4166667), wk =   0.0046296
        k(  361) = (   0.2500000  -0.3333333  -0.3333333), wk =   0.0046296
        k(  362) = (   0.2500000  -0.3333333  -0.2500000), wk =   0.0046296
        k(  363) = (   0.2500000  -0.3333333  -0.1666667), wk =   0.0046296
        k(  364) = (   0.2500000  -0.3333333  -0.0833333), wk =   0.0046296
        k(  365) = (   0.2500000  -0.2500000   0.0000000), wk =   0.0023148
        k(  366) = (   0.2500000  -0.2500000  -0.5000000), wk =   0.0023148
        k(  367) = (   0.2500000  -0.2500000  -0.4166667), wk =   0.0046296
        k(  368) = (   0.2500000  -0.2500000  -0.3333333), wk =   0.0046296
        k(  369) = (   0.2500000  -0.2500000  -0.2500000), wk =   0.0046296
        k(  370) = (   0.2500000  -0.2500000  -0.1666667), wk =   0.0046296
        k(  371) = (   0.2500000  -0.2500000  -0.0833333), wk =   0.0046296
        k(  372) = (   0.2500000  -0.1666667   0.0000000), wk =   0.0023148
        k(  373) = (   0.2500000  -0.1666667  -0.4166667), wk =   0.0046296
        k(  374) = (   0.2500000  -0.1666667  -0.3333333), wk =   0.0046296
        k(  375) = (   0.2500000  -0.1666667  -0.2500000), wk =   0.0046296
        k(  376) = (   0.2500000  -0.1666667  -0.1666667), wk =   0.0046296
        k(  377) = (   0.2500000  -0.1666667  -0.0833333), wk =   0.0046296
        k(  378) = (   0.2500000  -0.0833333   0.0000000), wk =   0.0023148
        k(  379) = (   0.2500000  -0.0833333  -0.4166667), wk =   0.0046296
        k(  380) = (   0.2500000  -0.0833333  -0.3333333), wk =   0.0046296
        k(  381) = (   0.2500000  -0.0833333  -0.2500000), wk =   0.0046296
        k(  382) = (   0.2500000  -0.0833333  -0.1666667), wk =   0.0046296
        k(  383) = (   0.2500000  -0.0833333  -0.0833333), wk =   0.0046296
        k(  384) = (   0.3333333   0.0000000   0.0000000), wk =   0.0023148
        k(  385) = (   0.3333333   0.0000000  -0.3333333), wk =   0.0046296
        k(  386) = (   0.3333333   0.0000000  -0.2500000), wk =   0.0046296
        k(  387) = (   0.3333333   0.0000000  -0.1666667), wk =   0.0046296
        k(  388) = (   0.3333333   0.0000000  -0.0833333), wk =   0.0046296
        k(  389) = (   0.3333333   0.0833333   0.0000000), wk =   0.0023148
        k(  390) = (   0.3333333   0.0833333  -0.3333333), wk =   0.0046296
        k(  391) = (   0.3333333   0.0833333  -0.2500000), wk =   0.0046296
        k(  392) = (   0.3333333   0.0833333  -0.1666667), wk =   0.0046296
        k(  393) = (   0.3333333   0.0833333  -0.0833333), wk =   0.0046296
        k(  394) = (   0.3333333   0.1666667   0.0000000), wk =   0.0023148
        k(  395) = (   0.3333333   0.1666667  -0.3333333), wk =   0.0046296
        k(  396) = (   0.3333333   0.1666667  -0.2500000), wk =   0.0046296
        k(  397) = (   0.3333333   0.1666667  -0.1666667), wk =   0.0046296
        k(  398) = (   0.3333333   0.1666667  -0.0833333), wk =   0.0046296
        k(  399) = (   0.3333333   0.2500000   0.0000000), wk =   0.0023148
        k(  400) = (   0.3333333   0.2500000  -0.3333333), wk =   0.0046296
        k(  401) = (   0.3333333   0.2500000  -0.2500000), wk =   0.0046296
        k(  402) = (   0.3333333   0.2500000  -0.1666667), wk =   0.0046296
        k(  403) = (   0.3333333   0.2500000  -0.0833333), wk =   0.0046296
        k(  404) = (   0.3333333   0.3333333   0.0000000), wk =   0.0023148
        k(  405) = (   0.3333333   0.3333333  -0.3333333), wk =   0.0023148
        k(  406) = (   0.3333333   0.3333333  -0.2500000), wk =   0.0046296
        k(  407) = (   0.3333333   0.3333333  -0.1666667), wk =   0.0046296
        k(  408) = (   0.3333333   0.3333333  -0.0833333), wk =   0.0046296
        k(  409) = (   0.3333333   0.4166667   0.0000000), wk =   0.0023148
        k(  410) = (   0.3333333   0.4166667  -0.2500000), wk =   0.0046296
        k(  411) = (   0.3333333   0.4166667  -0.1666667), wk =   0.0046296
        k(  412) = (   0.3333333   0.4166667  -0.0833333), wk =   0.0046296
        k(  413) = (   0.3333333  -0.5000000   0.0000000), wk =   0.0023148
        k(  414) = (   0.3333333  -0.5000000  -0.2500000), wk =   0.0046296
        k(  415) = (   0.3333333  -0.5000000  -0.1666667), wk =   0.0046296
        k(  416) = (   0.3333333  -0.5000000  -0.0833333), wk =   0.0046296
        k(  417) = (   0.3333333  -0.4166667   0.0000000), wk =   0.0023148
        k(  418) = (   0.3333333  -0.4166667  -0.2500000), wk =   0.0046296
        k(  419) = (   0.3333333  -0.4166667  -0.1666667), wk =   0.0046296
        k(  420) = (   0.3333333  -0.4166667  -0.0833333), wk =   0.0046296
        k(  421) = (   0.3333333  -0.3333333   0.0000000), wk =   0.0023148
        k(  422) = (   0.3333333  -0.3333333  -0.2500000), wk =   0.0046296
        k(  423) = (   0.3333333  -0.3333333  -0.1666667), wk =   0.0046296
        k(  424) = (   0.3333333  -0.3333333  -0.0833333), wk =   0.0046296
        k(  425) = (   0.3333333  -0.2500000   0.0000000), wk =   0.0023148
        k(  426) = (   0.3333333  -0.2500000  -0.3333333), wk =   0.0046296
        k(  427) = (   0.3333333  -0.2500000  -0.2500000), wk =   0.0046296
        k(  428) = (   0.3333333  -0.2500000  -0.1666667), wk =   0.0046296
        k(  429) = (   0.3333333  -0.2500000  -0.0833333), wk =   0.0046296
        k(  430) = (   0.3333333  -0.1666667   0.0000000), wk =   0.0023148
        k(  431) = (   0.3333333  -0.1666667  -0.3333333), wk =   0.0023148
        k(  432) = (   0.3333333  -0.1666667  -0.2500000), wk =   0.0046296
        k(  433) = (   0.3333333  -0.1666667  -0.1666667), wk =   0.0046296
        k(  434) = (   0.3333333  -0.1666667  -0.0833333), wk =   0.0046296
        k(  435) = (   0.3333333  -0.0833333   0.0000000), wk =   0.0023148
        k(  436) = (   0.3333333  -0.0833333  -0.2500000), wk =   0.0046296
        k(  437) = (   0.3333333  -0.0833333  -0.1666667), wk =   0.0046296
        k(  438) = (   0.3333333  -0.0833333  -0.0833333), wk =   0.0046296
        k(  439) = (   0.4166667   0.0000000   0.0000000), wk =   0.0023148
        k(  440) = (   0.4166667   0.0000000  -0.1666667), wk =   0.0046296
        k(  441) = (   0.4166667   0.0000000  -0.0833333), wk =   0.0046296
        k(  442) = (   0.4166667   0.0833333   0.0000000), wk =   0.0023148
        k(  443) = (   0.4166667   0.0833333  -0.1666667), wk =   0.0046296
        k(  444) = (   0.4166667   0.0833333  -0.0833333), wk =   0.0046296
        k(  445) = (   0.4166667   0.1666667   0.0000000), wk =   0.0023148
        k(  446) = (   0.4166667   0.1666667  -0.1666667), wk =   0.0046296
        k(  447) = (   0.4166667   0.1666667  -0.0833333), wk =   0.0046296
        k(  448) = (   0.4166667   0.2500000   0.0000000), wk =   0.0023148
        k(  449) = (   0.4166667   0.2500000  -0.1666667), wk =   0.0046296
        k(  450) = (   0.4166667   0.2500000  -0.0833333), wk =   0.0046296
        k(  451) = (   0.4166667   0.3333333   0.0000000), wk =   0.0023148
        k(  452) = (   0.4166667   0.3333333  -0.1666667), wk =   0.0046296
        k(  453) = (   0.4166667   0.3333333  -0.0833333), wk =   0.0046296
        k(  454) = (   0.4166667   0.4166667   0.0000000), wk =   0.0023148
        k(  455) = (   0.4166667   0.4166667  -0.1666667), wk =   0.0023148
        k(  456) = (   0.4166667   0.4166667  -0.0833333), wk =   0.0046296
        k(  457) = (   0.4166667  -0.5000000   0.0000000), wk =   0.0023148
        k(  458) = (   0.4166667  -0.5000000  -0.0833333), wk =   0.0046296
        k(  459) = (   0.4166667  -0.4166667   0.0000000), wk =   0.0023148
        k(  460) = (   0.4166667  -0.4166667  -0.0833333), wk =   0.0046296
        k(  461) = (   0.4166667  -0.3333333   0.0000000), wk =   0.0023148
        k(  462) = (   0.4166667  -0.3333333  -0.0833333), wk =   0.0046296
        k(  463) = (   0.4166667  -0.2500000   0.0000000), wk =   0.0023148
        k(  464) = (   0.4166667  -0.2500000  -0.0833333), wk =   0.0046296
        k(  465) = (   0.4166667  -0.1666667   0.0000000), wk =   0.0023148
        k(  466) = (   0.4166667  -0.1666667  -0.0833333), wk =   0.0046296
        k(  467) = (   0.4166667  -0.0833333   0.0000000), wk =   0.0023148
        k(  468) = (   0.4166667  -0.0833333  -0.1666667), wk =   0.0023148
        k(  469) = (   0.4166667  -0.0833333  -0.0833333), wk =   0.0046296
        k(  470) = (  -0.5000000  -0.0000000   0.0000000), wk =   0.0011574
        k(  471) = (  -0.5000000   0.0833333   0.0000000), wk =   0.0023148
        k(  472) = (  -0.5000000   0.1666667   0.0000000), wk =   0.0023148
        k(  473) = (  -0.5000000   0.2500000   0.0000000), wk =   0.0023148
        k(  474) = (  -0.5000000   0.3333333   0.0000000), wk =   0.0023148
        k(  475) = (  -0.5000000   0.4166667   0.0000000), wk =   0.0023148
        k(  476) = (  -0.5000000  -0.5000000   0.0000000), wk =   0.0011574

     Dense  grid:     3071 G-vectors     FFT dimensions: (  24,  24,  24)

     Dynamical RAM for                 wfc:       0.03 MB

     Dynamical RAM for     wfc (w. buffer):      16.59 MB

     Dynamical RAM for           str. fact:       0.05 MB

     Dynamical RAM for           local pot:       0.00 MB

     Dynamical RAM for          nlocal pot:       0.10 MB

     Dynamical RAM for                qrad:       0.81 MB

     Dynamical RAM for          rho,v,vnew:       0.46 MB

     Dynamical RAM for               rhoin:       0.15 MB

     Dynamical RAM for            rho*nmix:       0.75 MB

     Dynamical RAM for           G-vectors:       0.20 MB

     Dynamical RAM for          h,s,v(r/c):       0.03 MB

     Dynamical RAM for          <psi|beta>:       0.00 MB

     Dynamical RAM for                 psi:       0.14 MB

     Dynamical RAM for                hpsi:       0.14 MB

     Dynamical RAM for                spsi:       0.14 MB

     Dynamical RAM for      wfcinit/wfcrot:       0.07 MB

     Dynamical RAM for           addusdens:       8.76 MB

     Dynamical RAM for          addusforce:       8.79 MB

     Estimated static dynamical RAM per process >      19.74 MB

     Estimated max dynamical RAM per process >      28.53 MB

     Initial potential from superposition of free atoms

     starting charge    3.99933, renormalised to    4.00000
     Starting wfc are    4 randomized atomic wfcs +    2 random wfc

     total cpu time spent up to now is        1.8 secs

     Self-consistent Calculation

     iteration #  1     ecut=    35.00 Ry     beta= 0.70
     Davidson diagonalization with overlap
     ethr =  1.00E-02,  avg # of iterations =  4.4

     Threshold (ethr) on eigenvalues was too large:
     Diagonalizing with lowered threshold

     Davidson diagonalization with overlap
     ethr =  9.61E-05,  avg # of iterations =  2.3

     total cpu time spent up to now is       13.3 secs

     total energy              =      -9.55389113 Ry
     Harris-Foulkes estimate   =      -9.55521097 Ry
[...]

     3.1244   6.1094   8.9555  11.7915  17.8359  22.7995

     occupation numbers 
     1.0000   1.0000   1.0000   0.0000   0.0000   0.0000

          k = 0.4811 0.2381-0.1667 (   386 PWs)   bands (ev):

     1.4066   8.5284  10.0122  11.5998  17.5249  20.1482

     occupation numbers 
     1.0000   1.0000   0.0000   0.0000   0.0000   0.0000

          k = 0.4330 0.2041-0.0833 (   379 PWs)   bands (ev):

     0.0073  10.9048  11.2286  12.1936  17.1395  18.1877

     occupation numbers 
     1.0000   0.0000   0.0000   0.0000   0.0000   0.0000

          k = 0.3849 0.2722 0.0000 (   379 PWs)   bands (ev):

    -0.2363  11.0518  13.0711  13.0711  14.8520  16.5901

     occupation numbers 
     1.0000   0.0000   0.0000   0.0000   0.0000   0.0000

          k = 0.5774 0.4082-0.3333 (   383 PWs)   bands (ev):

     3.5690   6.3393   6.9478  13.9133  16.6320  25.5426

     occupation numbers 
     1.0000   1.0000   1.0000   0.0000   0.0000   0.0000

          k = 0.5292 0.3742-0.2500 (   384 PWs)   bands (ev):

     4.2069   5.7806   7.4008  13.2197  15.8509  22.6326

     occupation numbers 
     1.0000   1.0000   1.0000   0.0000   0.0000   0.0000

          k = 0.4811 0.3402-0.1667 (   382 PWs)   bands (ev):

     2.4351   7.7657   8.7085  12.8447  15.4097  19.7769

     occupation numbers 
     1.0000   1.0000   1.0000   0.0000   0.0000   0.0000

          k = 0.4330 0.3062-0.0833 (   377 PWs)   bands (ev):

     0.9258   9.3898  11.0224  12.7947  15.2138  17.3481

     occupation numbers 
     1.0000   0.7282   0.0000   0.0000   0.0000   0.0000

          k = 0.3849 0.3742 0.0000 (   377 PWs)   bands (ev):

     0.9258   9.3898  11.0224  12.7946  15.2138  17.3481

     occupation numbers 
     1.0000   0.7282   0.0000   0.0000   0.0000   0.0000

          k = 0.5292 0.4763-0.2500 (   382 PWs)   bands (ev):

     5.2876   5.6294   6.6449  11.5366  17.6105  22.6611

     occupation numbers 
     1.0000   1.0000   1.0000   0.0000   0.0000   0.0000

          k = 0.4811 0.4423-0.1667 (   380 PWs)   bands (ev):

     3.8075   6.5922   8.3430  11.0435  17.0607  19.7310

     occupation numbers 
     1.0000   1.0000   1.0000   0.0000   0.0000   0.0000

          k = 0.4330 0.4082-0.0833 (   382 PWs)   bands (ev):

     2.1997   7.8695  10.5345  11.1309  16.4420  17.4826

     occupation numbers 
     1.0000   1.0000   0.0000   0.0000   0.0000   0.0000

          k = 0.3849-0.7485 0.0000 (   382 PWs)   bands (ev):

     2.4351   7.7657   8.7085  12.8447  15.4097  19.7769

     occupation numbers 
     1.0000   1.0000   1.0000   0.0000   0.0000   0.0000

          k = 0.5292-0.6464-0.2500 (   385 PWs)   bands (ev):

     4.6756   6.2485   7.6952   9.4389  20.4624  22.8144

     occupation numbers 
     1.0000   1.0000   1.0000   0.1351   0.0000   0.0000

          k = 0.4811-0.6804-0.1667 (   388 PWs)   bands (ev):

     5.3926   5.5994   8.2227   9.0723  19.6329  20.2144

     occupation numbers 
     1.0000   1.0000   1.0000   1.0000   0.0000   0.0000

          k = 0.4330-0.7144-0.0833 (   380 PWs)   bands (ev):

     3.8075   6.5922   8.3430  11.0435  17.0607  19.7310

     occupation numbers 
     1.0000   1.0000   1.0000   0.0000   0.0000   0.0000

          k = 0.3849-0.6464 0.0000 (   384 PWs)   bands (ev):

     4.2069   5.7806   7.4008  13.2197  15.8509  22.6326

     occupation numbers 
     1.0000   1.0000   1.0000   0.0000   0.0000   0.0000

          k = 0.5292-0.5443-0.2500 (   381 PWs)   bands (ev):

     4.0535   6.8116   7.3010  10.1084  21.0467  23.6802

     occupation numbers 
     1.0000   1.0000   1.0000   0.0000   0.0000   0.0000

          k = 0.4811-0.5784-0.1667 (   385 PWs)   bands (ev):

     4.6756   6.2485   7.6952   9.4389  20.4624  22.8145

     occupation numbers 
     1.0000   1.0000   1.0000   0.1351   0.0000   0.0000

          k = 0.4330-0.6124-0.0833 (   382 PWs)   bands (ev):

     5.2876   5.6294   6.6449  11.5366  17.6105  22.6611

     occupation numbers 
     1.0000   1.0000   1.0000   0.0000   0.0000   0.0000

          k = 0.3849-0.5443 0.0000 (   383 PWs)   bands (ev):

     3.5690   6.3393   6.9478  13.9133  16.6320  25.5425

     occupation numbers 
     1.0000   1.0000   1.0000   0.0000   0.0000   0.0000

          k = 0.5292-0.4423-0.2500 (   383 PWs)   bands (ev):

     3.7077   5.4264   8.2183  12.3837  18.4497  24.5757

     occupation numbers 
     1.0000   1.0000   1.0000   0.0000   0.0000   0.0000

          k = 0.4811-0.4763-0.1667 (   384 PWs)   bands (ev):

     3.9256   4.8685   9.6354  10.7185  20.8288  22.1347

     occupation numbers 
     1.0000   1.0000   0.0000   0.0000   0.0000   0.0000

          k = 0.4330-0.5103-0.0833 (   383 PWs)   bands (ev):

     3.7077   5.4264   8.2184  12.3837  18.4497  24.5757

     occupation numbers 
     1.0000   1.0000   1.0000   0.0000   0.0000   0.0000

          k = 0.3849-0.4423 0.0000 (   384 PWs)   bands (ev):

     1.8685   6.3066   9.1472  14.9075  17.7456  24.7197

     occupation numbers 
     1.0000   1.0000   1.0000   0.0000   0.0000   0.0000

          k = 0.5774-0.3062-0.3333 (   383 PWs)   bands (ev):

     3.7077   5.4264   8.2183  12.3837  18.4497  24.5757

     occupation numbers 
     1.0000   1.0000   1.0000   0.0000   0.0000   0.0000

          k = 0.5292-0.3402-0.2500 (   380 PWs)   bands (ev):

     3.4389   4.4090   9.6504  14.1264  16.8729  25.1624

     occupation numbers 
     1.0000   1.0000   0.0000   0.0000   0.0000   0.0000

          k = 0.4811-0.3742-0.1667 (   380 PWs)   bands (ev):

     2.7507   4.5017  11.2923  12.9198  18.8627  22.6842

     occupation numbers 
     1.0000   1.0000   0.0000   0.0000   0.0000   0.0000

          k = 0.4330-0.4082-0.0833 (   382 PWs)   bands (ev):

     2.1507   5.2128  10.7464  13.5616  19.5217  22.2109

     occupation numbers 
     1.0000   1.0000   0.0000   0.0000   0.0000   0.0000

          k = 0.3849-0.3402 0.0000 (   383 PWs)   bands (ev):

     0.4813   6.3729  11.8989  16.1425  19.1387  22.3511

     occupation numbers 
     1.0000   1.0000   0.0000   0.0000   0.0000   0.0000

          k = 0.5774-0.2041-0.3333 (   384 PWs)   bands (ev):

     3.9256   4.8685   9.6354  10.7185  20.8288  22.1347

     occupation numbers 
     1.0000   1.0000   0.0000   0.0000   0.0000   0.0000

          k = 0.5292-0.2381-0.2500 (   380 PWs)   bands (ev):

     2.7507   4.5017  11.2923  12.9198  18.8627  22.6842

     occupation numbers 
     1.0000   1.0000   0.0000   0.0000   0.0000   0.0000

          k = 0.4811-0.2722-0.1667 (   381 PWs)   bands (ev):

     1.6659   4.7415  12.9458  14.7581  17.6036  23.2519

     occupation numbers 
     1.0000   1.0000   0.0000   0.0000   0.0000   0.0000

          k = 0.4330-0.3062-0.0833 (   379 PWs)   bands (ev):

     0.8978   5.3768  13.4561  15.0027  19.5996  21.2093

     occupation numbers 
     1.0000   1.0000   0.0000   0.0000   0.0000   0.0000

          k = 0.3849-0.2381 0.0000 (   377 PWs)   bands (ev):

    -0.5550   6.7876  14.7764  17.2998  20.5858  20.6268

     occupation numbers 
     1.0000   1.0000   0.0000   0.0000   0.0000   0.0000

          k = 0.5292-0.1361-0.2500 (   382 PWs)   bands (ev):

     2.1507   5.2128  10.7464  13.5616  19.5217  22.2109

     occupation numbers 
     1.0000   1.0000   0.0000   0.0000   0.0000   0.0000

          k = 0.4811-0.1701-0.1667 (   379 PWs)   bands (ev):

     0.8978   5.3768  13.4561  15.0027  19.5996  21.2093

     occupation numbers 
     1.0000   1.0000   0.0000   0.0000   0.0000   0.0000

          k = 0.4330-0.2041-0.0833 (   377 PWs)   bands (ev):

    -0.0087   5.9048  15.7733  16.0757  18.9251  21.7884

     occupation numbers 
     1.0000   1.0000   0.0000   0.0000   0.0000   0.0000

          k = 0.4811-0.1701 0.0000 (   380 PWs)   bands (ev):

     0.4072   4.9053  16.9403  16.9404  20.1200  20.1200

     occupation numbers 
     1.0000   1.0000   0.0000   0.0000   0.0000   0.0000

          k = 0.5774-0.1021-0.1667 (   381 PWs)   bands (ev):

     2.2611   4.0348  12.2661  15.3094  18.1922  22.6336

     occupation numbers 
     1.0000   1.0000   0.0000   0.0000   0.0000   0.0000

          k = 0.5292-0.1361-0.0833 (   378 PWs)   bands (ev):

     1.1757   4.2703  14.9798  16.5982  19.6238  20.5902

     occupation numbers 
     1.0000   1.0000   0.0000   0.0000   0.0000   0.0000

          k = 0.4811-0.0680 0.0000 (   377 PWs)   bands (ev):

    -0.0087   5.9048  15.7733  16.0757  18.9251  21.7884

     occupation numbers 
     1.0000   1.0000   0.0000   0.0000   0.0000   0.0000

          k = 0.5774 0.0000-0.1667 (   382 PWs)   bands (ev):

     2.1507   5.2128  10.7464  13.5617  19.5217  22.2108

     occupation numbers 
     1.0000   1.0000   0.0000   0.0000   0.0000   0.0000

          k = 0.5292-0.0340-0.0833 (   379 PWs)   bands (ev):

     0.8978   5.3768  13.4561  15.0027  19.5996  21.2093

     occupation numbers 
     1.0000   1.0000   0.0000   0.0000   0.0000   0.0000

          k = 0.4811 0.0340 0.0000 (   382 PWs)   bands (ev):

    -0.0621   7.2487  13.8958  14.5127  17.4098  23.4369

     occupation numbers 
     1.0000   1.0000   0.0000   0.0000   0.0000   0.0000

          k = 0.5774 0.1021-0.1667 (   385 PWs)   bands (ev):

     2.3566   6.7580   9.4689  11.2349  20.7395  22.2587

     occupation numbers 
     1.0000   1.0000   0.0217   0.0000   0.0000   0.0000

          k = 0.5292 0.0680-0.0833 (   382 PWs)   bands (ev):

     0.9724   6.8313  11.8937  12.8802  18.5071  22.9121

     occupation numbers 
     1.0000   1.0000   0.0000   0.0000   0.0000   0.0000

          k = 0.4811 0.1361 0.0000 (   386 PWs)   bands (ev):

     0.2497   8.8889  11.6636  13.5005  16.1863  20.4118

     occupation numbers 
     1.0000   1.0000   0.0000   0.0000   0.0000   0.0000

          k = 0.5774 0.2041-0.1667 (   390 PWs)   bands (ev):

     2.9088   8.1639   8.4577   9.6466  19.8577  20.3910

     occupation numbers 
     1.0000   1.0000   1.0000   0.0000   0.0000   0.0000

          k = 0.5292 0.1701-0.0833 (   386 PWs)   bands (ev):

     1.4066   8.5284  10.0122  11.5998  17.5249  20.1482

     occupation numbers 
     1.0000   1.0000   0.0000   0.0000   0.0000   0.0000

          k = 0.4811 0.2381 0.0000 (   377 PWs)   bands (ev):

     0.9258   9.3898  11.0224  12.7946  15.2138  17.3481

     occupation numbers 
     1.0000   0.7282   0.0000   0.0000   0.0000   0.0000

          k = 0.5774 0.3062-0.1667 (   380 PWs)   bands (ev):

     3.8075   6.5922   8.3430  11.0435  17.0607  19.7310

     occupation numbers 
     1.0000   1.0000   1.0000   0.0000   0.0000   0.0000

          k = 0.5292 0.2722-0.0833 (   382 PWs)   bands (ev):

     2.1997   7.8695  10.5345  11.1309  16.4420  17.4826

     occupation numbers 
     1.0000   1.0000   0.0000   0.0000   0.0000   0.0000

          k = 0.4811 0.3402 0.0000 (   383 PWs)   bands (ev):

     1.9612   7.6803  12.4110  12.4110  14.1145  15.7854

     occupation numbers 
     1.0000   1.0000   0.0000   0.0000   0.0000   0.0000

          k = 0.5774 0.4082-0.1667 (   381 PWs)   bands (ev):

     4.9186   5.1870   8.1547  12.6253  15.1570  19.5627

     occupation numbers 
     1.0000   1.0000   1.0000   0.0000   0.0000   0.0000

          k = 0.5292 0.3742-0.0833 (   377 PWs)   bands (ev):

     3.3438   6.2149  10.5021  12.3545  14.7113  16.8734

     occupation numbers 
     1.0000   1.0000   0.0000   0.0000   0.0000   0.0000

          k = 0.4811-0.7825 0.0000 (   377 PWs)   bands (ev):

     3.3438   6.2149  10.5021  12.3545  14.7113  16.8734

     occupation numbers 
     1.0000   1.0000   0.0000   0.0000   0.0000   0.0000

          k = 0.5292-0.7485-0.0833 (   372 PWs)   bands (ev):

     4.6815   5.0037  10.3025  10.8661  16.2081  17.2508

     occupation numbers 
     1.0000   1.0000   0.0000   0.0000   0.0000   0.0000

          k = 0.4811-0.6804 0.0000 (   381 PWs)   bands (ev):

     4.9186   5.1870   8.1547  12.6253  15.1570  19.5627

     occupation numbers 
     1.0000   1.0000   1.0000   0.0000   0.0000   0.0000

          k = 0.5292-0.6464-0.0833 (   380 PWs)   bands (ev):

     3.8075   6.5922   8.3430  11.0435  17.0607  19.7310

     occupation numbers 
     1.0000   1.0000   1.0000   0.0000   0.0000   0.0000

          k = 0.4811-0.5784 0.0000 (   384 PWs)   bands (ev):

     4.2069   5.7806   7.4008  13.2197  15.8509  22.6326

     occupation numbers 
     1.0000   1.0000   1.0000   0.0000   0.0000   0.0000

          k = 0.5292-0.5443-0.0833 (   383 PWs)   bands (ev):

     3.1244   6.1094   8.9555  11.7915  17.8359  22.7995

     occupation numbers 
     1.0000   1.0000   1.0000   0.0000   0.0000   0.0000

          k = 0.4811-0.4763 0.0000 (   380 PWs)   bands (ev):

     3.4389   4.4090   9.6505  14.1264  16.8729  25.1624

     occupation numbers 
     1.0000   1.0000   0.0000   0.0000   0.0000   0.0000

          k = 0.5292-0.4423-0.0833 (   380 PWs)   bands (ev):

     2.7507   4.5017  11.2923  12.9198  18.8627  22.6842

     occupation numbers 
     1.0000   1.0000   0.0000   0.0000   0.0000   0.0000

          k = 0.4811-0.3742 0.0000 (   381 PWs)   bands (ev):

     2.2611   4.0348  12.2661  15.3093  18.1922  22.6336

     occupation numbers 
     1.0000   1.0000   0.0000   0.0000   0.0000   0.0000

          k = 0.5292-0.3402-0.0833 (   384 PWs)   bands (ev):

     2.4585   3.4796  13.6227  14.5347  19.6942  20.7910

     occupation numbers 
     1.0000   1.0000   0.0000   0.0000   0.0000   0.0000

          k = 0.4811-0.2722 0.0000 (   378 PWs)   bands (ev):

     1.1757   4.2703  14.9798  16.5982  19.6238  20.5902

     occupation numbers 
     1.0000   1.0000   0.0000   0.0000   0.0000   0.0000

          k = 0.5774-0.2041-0.1667 (   384 PWs)   bands (ev):

     2.4585   3.4796  13.6227  14.5347  19.6942  20.7910

     occupation numbers 
     1.0000   1.0000   0.0000   0.0000   0.0000   0.0000

          k = 0.5292-0.2381-0.0833 (   381 PWs)   bands (ev):

     1.7721   3.5611  15.4424  16.0628  19.0388  21.0040

     occupation numbers 
     1.0000   1.0000   0.0000   0.0000   0.0000   0.0000

          k =-0.5774 0.2041 0.0000 (   392 PWs)   bands (ev):

     1.9648   3.0089  16.9304  16.9304  19.8185  19.8185

     occupation numbers 
     1.0000   1.0000   0.0000   0.0000   0.0000   0.0000

          k =-0.5774 0.3062 0.0000 (   381 PWs)   bands (ev):

     1.7721   3.5611  15.4424  16.0628  19.0388  21.0040

     occupation numbers 
     1.0000   1.0000   0.0000   0.0000   0.0000   0.0000

          k =-0.5774 0.4082 0.0000 (   381 PWs)   bands (ev):

     1.6659   4.7415  12.9458  14.7581  17.6036  23.2519

     occupation numbers 
     1.0000   1.0000   0.0000   0.0000   0.0000   0.0000

          k =-0.5774 0.5103 0.0000 (   382 PWs)   bands (ev):

     1.8763   6.2971  10.4977  13.6536  16.3522  22.9634

     occupation numbers 
     1.0000   1.0000   0.0000   0.0000   0.0000   0.0000

          k =-0.5774 0.6124 0.0000 (   382 PWs)   bands (ev):

     2.4351   7.7657   8.7085  12.8447  15.4097  19.7769

     occupation numbers 
     1.0000   1.0000   1.0000   0.0000   0.0000   0.0000

          k =-0.5774 0.7144 0.0000 (   377 PWs)   bands (ev):

     3.3438   6.2149  10.5021  12.3545  14.7113  16.8734

     occupation numbers 
     1.0000   1.0000   0.0000   0.0000   0.0000   0.0000

          k =-0.5774-0.4082 0.0000 (   388 PWs)   bands (ev):

     4.4442   4.7874  12.1905  12.1905  13.8674  15.5277

     occupation numbers 
     1.0000   1.0000   0.0000   0.0000   0.0000   0.0000

     the Fermi energy is     9.4128 ev

!    total energy              =      -9.55400960 Ry
     Harris-Foulkes estimate   =      -9.55400961 Ry
     estimated scf accuracy    <       0.00000002 Ry

     The total energy is the sum of the following terms:

     one-electron contribution =       4.34599311 Ry
     hartree contribution      =       0.05152315 Ry
     xc contribution           =      -4.26526589 Ry
     ewald contribution        =      -9.68622012 Ry
     smearing contrib. (-TS)   =      -0.00003986 Ry

     convergence has been achieved in   4 iterations

     Forces acting on atoms (cartesian axes, Ry/au):

     atom    1 type  1   force =     0.00000000    0.00000000    0.00000000
     The non-local contrib.  to forces
     atom    1 type  1   force =     0.00000000   -0.00000000    0.00000000
     The ionic contribution  to forces
     atom    1 type  1   force =     0.00000000    0.00000000    0.00000000
     The local contribution  to forces
     atom    1 type  1   force =    -0.00000000   -0.00000000   -0.00000000
     The core correction contribution to forces
     atom    1 type  1   force =    -0.00000000   -0.00000000   -0.00000000
     The Hubbard contrib.    to forces
     atom    1 type  1   force =     0.00000000    0.00000000    0.00000000
     The SCF correction term to forces
     atom    1 type  1   force =     0.00000000    0.00000000   -0.00000000

     Total force =     0.000000     Total SCF correction =     0.000000

     BFGS Geometry Optimization

     bfgs converged in   1 scf cycles and   0 bfgs steps
     (criteria: energy <  1.0E-04 Ry, force <  1.0E-03 Ry/Bohr)

     End of BFGS Geometry Optimization

     Final energy   =      -9.5540096003 Ry
Begin final coordinates

ATOMIC_POSITIONS (crystal)
Si       0.000000000   0.000000000   0.000000000
End final coordinates


 
     init_run     :     29.60s CPU      1.77s WALL (       1 calls)
     electrons    :    464.37s CPU     24.61s WALL (       1 calls)
     forces       :      3.91s CPU      0.21s WALL (       1 calls)

     Called by init_run:
     wfcinit      :     29.18s CPU      1.56s WALL (       1 calls)
     wfcinit:atom :      0.68s CPU      0.04s WALL (     476 calls)
     wfcinit:wfcr :     26.68s CPU      1.42s WALL (     476 calls)
     potinit      :      0.05s CPU      0.01s WALL (       1 calls)

     Called by electrons:
     c_bands      :    400.20s CPU     21.22s WALL (       5 calls)
     sum_band     :     62.98s CPU      3.32s WALL (       5 calls)
     v_of_rho     :      0.51s CPU      0.03s WALL (       5 calls)
     v_h          :      0.02s CPU      0.00s WALL (       5 calls)
     v_xc         :      0.59s CPU      0.03s WALL (       6 calls)
     newd         :      0.53s CPU      0.03s WALL (       5 calls)
     mix_rho      :      0.05s CPU      0.00s WALL (       5 calls)

     Called by c_bands:
     init_us_2    :     13.89s CPU      0.74s WALL (    5712 calls)
     cegterg      :    363.10s CPU     19.24s WALL (    2380 calls)

     Called by sum_band:
     sum_band:bec :      0.71s CPU      0.04s WALL (    2380 calls)
     addusdens    :      0.53s CPU      0.03s WALL (       5 calls)

     Called by *egterg:
     h_psi        :    331.09s CPU     17.50s WALL (    8771 calls)
     s_psi        :      3.61s CPU      0.20s WALL (    8771 calls)
     g_psi        :      2.32s CPU      0.12s WALL (    5915 calls)
     cdiaghg      :     14.41s CPU      0.78s WALL (    7819 calls)
     cegterg:over :      4.17s CPU      0.23s WALL (    5915 calls)
     cegterg:upda :      3.92s CPU      0.21s WALL (    5915 calls)
     cegterg:last :      2.97s CPU      0.16s WALL (    2434 calls)

     Called by h_psi:
     h_psi:pot    :    326.73s CPU     17.26s WALL (    8771 calls)
     h_psi:calbec :     12.85s CPU      0.69s WALL (    8771 calls)
     vloc_psi     :    301.62s CPU     15.91s WALL (    8771 calls)
     add_vuspsi   :      5.23s CPU      0.28s WALL (    8771 calls)

     General routines
     calbec       :     12.27s CPU      0.66s WALL (   13055 calls)
     fft          :      0.21s CPU      0.02s WALL (      78 calls)
     fftw         :    290.50s CPU     15.33s WALL (   92958 calls)
 
     Parallel routines
 
     PWSCF        :  8m18.03s CPU     0m26.65s WALL

 
   This run was terminated on:   0:13:22  31Jan2019            

=------------------------------------------------------------------------------=
   JOB DONE.
=------------------------------------------------------------------------------=
