
     Program PWSCF v.6.2 (svn rev. 14038) starts on 24Jan2019 at 12:26:46 

     This program is part of the open-source Quantum ESPRESSO suite
     for quantum simulation of materials; please cite
         "P. Giannozzi et al., J. Phys.:Condens. Matter 21 395502 (2009);
         "P. Giannozzi et al., J. Phys.:Condens. Matter 29 465901 (2017);
          URL http://www.quantum-espresso.org", 
     in publications or presentations arising from this work. More details at
     http://www.quantum-espresso.org/quote

     Parallel version (MPI), running on     1 processors

     MPI processes distributed on     1 nodes
     Reading input from ./Al14.in
Warning: card &IONS ignored
Warning: card / ignored
Warning: card &CELL ignored
Warning: card / ignored

     Current dimensions of program PWSCF are:
     Max number of different atomic species (ntypx) = 10
     Max number of k-points (npk) =  40000
     Max angular momentum in pseudopotentials (lmaxx) =  3
     Message from routine iosys:
     minimal I/O required, wf_collect reset to FALSE

     Subspace diagonalization in iterative solution of the eigenvalue problem:
     a serial algorithm will be used

 
     G-vector sticks info
     --------------------
     sticks:   dense  smooth     PW     G-vecs:    dense   smooth      PW
     Sum         283     283     97                 3119     3119     645
 


     bravais-lattice index     =            0
     lattice parameter (alat)  =       5.3970  a.u.
     unit-cell volume          =     111.1567 (a.u.)^3
     number of atoms/cell      =            1
     number of atomic types    =            1
     number of electrons       =         3.00
     number of Kohn-Sham states=            6
     kinetic-energy cutoff     =      35.0000  Ry
     charge density cutoff     =     140.0000  Ry
     convergence threshold     =      1.0E-05
     mixing beta               =       0.7000
     number of iterations used =            8  plain     mixing
     Exchange-correlation      = SLA  PZ   NOGX NOGC ( 1  1  0  0 0 0)

     celldm(1)=   5.396971  celldm(2)=   0.000000  celldm(3)=   0.000000
     celldm(4)=   0.000000  celldm(5)=   0.000000  celldm(6)=   0.000000

     crystal axes: (cart. coord. in units of alat)
               a(1) = (   0.866025   0.000000   0.500000 )  
               a(2) = (   0.288675   0.816497   0.500000 )  
               a(3) = (   0.000000   0.000000   1.000000 )  

     reciprocal axes: (cart. coord. in units 2 pi/alat)
               b(1) = (  1.154701 -0.408248  0.000000 )  
               b(2) = (  0.000000  1.224745  0.000000 )  
               b(3) = ( -0.577350 -0.408248  1.000000 )  


     PseudoPot. # 1 for Al read from file:
     ./al_lda_v1.uspp.F.UPF
     MD5 check sum: 51a9e5980debfdd3404790b200e14add
     Pseudo is Ultrasoft + core correction, Zval =  3.0
     Generated by new atomic code, or converted to UPF format
     Using radial grid of  893 points,  3 beta functions with: 
                l(1) =   0
                l(2) =   1
                l(3) =   2
     Q(r) pseudized with  8 coefficients,  rinner =    0.900   0.900   0.900
                                                       0.900   0.900

     atomic species   valence    mass     pseudopotential
        Al             3.00    26.98150     Al( 1.00)

      4 Sym. Ops., with inversion, found


                                    s                        frac. trans.

      isym =  1     identity                                     

 cryst.   s( 1) = (     1          0          0      )
                  (     0          1          0      )
                  (     0          0          1      )

 cart.    s( 1) = (  1.0000000  0.0000000  0.0000000 )
                  (  0.0000000  1.0000000  0.0000000 )
                  (  0.0000000 -0.0000000  1.0000000 )


      isym =  2     180 deg rotation - cart. axis [0,0,1]        

 cryst.   s( 2) = (    -1          0          1      )
                  (     0         -1          1      )
                  (     0          0          1      )

 cart.    s( 2) = ( -1.0000000  0.0000000  0.0000000 )
                  (  0.0000000 -1.0000000  0.0000000 )
                  (  0.0000004  0.0000003  1.0000000 )


      isym =  3     inversion                                    

 cryst.   s( 3) = (    -1          0          0      )
                  (     0         -1          0      )
                  (     0          0         -1      )

 cart.    s( 3) = ( -1.0000000  0.0000000  0.0000000 )
                  (  0.0000000 -1.0000000  0.0000000 )
                  ( -0.0000000  0.0000000 -1.0000000 )


      isym =  4     inv. 180 deg rotation - cart. axis [0,0,1]   

 cryst.   s( 4) = (     1          0         -1      )
                  (     0          1         -1      )
                  (     0          0         -1      )

 cart.    s( 4) = (  1.0000000  0.0000000  0.0000000 )
                  (  0.0000000  1.0000000  0.0000000 )
                  ( -0.0000004 -0.0000003 -1.0000000 )


   Cartesian axes

     site n.     atom                  positions (alat units)
         1           Al  tau(   1) = (   0.0000000   0.0000000   0.0000000  )

   Crystallographic axes

     site n.     atom                  positions (cryst. coord.)
         1           Al  tau(   1) = (  0.0000000  0.0000000  0.0000000  )

     number of k points=   744  Marzari-Vanderbilt smearing, width (Ry)=  0.0100
                       cart. coord. in units 2pi/alat
        k(    1) = (   0.0000000   0.0000000   0.0000000), wk =   0.0007289
        k(    2) = (  -0.0412393  -0.0291606   0.0714286), wk =   0.0029155
        k(    3) = (  -0.0824786  -0.0583212   0.1428571), wk =   0.0029155
        k(    4) = (  -0.1237179  -0.0874817   0.2142857), wk =   0.0029155
        k(    5) = (  -0.1649572  -0.1166423   0.2857142), wk =   0.0029155
        k(    6) = (  -0.2061964  -0.1458029   0.3571428), wk =   0.0029155
        k(    7) = (  -0.2474357  -0.1749635   0.4285713), wk =   0.0029155
        k(    8) = (   0.2886750   0.2041241  -0.4999999), wk =   0.0014577
        k(    9) = (   0.0000000   0.0874818   0.0000000), wk =   0.0014577
        k(   10) = (  -0.0412393   0.0583212   0.0714286), wk =   0.0029155
        k(   11) = (  -0.0824786   0.0291606   0.1428571), wk =   0.0029155
        k(   12) = (  -0.1237179   0.0000000   0.2142857), wk =   0.0029155
        k(   13) = (  -0.1649572  -0.0291605   0.2857142), wk =   0.0029155
        k(   14) = (  -0.2061964  -0.0583211   0.3571428), wk =   0.0029155
        k(   15) = (  -0.2474357  -0.0874817   0.4285713), wk =   0.0029155
        k(   16) = (   0.2886750   0.2916058  -0.4999999), wk =   0.0029155
        k(   17) = (   0.2474357   0.2624453  -0.4285713), wk =   0.0029155
        k(   18) = (   0.2061964   0.2332847  -0.3571428), wk =   0.0029155
        k(   19) = (   0.1649572   0.2041241  -0.2857142), wk =   0.0029155
        k(   20) = (   0.1237179   0.1749635  -0.2142857), wk =   0.0029155
        k(   21) = (   0.0824786   0.1458029  -0.1428571), wk =   0.0029155
        k(   22) = (   0.0412393   0.1166424  -0.0714286), wk =   0.0029155
        k(   23) = (   0.0000000   0.1749635   0.0000000), wk =   0.0014577
        k(   24) = (  -0.0412393   0.1458030   0.0714286), wk =   0.0029155
        k(   25) = (  -0.0824786   0.1166424   0.1428571), wk =   0.0029155
        k(   26) = (  -0.1237179   0.0874818   0.2142857), wk =   0.0029155
        k(   27) = (  -0.1649572   0.0583212   0.2857142), wk =   0.0029155
        k(   28) = (  -0.2061964   0.0291606   0.3571428), wk =   0.0029155
        k(   29) = (  -0.2474357   0.0000001   0.4285713), wk =   0.0029155
        k(   30) = (   0.2886750   0.3790876  -0.4999999), wk =   0.0029155
        k(   31) = (   0.2474357   0.3499270  -0.4285713), wk =   0.0029155
        k(   32) = (   0.2061964   0.3207664  -0.3571428), wk =   0.0029155
        k(   33) = (   0.1649572   0.2916059  -0.2857142), wk =   0.0029155
        k(   34) = (   0.1237179   0.2624453  -0.2142857), wk =   0.0029155
        k(   35) = (   0.0824786   0.2332847  -0.1428571), wk =   0.0029155
        k(   36) = (   0.0412393   0.2041241  -0.0714286), wk =   0.0029155
        k(   37) = (   0.0000000   0.2624453   0.0000000), wk =   0.0014577
        k(   38) = (  -0.0412393   0.2332847   0.0714286), wk =   0.0029155
        k(   39) = (  -0.0824786   0.2041242   0.1428571), wk =   0.0029155
        k(   40) = (  -0.1237179   0.1749636   0.2142857), wk =   0.0029155
        k(   41) = (  -0.1649572   0.1458030   0.2857142), wk =   0.0029155
        k(   42) = (  -0.2061964   0.1166424   0.3571428), wk =   0.0029155
        k(   43) = (  -0.2474357   0.0874818   0.4285713), wk =   0.0029155
        k(   44) = (   0.2886750   0.4665694  -0.4999999), wk =   0.0029155
        k(   45) = (   0.2474357   0.4374088  -0.4285713), wk =   0.0029155
        k(   46) = (   0.2061964   0.4082482  -0.3571428), wk =   0.0029155
        k(   47) = (   0.1649572   0.3790876  -0.2857142), wk =   0.0029155
        k(   48) = (   0.1237179   0.3499271  -0.2142857), wk =   0.0029155
        k(   49) = (   0.0824786   0.3207665  -0.1428571), wk =   0.0029155
        k(   50) = (   0.0412393   0.2916059  -0.0714286), wk =   0.0029155
        k(   51) = (   0.0000000   0.3499271   0.0000000), wk =   0.0014577
        k(   52) = (  -0.0412393   0.3207665   0.0714286), wk =   0.0029155
        k(   53) = (  -0.0824786   0.2916059   0.1428571), wk =   0.0029155
        k(   54) = (  -0.1237179   0.2624453   0.2142857), wk =   0.0029155
        k(   55) = (  -0.1649572   0.2332848   0.2857142), wk =   0.0029155
        k(   56) = (  -0.2061964   0.2041242   0.3571428), wk =   0.0029155
        k(   57) = (  -0.2474357   0.1749636   0.4285713), wk =   0.0029155
        k(   58) = (   0.2886750   0.5540512  -0.4999999), wk =   0.0029155
        k(   59) = (   0.2474357   0.5248906  -0.4285713), wk =   0.0029155
        k(   60) = (   0.2061964   0.4957300  -0.3571428), wk =   0.0029155
        k(   61) = (   0.1649572   0.4665694  -0.2857142), wk =   0.0029155
        k(   62) = (   0.1237179   0.4374088  -0.2142857), wk =   0.0029155
        k(   63) = (   0.0824786   0.4082482  -0.1428571), wk =   0.0029155
        k(   64) = (   0.0412393   0.3790877  -0.0714286), wk =   0.0029155
        k(   65) = (   0.0000000   0.4374089   0.0000000), wk =   0.0014577
        k(   66) = (  -0.0412393   0.4082483   0.0714286), wk =   0.0029155
        k(   67) = (  -0.0824786   0.3790877   0.1428571), wk =   0.0029155
        k(   68) = (  -0.1237179   0.3499271   0.2142857), wk =   0.0029155
        k(   69) = (  -0.1649572   0.3207665   0.2857142), wk =   0.0029155
        k(   70) = (  -0.2061964   0.2916060   0.3571428), wk =   0.0029155
        k(   71) = (  -0.2474357   0.2624454   0.4285713), wk =   0.0029155
        k(   72) = (   0.2886750   0.6415329  -0.4999999), wk =   0.0029155
        k(   73) = (   0.2474357   0.6123723  -0.4285713), wk =   0.0029155
        k(   74) = (   0.2061964   0.5832118  -0.3571428), wk =   0.0029155
        k(   75) = (   0.1649572   0.5540512  -0.2857142), wk =   0.0029155
        k(   76) = (   0.1237179   0.5248906  -0.2142857), wk =   0.0029155
        k(   77) = (   0.0824786   0.4957300  -0.1428571), wk =   0.0029155
        k(   78) = (   0.0412393   0.4665694  -0.0714286), wk =   0.0029155
        k(   79) = (   0.0000000   0.5248906   0.0000000), wk =   0.0014577
        k(   80) = (  -0.0412393   0.4957301   0.0714286), wk =   0.0029155
        k(   81) = (  -0.0824786   0.4665695   0.1428571), wk =   0.0029155
        k(   82) = (  -0.1237179   0.4374089   0.2142857), wk =   0.0029155
        k(   83) = (  -0.1649572   0.4082483   0.2857142), wk =   0.0029155
        k(   84) = (  -0.2061964   0.3790877   0.3571428), wk =   0.0029155
        k(   85) = (  -0.2474357   0.3499271   0.4285713), wk =   0.0029155
        k(   86) = (   0.2886750   0.7290147  -0.4999999), wk =   0.0029155
        k(   87) = (   0.2474357   0.6998541  -0.4285713), wk =   0.0029155
        k(   88) = (   0.2061964   0.6706935  -0.3571428), wk =   0.0029155
        k(   89) = (   0.1649572   0.6415330  -0.2857142), wk =   0.0029155
        k(   90) = (   0.1237179   0.6123724  -0.2142857), wk =   0.0029155
        k(   91) = (   0.0824786   0.5832118  -0.1428571), wk =   0.0029155
        k(   92) = (   0.0412393   0.5540512  -0.0714286), wk =   0.0029155
        k(   93) = (   0.0000000  -0.6123724   0.0000000), wk =   0.0007289
        k(   94) = (  -0.0412393  -0.6415330   0.0714286), wk =   0.0029155
        k(   95) = (  -0.0824786  -0.6706936   0.1428571), wk =   0.0029155
        k(   96) = (  -0.1237179  -0.6998541   0.2142857), wk =   0.0029155
        k(   97) = (  -0.1649572  -0.7290147   0.2857142), wk =   0.0029155
        k(   98) = (  -0.2061964  -0.7581753   0.3571428), wk =   0.0029155
        k(   99) = (  -0.2474357  -0.7873359   0.4285713), wk =   0.0029155
        k(  100) = (   0.2886750  -0.4082483  -0.4999999), wk =   0.0014577
        k(  101) = (   0.0824786  -0.0291606   0.0000000), wk =   0.0014577
        k(  102) = (   0.0000000  -0.0874818   0.1428571), wk =   0.0029155
        k(  103) = (  -0.0412393  -0.1166423   0.2142857), wk =   0.0029155
        k(  104) = (  -0.0824785  -0.1458029   0.2857142), wk =   0.0029155
        k(  105) = (  -0.1237178  -0.1749635   0.3571428), wk =   0.0029155
        k(  106) = (  -0.1649571  -0.2041241   0.4285713), wk =   0.0029155
        k(  107) = (   0.3711536   0.1749635  -0.4999999), wk =   0.0029155
        k(  108) = (   0.3299143   0.1458029  -0.4285713), wk =   0.0029155
        k(  109) = (   0.2886751   0.1166423  -0.3571428), wk =   0.0029155
        k(  110) = (   0.2474358   0.0874817  -0.2857142), wk =   0.0029155
        k(  111) = (   0.2061965   0.0583212  -0.2142857), wk =   0.0029155
        k(  112) = (   0.1649572   0.0291606  -0.1428571), wk =   0.0029155
        k(  113) = (   0.1237179  -0.0000000  -0.0714286), wk =   0.0029155
        k(  114) = (   0.0824786   0.0583212   0.0000000), wk =   0.0014577
        k(  115) = (   0.0000000   0.0000000   0.1428571), wk =   0.0014577
        k(  116) = (  -0.0412393  -0.0291606   0.2142857), wk =   0.0029155
        k(  117) = (  -0.0824785  -0.0583211   0.2857142), wk =   0.0029155
        k(  118) = (  -0.1237178  -0.0874817   0.3571428), wk =   0.0029155
        k(  119) = (  -0.1649571  -0.1166423   0.4285713), wk =   0.0029155
        k(  120) = (   0.3711536   0.2624452  -0.4999999), wk =   0.0029155
        k(  121) = (   0.3299143   0.2332847  -0.4285713), wk =   0.0029155
        k(  122) = (   0.2886751   0.2041241  -0.3571428), wk =   0.0029155
        k(  123) = (   0.2474358   0.1749635  -0.2857142), wk =   0.0029155
        k(  124) = (   0.2061965   0.1458029  -0.2142857), wk =   0.0029155
        k(  125) = (   0.1649572   0.1166423  -0.1428571), wk =   0.0029155
        k(  126) = (   0.1237179   0.0874818  -0.0714286), wk =   0.0029155
        k(  127) = (   0.0824786   0.1458030   0.0000000), wk =   0.0014577
        k(  128) = (  -0.0412393   0.0583212   0.2142857), wk =   0.0029155
        k(  129) = (  -0.0824785   0.0291606   0.2857142), wk =   0.0029155
        k(  130) = (  -0.1237178   0.0000001   0.3571428), wk =   0.0029155
        k(  131) = (  -0.1649571  -0.0291605   0.4285713), wk =   0.0029155
        k(  132) = (   0.3711536   0.3499270  -0.4999999), wk =   0.0029155
        k(  133) = (   0.3299143   0.3207664  -0.4285713), wk =   0.0029155
        k(  134) = (   0.2886751   0.2916059  -0.3571428), wk =   0.0029155
        k(  135) = (   0.2474358   0.2624453  -0.2857142), wk =   0.0029155
        k(  136) = (   0.2061965   0.2332847  -0.2142857), wk =   0.0029155
        k(  137) = (   0.1649572   0.2041241  -0.1428571), wk =   0.0029155
        k(  138) = (   0.1237179   0.1749635  -0.0714286), wk =   0.0029155
        k(  139) = (   0.0824786   0.2332847   0.0000000), wk =   0.0014577
        k(  140) = (   0.0000000   0.1749636   0.1428571), wk =   0.0029155
        k(  141) = (  -0.0412393   0.1458030   0.2142857), wk =   0.0029155
        k(  142) = (  -0.0824785   0.1166424   0.2857142), wk =   0.0029155
        k(  143) = (  -0.1237178   0.0874818   0.3571428), wk =   0.0029155
        k(  144) = (  -0.1649571   0.0583212   0.4285713), wk =   0.0029155
        k(  145) = (   0.3711536   0.4374088  -0.4999999), wk =   0.0029155
        k(  146) = (   0.3299143   0.4082482  -0.4285713), wk =   0.0029155
        k(  147) = (   0.2886751   0.3790876  -0.3571428), wk =   0.0029155
        k(  148) = (   0.2474358   0.3499270  -0.2857142), wk =   0.0029155
        k(  149) = (   0.2061965   0.3207665  -0.2142857), wk =   0.0029155
        k(  150) = (   0.1649572   0.2916059  -0.1428571), wk =   0.0029155
        k(  151) = (   0.1237179   0.2624453  -0.0714286), wk =   0.0029155
        k(  152) = (   0.0824786   0.3207665   0.0000000), wk =   0.0014577
        k(  153) = (   0.0000000   0.2624453   0.1428571), wk =   0.0029155
        k(  154) = (  -0.0412393   0.2332848   0.2142857), wk =   0.0029155
        k(  155) = (  -0.0824785   0.2041242   0.2857142), wk =   0.0029155
        k(  156) = (  -0.1237178   0.1749636   0.3571428), wk =   0.0029155
        k(  157) = (  -0.1649571   0.1458030   0.4285713), wk =   0.0029155
        k(  158) = (   0.3711536   0.5248906  -0.4999999), wk =   0.0029155
        k(  159) = (   0.3299143   0.4957300  -0.4285713), wk =   0.0029155
        k(  160) = (   0.2886751   0.4665694  -0.3571428), wk =   0.0029155
        k(  161) = (   0.2474358   0.4374088  -0.2857142), wk =   0.0029155
        k(  162) = (   0.2061965   0.4082482  -0.2142857), wk =   0.0029155
        k(  163) = (   0.1649572   0.3790877  -0.1428571), wk =   0.0029155
        k(  164) = (   0.1237179   0.3499271  -0.0714286), wk =   0.0029155
        k(  165) = (   0.0824786   0.4082483   0.0000000), wk =   0.0014577
        k(  166) = (   0.0000000   0.3499271   0.1428571), wk =   0.0029155
        k(  167) = (  -0.0412393   0.3207665   0.2142857), wk =   0.0029155
        k(  168) = (  -0.0824785   0.2916059   0.2857142), wk =   0.0029155
        k(  169) = (  -0.1237178   0.2624454   0.3571428), wk =   0.0029155
        k(  170) = (  -0.1649571   0.2332848   0.4285713), wk =   0.0029155
        k(  171) = (   0.3711536   0.6123723  -0.4999999), wk =   0.0029155
        k(  172) = (   0.3299143   0.5832118  -0.4285713), wk =   0.0029155
        k(  173) = (   0.2886751   0.5540512  -0.3571428), wk =   0.0029155
        k(  174) = (   0.2474358   0.5248906  -0.2857142), wk =   0.0029155
        k(  175) = (   0.2061965   0.4957300  -0.2142857), wk =   0.0029155
        k(  176) = (   0.1649572   0.4665694  -0.1428571), wk =   0.0029155
        k(  177) = (   0.1237179   0.4374088  -0.0714286), wk =   0.0029155
        k(  178) = (   0.0824786   0.4957300   0.0000000), wk =   0.0014577
        k(  179) = (   0.0000000   0.4374089   0.1428571), wk =   0.0029155
        k(  180) = (  -0.0412393   0.4082483   0.2142857), wk =   0.0029155
        k(  181) = (  -0.0824785   0.3790877   0.2857142), wk =   0.0029155
        k(  182) = (  -0.1237178   0.3499271   0.3571428), wk =   0.0029155
        k(  183) = (  -0.1649571   0.3207666   0.4285713), wk =   0.0029155
        k(  184) = (   0.3711536   0.6998541  -0.4999999), wk =   0.0029155
        k(  185) = (   0.3299143   0.6706935  -0.4285713), wk =   0.0029155
        k(  186) = (   0.2886751   0.6415329  -0.3571428), wk =   0.0029155
        k(  187) = (   0.2474358   0.6123724  -0.2857142), wk =   0.0029155
        k(  188) = (   0.2061965   0.5832118  -0.2142857), wk =   0.0029155
        k(  189) = (   0.1649572   0.5540512  -0.1428571), wk =   0.0029155
        k(  190) = (   0.1237179   0.5248906  -0.0714286), wk =   0.0029155
        k(  191) = (   0.0824786  -0.6415330   0.0000000), wk =   0.0014577
        k(  192) = (   0.0000000  -0.6998542   0.1428571), wk =   0.0029155
        k(  193) = (  -0.0412393  -0.7290147   0.2142857), wk =   0.0029155
        k(  194) = (  -0.0824785  -0.7581753   0.2857142), wk =   0.0029155
        k(  195) = (  -0.1237178  -0.7873359   0.3571428), wk =   0.0029155
        k(  196) = (  -0.1649571  -0.8164965   0.4285713), wk =   0.0029155
        k(  197) = (   0.3711536  -0.4374089  -0.4999999), wk =   0.0029155
        k(  198) = (   0.3299143  -0.4665695  -0.4285713), wk =   0.0029155
        k(  199) = (   0.2886751  -0.4957301  -0.3571428), wk =   0.0029155
        k(  200) = (   0.2474358  -0.5248907  -0.2857142), wk =   0.0029155
        k(  201) = (   0.2061965  -0.5540513  -0.2142857), wk =   0.0029155
        k(  202) = (   0.1649572  -0.5832118  -0.1428571), wk =   0.0029155
        k(  203) = (   0.1237179  -0.6123724  -0.0714286), wk =   0.0029155
        k(  204) = (   0.0824786  -0.5540512   0.0000000), wk =   0.0014577
        k(  205) = (   0.0000000  -0.6123724   0.1428571), wk =   0.0014577
        k(  206) = (  -0.0412393  -0.6415330   0.2142857), wk =   0.0029155
        k(  207) = (  -0.0824785  -0.6706935   0.2857142), wk =   0.0029155
        k(  208) = (  -0.1237178  -0.6998541   0.3571428), wk =   0.0029155
        k(  209) = (  -0.1649571  -0.7290147   0.4285713), wk =   0.0029155
        k(  210) = (   0.3711536  -0.3499272  -0.4999999), wk =   0.0029155
        k(  211) = (   0.3299143  -0.3790877  -0.4285713), wk =   0.0029155
        k(  212) = (   0.2886751  -0.4082483  -0.3571428), wk =   0.0029155
        k(  213) = (   0.2474358  -0.4374089  -0.2857142), wk =   0.0029155
        k(  214) = (   0.2061965  -0.4665695  -0.2142857), wk =   0.0029155
        k(  215) = (   0.1649572  -0.4957301  -0.1428571), wk =   0.0029155
        k(  216) = (   0.1237179  -0.5248906  -0.0714286), wk =   0.0029155
        k(  217) = (   0.0824786  -0.4665695   0.0000000), wk =   0.0014577
        k(  218) = (  -0.0412393  -0.5540512   0.2142857), wk =   0.0029155
        k(  219) = (  -0.0824785  -0.5832118   0.2857142), wk =   0.0029155
        k(  220) = (  -0.1237178  -0.6123724   0.3571428), wk =   0.0029155
        k(  221) = (  -0.1649571  -0.6415329   0.4285713), wk =   0.0029155
        k(  222) = (   0.3711536  -0.2624454  -0.4999999), wk =   0.0029155
        k(  223) = (   0.3299143  -0.2916060  -0.4285713), wk =   0.0029155
        k(  224) = (   0.2886751  -0.3207665  -0.3571428), wk =   0.0029155
        k(  225) = (   0.2474358  -0.3499271  -0.2857142), wk =   0.0029155
        k(  226) = (   0.2061965  -0.3790877  -0.2142857), wk =   0.0029155
        k(  227) = (   0.1649572  -0.4082483  -0.1428571), wk =   0.0029155
        k(  228) = (   0.1237179  -0.4374089  -0.0714286), wk =   0.0029155
        k(  229) = (   0.0824786  -0.3790877   0.0000000), wk =   0.0014577
        k(  230) = (  -0.0412393  -0.4665694   0.2142857), wk =   0.0029155
        k(  231) = (  -0.0824785  -0.4957300   0.2857142), wk =   0.0029155
        k(  232) = (  -0.1237178  -0.5248906   0.3571428), wk =   0.0029155
        k(  233) = (  -0.1649571  -0.5540512   0.4285713), wk =   0.0029155
        k(  234) = (   0.3711536  -0.1749636  -0.4999999), wk =   0.0029155
        k(  235) = (   0.3299143  -0.2041242  -0.4285713), wk =   0.0029155
        k(  236) = (   0.2886751  -0.2332848  -0.3571428), wk =   0.0029155
        k(  237) = (   0.2474358  -0.2624454  -0.2857142), wk =   0.0029155
        k(  238) = (   0.2061965  -0.2916059  -0.2142857), wk =   0.0029155
        k(  239) = (   0.1649572  -0.3207665  -0.1428571), wk =   0.0029155
        k(  240) = (   0.1237179  -0.3499271  -0.0714286), wk =   0.0029155
        k(  241) = (   0.0824786  -0.2916059   0.0000000), wk =   0.0014577
        k(  242) = (  -0.0412393  -0.3790876   0.2142857), wk =   0.0029155
        k(  243) = (  -0.0824785  -0.4082482   0.2857142), wk =   0.0029155
        k(  244) = (  -0.1237178  -0.4374088   0.3571428), wk =   0.0029155
        k(  245) = (  -0.1649571  -0.4665694   0.4285713), wk =   0.0029155
        k(  246) = (   0.3711536  -0.0874818  -0.4999999), wk =   0.0029155
        k(  247) = (   0.3299143  -0.1166424  -0.4285713), wk =   0.0029155
        k(  248) = (   0.2886751  -0.1458030  -0.3571428), wk =   0.0029155
        k(  249) = (   0.2474358  -0.1749636  -0.2857142), wk =   0.0029155
        k(  250) = (   0.2061965  -0.2041242  -0.2142857), wk =   0.0029155
        k(  251) = (   0.1649572  -0.2332847  -0.1428571), wk =   0.0029155
        k(  252) = (   0.1237179  -0.2624453  -0.0714286), wk =   0.0029155
        k(  253) = (   0.0824786  -0.2041241   0.0000000), wk =   0.0014577
        k(  254) = (  -0.0412393  -0.2916059   0.2142857), wk =   0.0029155
        k(  255) = (  -0.0824785  -0.3207665   0.2857142), wk =   0.0029155
        k(  256) = (  -0.1237178  -0.3499270   0.3571428), wk =   0.0029155
        k(  257) = (  -0.1649571  -0.3790876   0.4285713), wk =   0.0029155
        k(  258) = (   0.3711536  -0.0000001  -0.4999999), wk =   0.0029155
        k(  259) = (   0.3299143  -0.0291607  -0.4285713), wk =   0.0029155
        k(  260) = (   0.2886751  -0.0583212  -0.3571428), wk =   0.0029155
        k(  261) = (   0.2474358  -0.0874818  -0.2857142), wk =   0.0029155
        k(  262) = (   0.2061965  -0.1166424  -0.2142857), wk =   0.0029155
        k(  263) = (   0.1649572  -0.1458030  -0.1428571), wk =   0.0029155
        k(  264) = (   0.1237179  -0.1749636  -0.0714286), wk =   0.0029155
        k(  265) = (   0.0824786  -0.1166424   0.0000000), wk =   0.0014577
        k(  266) = (  -0.0412393  -0.2041241   0.2142857), wk =   0.0029155
        k(  267) = (  -0.0824785  -0.2332847   0.2857142), wk =   0.0029155
        k(  268) = (  -0.1237178  -0.2624453   0.3571428), wk =   0.0029155
        k(  269) = (  -0.1649571  -0.2916058   0.4285713), wk =   0.0029155
        k(  270) = (   0.3711536   0.0874817  -0.4999999), wk =   0.0029155
        k(  271) = (   0.3299143   0.0583211  -0.4285713), wk =   0.0029155
        k(  272) = (   0.2886751   0.0291605  -0.3571428), wk =   0.0029155
        k(  273) = (   0.2474358  -0.0000000  -0.2857142), wk =   0.0029155
        k(  274) = (   0.2061965  -0.0291606  -0.2142857), wk =   0.0029155
        k(  275) = (   0.1649572  -0.0583212  -0.1428571), wk =   0.0029155
        k(  276) = (   0.1237179  -0.0874818  -0.0714286), wk =   0.0029155
        k(  277) = (   0.1649572  -0.0583212   0.0000000), wk =   0.0014577
        k(  278) = (   0.0000001  -0.1749635   0.2857142), wk =   0.0029155
        k(  279) = (  -0.0412392  -0.2041241   0.3571428), wk =   0.0029155
        k(  280) = (  -0.0824785  -0.2332847   0.4285713), wk =   0.0029155
        k(  281) = (   0.4536322   0.1458029  -0.4999999), wk =   0.0029155
        k(  282) = (   0.4123930   0.1166423  -0.4285713), wk =   0.0029155
        k(  283) = (   0.3711537   0.0874817  -0.3571428), wk =   0.0029155
        k(  284) = (   0.3299144   0.0583211  -0.2857142), wk =   0.0029155
        k(  285) = (   0.2886751   0.0291606  -0.2142857), wk =   0.0029155
        k(  286) = (   0.2474358  -0.0000000  -0.1428571), wk =   0.0029155
        k(  287) = (   0.2061965  -0.0291606  -0.0714286), wk =   0.0029155
        k(  288) = (   0.1649572   0.0291606   0.0000000), wk =   0.0014577
        k(  289) = (   0.0000001  -0.0874817   0.2857142), wk =   0.0029155
        k(  290) = (  -0.0412392  -0.1166423   0.3571428), wk =   0.0029155
        k(  291) = (  -0.0824785  -0.1458029   0.4285713), wk =   0.0029155
        k(  292) = (   0.4536322   0.2332847  -0.4999999), wk =   0.0029155
        k(  293) = (   0.4123930   0.2041241  -0.4285713), wk =   0.0029155
        k(  294) = (   0.3711537   0.1749635  -0.3571428), wk =   0.0029155
        k(  295) = (   0.3299144   0.1458029  -0.2857142), wk =   0.0029155
        k(  296) = (   0.2886751   0.1166423  -0.2142857), wk =   0.0029155
        k(  297) = (   0.2474358   0.0874818  -0.1428571), wk =   0.0029155
        k(  298) = (   0.2061965   0.0583212  -0.0714286), wk =   0.0029155
        k(  299) = (   0.1649572   0.1166424   0.0000000), wk =   0.0014577
        k(  300) = (   0.0000001   0.0000000   0.2857142), wk =   0.0014577
        k(  301) = (  -0.0412392  -0.0291605   0.3571428), wk =   0.0029155
        k(  302) = (  -0.0824785  -0.0583211   0.4285713), wk =   0.0029155
        k(  303) = (   0.4536322   0.3207664  -0.4999999), wk =   0.0029155
        k(  304) = (   0.4123930   0.2916058  -0.4285713), wk =   0.0029155
        k(  305) = (   0.3711537   0.2624453  -0.3571428), wk =   0.0029155
        k(  306) = (   0.3299144   0.2332847  -0.2857142), wk =   0.0029155
        k(  307) = (   0.2886751   0.2041241  -0.2142857), wk =   0.0029155
        k(  308) = (   0.2474358   0.1749635  -0.1428571), wk =   0.0029155
        k(  309) = (   0.2061965   0.1458029  -0.0714286), wk =   0.0029155
        k(  310) = (   0.1649572   0.2041241   0.0000000), wk =   0.0014577
        k(  311) = (  -0.0412392   0.0583212   0.3571428), wk =   0.0029155
        k(  312) = (  -0.0824785   0.0291607   0.4285713), wk =   0.0029155
        k(  313) = (   0.4536322   0.4082482  -0.4999999), wk =   0.0029155
        k(  314) = (   0.4123930   0.3790876  -0.4285713), wk =   0.0029155
        k(  315) = (   0.3711537   0.3499270  -0.3571428), wk =   0.0029155
        k(  316) = (   0.3299144   0.3207665  -0.2857142), wk =   0.0029155
        k(  317) = (   0.2886751   0.2916059  -0.2142857), wk =   0.0029155
        k(  318) = (   0.2474358   0.2624453  -0.1428571), wk =   0.0029155
        k(  319) = (   0.2061965   0.2332847  -0.0714286), wk =   0.0029155
        k(  320) = (   0.1649572   0.2916059   0.0000000), wk =   0.0014577
        k(  321) = (  -0.0412392   0.1458030   0.3571428), wk =   0.0029155
        k(  322) = (  -0.0824785   0.1166424   0.4285713), wk =   0.0029155
        k(  323) = (   0.4536322   0.4957300  -0.4999999), wk =   0.0029155
        k(  324) = (   0.4123930   0.4665694  -0.4285713), wk =   0.0029155
        k(  325) = (   0.3711537   0.4374088  -0.3571428), wk =   0.0029155
        k(  326) = (   0.3299144   0.4082482  -0.2857142), wk =   0.0029155
        k(  327) = (   0.2886751   0.3790876  -0.2142857), wk =   0.0029155
        k(  328) = (   0.2474358   0.3499271  -0.1428571), wk =   0.0029155
        k(  329) = (   0.2061965   0.3207665  -0.0714286), wk =   0.0029155
        k(  330) = (   0.1649572   0.3790877   0.0000000), wk =   0.0014577
        k(  331) = (   0.0000001   0.2624454   0.2857142), wk =   0.0029155
        k(  332) = (  -0.0412392   0.2332848   0.3571428), wk =   0.0029155
        k(  333) = (  -0.0824785   0.2041242   0.4285713), wk =   0.0029155
        k(  334) = (   0.4536322   0.5832117  -0.4999999), wk =   0.0029155
        k(  335) = (   0.4123930   0.5540512  -0.4285713), wk =   0.0029155
        k(  336) = (   0.3711537   0.5248906  -0.3571428), wk =   0.0029155
        k(  337) = (   0.3299144   0.4957300  -0.2857142), wk =   0.0029155
        k(  338) = (   0.2886751   0.4665694  -0.2142857), wk =   0.0029155
        k(  339) = (   0.2474358   0.4374088  -0.1428571), wk =   0.0029155
        k(  340) = (   0.2061965   0.4082483  -0.0714286), wk =   0.0029155
        k(  341) = (   0.1649572   0.4665695   0.0000000), wk =   0.0014577
        k(  342) = (   0.0000001   0.3499271   0.2857142), wk =   0.0029155
        k(  343) = (  -0.0412392   0.3207665   0.3571428), wk =   0.0029155
        k(  344) = (  -0.0824785   0.2916060   0.4285713), wk =   0.0029155
        k(  345) = (   0.4536322   0.6706935  -0.4999999), wk =   0.0029155
        k(  346) = (   0.4123930   0.6415329  -0.4285713), wk =   0.0029155
        k(  347) = (   0.3711537   0.6123724  -0.3571428), wk =   0.0029155
        k(  348) = (   0.3299144   0.5832118  -0.2857142), wk =   0.0029155
        k(  349) = (   0.2886751   0.5540512  -0.2142857), wk =   0.0029155
        k(  350) = (   0.2474358   0.5248906  -0.1428571), wk =   0.0029155
        k(  351) = (   0.2061965   0.4957300  -0.0714286), wk =   0.0029155
        k(  352) = (   0.1649572  -0.6706936   0.0000000), wk =   0.0014577
        k(  353) = (   0.0000001  -0.7873359   0.2857142), wk =   0.0029155
        k(  354) = (  -0.0412392  -0.8164965   0.3571428), wk =   0.0029155
        k(  355) = (  -0.0824785  -0.8456571   0.4285713), wk =   0.0029155
        k(  356) = (   0.4536322  -0.4665695  -0.4999999), wk =   0.0029155
        k(  357) = (   0.4123930  -0.4957301  -0.4285713), wk =   0.0029155
        k(  358) = (   0.3711537  -0.5248907  -0.3571428), wk =   0.0029155
        k(  359) = (   0.3299144  -0.5540513  -0.2857142), wk =   0.0029155
        k(  360) = (   0.2886751  -0.5832118  -0.2142857), wk =   0.0029155
        k(  361) = (   0.2474358  -0.6123724  -0.1428571), wk =   0.0029155
        k(  362) = (   0.2061965  -0.6415330  -0.0714286), wk =   0.0029155
        k(  363) = (   0.1649572  -0.5832118   0.0000000), wk =   0.0014577
        k(  364) = (   0.0000001  -0.6998541   0.2857142), wk =   0.0029155
        k(  365) = (  -0.0412392  -0.7290147   0.3571428), wk =   0.0029155
        k(  366) = (  -0.0824785  -0.7581753   0.4285713), wk =   0.0029155
        k(  367) = (   0.4536322  -0.3790877  -0.4999999), wk =   0.0029155
        k(  368) = (   0.4123930  -0.4082483  -0.4285713), wk =   0.0029155
        k(  369) = (   0.3711537  -0.4374089  -0.3571428), wk =   0.0029155
        k(  370) = (   0.3299144  -0.4665695  -0.2857142), wk =   0.0029155
        k(  371) = (   0.2886751  -0.4957301  -0.2142857), wk =   0.0029155
        k(  372) = (   0.2474358  -0.5248907  -0.1428571), wk =   0.0029155
        k(  373) = (   0.2061965  -0.5540512  -0.0714286), wk =   0.0029155
        k(  374) = (   0.1649572  -0.4957300   0.0000000), wk =   0.0014577
        k(  375) = (   0.0000001  -0.6123724   0.2857142), wk =   0.0014577
        k(  376) = (  -0.0412392  -0.6415329   0.3571428), wk =   0.0029155
        k(  377) = (  -0.0824785  -0.6706935   0.4285713), wk =   0.0029155
        k(  378) = (   0.4536322  -0.2916060  -0.4999999), wk =   0.0029155
        k(  379) = (   0.4123930  -0.3207666  -0.4285713), wk =   0.0029155
        k(  380) = (   0.3711537  -0.3499271  -0.3571428), wk =   0.0029155
        k(  381) = (   0.3299144  -0.3790877  -0.2857142), wk =   0.0029155
        k(  382) = (   0.2886751  -0.4082483  -0.2142857), wk =   0.0029155
        k(  383) = (   0.2474358  -0.4374089  -0.1428571), wk =   0.0029155
        k(  384) = (   0.2061965  -0.4665695  -0.0714286), wk =   0.0029155
        k(  385) = (   0.1649572  -0.4082483   0.0000000), wk =   0.0014577
        k(  386) = (  -0.0412392  -0.5540512   0.3571428), wk =   0.0029155
        k(  387) = (  -0.0824785  -0.5832118   0.4285713), wk =   0.0029155
        k(  388) = (   0.4536322  -0.2041242  -0.4999999), wk =   0.0029155
        k(  389) = (   0.4123930  -0.2332848  -0.4285713), wk =   0.0029155
        k(  390) = (   0.3711537  -0.2624454  -0.3571428), wk =   0.0029155
        k(  391) = (   0.3299144  -0.2916059  -0.2857142), wk =   0.0029155
        k(  392) = (   0.2886751  -0.3207665  -0.2142857), wk =   0.0029155
        k(  393) = (   0.2474358  -0.3499271  -0.1428571), wk =   0.0029155
        k(  394) = (   0.2061965  -0.3790877  -0.0714286), wk =   0.0029155
        k(  395) = (   0.1649572  -0.3207665   0.0000000), wk =   0.0014577
        k(  396) = (  -0.0412392  -0.4665694   0.3571428), wk =   0.0029155
        k(  397) = (  -0.0824785  -0.4957300   0.4285713), wk =   0.0029155
        k(  398) = (   0.4536322  -0.1166424  -0.4999999), wk =   0.0029155
        k(  399) = (   0.4123930  -0.1458030  -0.4285713), wk =   0.0029155
        k(  400) = (   0.3711537  -0.1749636  -0.3571428), wk =   0.0029155
        k(  401) = (   0.3299144  -0.2041242  -0.2857142), wk =   0.0029155
        k(  402) = (   0.2886751  -0.2332848  -0.2142857), wk =   0.0029155
        k(  403) = (   0.2474358  -0.2624453  -0.1428571), wk =   0.0029155
        k(  404) = (   0.2061965  -0.2916059  -0.0714286), wk =   0.0029155
        k(  405) = (   0.1649572  -0.2332847   0.0000000), wk =   0.0014577
        k(  406) = (  -0.0412392  -0.3790876   0.3571428), wk =   0.0029155
        k(  407) = (  -0.0824785  -0.4082482   0.4285713), wk =   0.0029155
        k(  408) = (   0.4536322  -0.0291607  -0.4999999), wk =   0.0029155
        k(  409) = (   0.4123930  -0.0583212  -0.4285713), wk =   0.0029155
        k(  410) = (   0.3711537  -0.0874818  -0.3571428), wk =   0.0029155
        k(  411) = (   0.3299144  -0.1166424  -0.2857142), wk =   0.0029155
        k(  412) = (   0.2886751  -0.1458030  -0.2142857), wk =   0.0029155
        k(  413) = (   0.2474358  -0.1749636  -0.1428571), wk =   0.0029155
        k(  414) = (   0.2061965  -0.2041241  -0.0714286), wk =   0.0029155
        k(  415) = (   0.1649572  -0.1458030   0.0000000), wk =   0.0014577
        k(  416) = (  -0.0412392  -0.2916059   0.3571428), wk =   0.0029155
        k(  417) = (  -0.0824785  -0.3207664   0.4285713), wk =   0.0029155
        k(  418) = (   0.4536322   0.0583211  -0.4999999), wk =   0.0029155
        k(  419) = (   0.4123930   0.0291605  -0.4285713), wk =   0.0029155
        k(  420) = (   0.3711537  -0.0000001  -0.3571428), wk =   0.0029155
        k(  421) = (   0.3299144  -0.0291606  -0.2857142), wk =   0.0029155
        k(  422) = (   0.2886751  -0.0583212  -0.2142857), wk =   0.0029155
        k(  423) = (   0.2474358  -0.0874818  -0.1428571), wk =   0.0029155
        k(  424) = (   0.2061965  -0.1166424  -0.0714286), wk =   0.0029155
        k(  425) = (   0.2474358  -0.0874818   0.0000000), wk =   0.0014577
        k(  426) = (   0.0000001  -0.2624453   0.4285713), wk =   0.0029155
        k(  427) = (   0.5361108   0.1166423  -0.4999999), wk =   0.0029155
        k(  428) = (   0.4948716   0.0874817  -0.4285713), wk =   0.0029155
        k(  429) = (   0.4536323   0.0583211  -0.3571428), wk =   0.0029155
        k(  430) = (   0.4123930   0.0291605  -0.2857142), wk =   0.0029155
        k(  431) = (   0.3711537  -0.0000000  -0.2142857), wk =   0.0029155
        k(  432) = (   0.3299144  -0.0291606  -0.1428571), wk =   0.0029155
        k(  433) = (   0.2886751  -0.0583212  -0.0714286), wk =   0.0029155
        k(  434) = (   0.2474358   0.0000000   0.0000000), wk =   0.0014577
        k(  435) = (   0.0000001  -0.1749635   0.4285713), wk =   0.0029155
        k(  436) = (   0.5361108   0.2041241  -0.4999999), wk =   0.0029155
        k(  437) = (   0.4948716   0.1749635  -0.4285713), wk =   0.0029155
        k(  438) = (   0.4536323   0.1458029  -0.3571428), wk =   0.0029155
        k(  439) = (   0.4123930   0.1166423  -0.2857142), wk =   0.0029155
        k(  440) = (   0.3711537   0.0874817  -0.2142857), wk =   0.0029155
        k(  441) = (   0.3299144   0.0583212  -0.1428571), wk =   0.0029155
        k(  442) = (   0.2886751   0.0291606  -0.0714286), wk =   0.0029155
        k(  443) = (   0.2474358   0.0874818   0.0000000), wk =   0.0014577
        k(  444) = (   0.0000001  -0.0874817   0.4285713), wk =   0.0029155
        k(  445) = (   0.5361108   0.2916058  -0.4999999), wk =   0.0029155
        k(  446) = (   0.4948716   0.2624453  -0.4285713), wk =   0.0029155
        k(  447) = (   0.4536323   0.2332847  -0.3571428), wk =   0.0029155
        k(  448) = (   0.4123930   0.2041241  -0.2857142), wk =   0.0029155
        k(  449) = (   0.3711537   0.1749635  -0.2142857), wk =   0.0029155
        k(  450) = (   0.3299144   0.1458029  -0.1428571), wk =   0.0029155
        k(  451) = (   0.2886751   0.1166424  -0.0714286), wk =   0.0029155
        k(  452) = (   0.2474358   0.1749635   0.0000000), wk =   0.0014577
        k(  453) = (   0.0000001   0.0000001   0.4285713), wk =   0.0014577
        k(  454) = (   0.5361108   0.3790876  -0.4999999), wk =   0.0029155
        k(  455) = (   0.4948716   0.3499270  -0.4285713), wk =   0.0029155
        k(  456) = (   0.4536323   0.3207664  -0.3571428), wk =   0.0029155
        k(  457) = (   0.4123930   0.2916059  -0.2857142), wk =   0.0029155
        k(  458) = (   0.3711537   0.2624453  -0.2142857), wk =   0.0029155
        k(  459) = (   0.3299144   0.2332847  -0.1428571), wk =   0.0029155
        k(  460) = (   0.2886751   0.2041241  -0.0714286), wk =   0.0029155
        k(  461) = (   0.2474358   0.2624453   0.0000000), wk =   0.0014577
        k(  462) = (   0.5361108   0.4665694  -0.4999999), wk =   0.0029155
        k(  463) = (   0.4948716   0.4374088  -0.4285713), wk =   0.0029155
        k(  464) = (   0.4536323   0.4082482  -0.3571428), wk =   0.0029155
        k(  465) = (   0.4123930   0.3790876  -0.2857142), wk =   0.0029155
        k(  466) = (   0.3711537   0.3499271  -0.2142857), wk =   0.0029155
        k(  467) = (   0.3299144   0.3207665  -0.1428571), wk =   0.0029155
        k(  468) = (   0.2886751   0.2916059  -0.0714286), wk =   0.0029155
        k(  469) = (   0.2474358   0.3499271   0.0000000), wk =   0.0014577
        k(  470) = (   0.5361108   0.5540512  -0.4999999), wk =   0.0029155
        k(  471) = (   0.4948716   0.5248906  -0.4285713), wk =   0.0029155
        k(  472) = (   0.4536323   0.4957300  -0.3571428), wk =   0.0029155
        k(  473) = (   0.4123930   0.4665694  -0.2857142), wk =   0.0029155
        k(  474) = (   0.3711537   0.4374088  -0.2142857), wk =   0.0029155
        k(  475) = (   0.3299144   0.4082482  -0.1428571), wk =   0.0029155
        k(  476) = (   0.2886751   0.3790877  -0.0714286), wk =   0.0029155
        k(  477) = (   0.2474358   0.4374089   0.0000000), wk =   0.0014577
        k(  478) = (   0.5361108   0.6415329  -0.4999999), wk =   0.0029155
        k(  479) = (   0.4948716   0.6123723  -0.4285713), wk =   0.0029155
        k(  480) = (   0.4536323   0.5832118  -0.3571428), wk =   0.0029155
        k(  481) = (   0.4123930   0.5540512  -0.2857142), wk =   0.0029155
        k(  482) = (   0.3711537   0.5248906  -0.2142857), wk =   0.0029155
        k(  483) = (   0.3299144   0.4957300  -0.1428571), wk =   0.0029155
        k(  484) = (   0.2886751   0.4665694  -0.0714286), wk =   0.0029155
        k(  485) = (   0.2474358  -0.6998542   0.0000000), wk =   0.0014577
        k(  486) = (   0.0000001  -0.8748177   0.4285713), wk =   0.0029155
        k(  487) = (   0.5361108  -0.4957301  -0.4999999), wk =   0.0029155
        k(  488) = (   0.4948716  -0.5248907  -0.4285713), wk =   0.0029155
        k(  489) = (   0.4536323  -0.5540513  -0.3571428), wk =   0.0029155
        k(  490) = (   0.4123930  -0.5832119  -0.2857142), wk =   0.0029155
        k(  491) = (   0.3711537  -0.6123724  -0.2142857), wk =   0.0029155
        k(  492) = (   0.3299144  -0.6415330  -0.1428571), wk =   0.0029155
        k(  493) = (   0.2886751  -0.6706936  -0.0714286), wk =   0.0029155
        k(  494) = (   0.2474358  -0.6123724   0.0000000), wk =   0.0014577
        k(  495) = (   0.0000001  -0.7873359   0.4285713), wk =   0.0029155
        k(  496) = (   0.5361108  -0.4082483  -0.4999999), wk =   0.0029155
        k(  497) = (   0.4948716  -0.4374089  -0.4285713), wk =   0.0029155
        k(  498) = (   0.4536323  -0.4665695  -0.3571428), wk =   0.0029155
        k(  499) = (   0.4123930  -0.4957301  -0.2857142), wk =   0.0029155
        k(  500) = (   0.3711537  -0.5248907  -0.2142857), wk =   0.0029155
        k(  501) = (   0.3299144  -0.5540512  -0.1428571), wk =   0.0029155
        k(  502) = (   0.2886751  -0.5832118  -0.0714286), wk =   0.0029155
        k(  503) = (   0.2474358  -0.5248906   0.0000000), wk =   0.0014577
        k(  504) = (   0.0000001  -0.6998541   0.4285713), wk =   0.0029155
        k(  505) = (   0.5361108  -0.3207666  -0.4999999), wk =   0.0029155
        k(  506) = (   0.4948716  -0.3499271  -0.4285713), wk =   0.0029155
        k(  507) = (   0.4536323  -0.3790877  -0.3571428), wk =   0.0029155
        k(  508) = (   0.4123930  -0.4082483  -0.2857142), wk =   0.0029155
        k(  509) = (   0.3711537  -0.4374089  -0.2142857), wk =   0.0029155
        k(  510) = (   0.3299144  -0.4665695  -0.1428571), wk =   0.0029155
        k(  511) = (   0.2886751  -0.4957301  -0.0714286), wk =   0.0029155
        k(  512) = (   0.2474358  -0.4374089   0.0000000), wk =   0.0014577
        k(  513) = (   0.0000001  -0.6123723   0.4285713), wk =   0.0014577
        k(  514) = (   0.5361108  -0.2332848  -0.4999999), wk =   0.0029155
        k(  515) = (   0.4948716  -0.2624454  -0.4285713), wk =   0.0029155
        k(  516) = (   0.4536323  -0.2916060  -0.3571428), wk =   0.0029155
        k(  517) = (   0.4123930  -0.3207665  -0.2857142), wk =   0.0029155
        k(  518) = (   0.3711537  -0.3499271  -0.2142857), wk =   0.0029155
        k(  519) = (   0.3299144  -0.3790877  -0.1428571), wk =   0.0029155
        k(  520) = (   0.2886751  -0.4082483  -0.0714286), wk =   0.0029155
        k(  521) = (   0.2474358  -0.3499271   0.0000000), wk =   0.0014577
        k(  522) = (   0.5361108  -0.1458030  -0.4999999), wk =   0.0029155
        k(  523) = (   0.4948716  -0.1749636  -0.4285713), wk =   0.0029155
        k(  524) = (   0.4536323  -0.2041242  -0.3571428), wk =   0.0029155
        k(  525) = (   0.4123930  -0.2332848  -0.2857142), wk =   0.0029155
        k(  526) = (   0.3711537  -0.2624453  -0.2142857), wk =   0.0029155
        k(  527) = (   0.3299144  -0.2916059  -0.1428571), wk =   0.0029155
        k(  528) = (   0.2886751  -0.3207665  -0.0714286), wk =   0.0029155
        k(  529) = (   0.2474358  -0.2624453   0.0000000), wk =   0.0014577
        k(  530) = (   0.5361108  -0.0583213  -0.4999999), wk =   0.0029155
        k(  531) = (   0.4948716  -0.0874818  -0.4285713), wk =   0.0029155
        k(  532) = (   0.4536323  -0.1166424  -0.3571428), wk =   0.0029155
        k(  533) = (   0.4123930  -0.1458030  -0.2857142), wk =   0.0029155
        k(  534) = (   0.3711537  -0.1749636  -0.2142857), wk =   0.0029155
        k(  535) = (   0.3299144  -0.2041242  -0.1428571), wk =   0.0029155
        k(  536) = (   0.2886751  -0.2332847  -0.0714286), wk =   0.0029155
        k(  537) = (   0.2474358  -0.1749635   0.0000000), wk =   0.0014577
        k(  538) = (   0.5361108   0.0291605  -0.4999999), wk =   0.0029155
        k(  539) = (   0.4948716  -0.0000001  -0.4285713), wk =   0.0029155
        k(  540) = (   0.4536323  -0.0291606  -0.3571428), wk =   0.0029155
        k(  541) = (   0.4123930  -0.0583212  -0.2857142), wk =   0.0029155
        k(  542) = (   0.3711537  -0.0874818  -0.2142857), wk =   0.0029155
        k(  543) = (   0.3299144  -0.1166424  -0.1428571), wk =   0.0029155
        k(  544) = (   0.2886751  -0.1458030  -0.0714286), wk =   0.0029155
        k(  545) = (   0.3299144  -0.1166424   0.0000000), wk =   0.0014577
        k(  546) = (   0.5773502   0.0583211  -0.4285713), wk =   0.0029155
        k(  547) = (   0.5361109   0.0291605  -0.3571428), wk =   0.0029155
        k(  548) = (   0.4948716  -0.0000000  -0.2857142), wk =   0.0029155
        k(  549) = (   0.4536323  -0.0291606  -0.2142857), wk =   0.0029155
        k(  550) = (   0.4123930  -0.0583212  -0.1428571), wk =   0.0029155
        k(  551) = (   0.3711537  -0.0874818  -0.0714286), wk =   0.0029155
        k(  552) = (   0.3299144  -0.0291606   0.0000000), wk =   0.0014577
        k(  553) = (   0.5773502   0.1458029  -0.4285713), wk =   0.0029155
        k(  554) = (   0.5361109   0.1166423  -0.3571428), wk =   0.0029155
        k(  555) = (   0.4948716   0.0874817  -0.2857142), wk =   0.0029155
        k(  556) = (   0.4536323   0.0583212  -0.2142857), wk =   0.0029155
        k(  557) = (   0.4123930   0.0291606  -0.1428571), wk =   0.0029155
        k(  558) = (   0.3711537  -0.0000000  -0.0714286), wk =   0.0029155
        k(  559) = (   0.3299144   0.0583212   0.0000000), wk =   0.0014577
        k(  560) = (   0.5773502   0.2332847  -0.4285713), wk =   0.0029155
        k(  561) = (   0.5361109   0.2041241  -0.3571428), wk =   0.0029155
        k(  562) = (   0.4948716   0.1749635  -0.2857142), wk =   0.0029155
        k(  563) = (   0.4536323   0.1458029  -0.2142857), wk =   0.0029155
        k(  564) = (   0.4123930   0.1166423  -0.1428571), wk =   0.0029155
        k(  565) = (   0.3711537   0.0874818  -0.0714286), wk =   0.0029155
        k(  566) = (   0.3299144   0.1458030   0.0000000), wk =   0.0014577
        k(  567) = (   0.5773502   0.3207664  -0.4285713), wk =   0.0029155
        k(  568) = (   0.5361109   0.2916059  -0.3571428), wk =   0.0029155
        k(  569) = (   0.4948716   0.2624453  -0.2857142), wk =   0.0029155
        k(  570) = (   0.4536323   0.2332847  -0.2142857), wk =   0.0029155
        k(  571) = (   0.4123930   0.2041241  -0.1428571), wk =   0.0029155
        k(  572) = (   0.3711537   0.1749635  -0.0714286), wk =   0.0029155
        k(  573) = (   0.3299144   0.2332847   0.0000000), wk =   0.0014577
        k(  574) = (   0.5773502   0.4082482  -0.4285713), wk =   0.0014577
        k(  575) = (   0.5361109   0.3790876  -0.3571428), wk =   0.0029155
        k(  576) = (   0.4948716   0.3499270  -0.2857142), wk =   0.0029155
        k(  577) = (   0.4536323   0.3207665  -0.2142857), wk =   0.0029155
        k(  578) = (   0.4123930   0.2916059  -0.1428571), wk =   0.0029155
        k(  579) = (   0.3711537   0.2624453  -0.0714286), wk =   0.0029155
        k(  580) = (   0.3299144   0.3207665   0.0000000), wk =   0.0014577
        k(  581) = (   0.5361109   0.4665694  -0.3571428), wk =   0.0029155
        k(  582) = (   0.4948716   0.4374088  -0.2857142), wk =   0.0029155
        k(  583) = (   0.4536323   0.4082482  -0.2142857), wk =   0.0029155
        k(  584) = (   0.4123930   0.3790877  -0.1428571), wk =   0.0029155
        k(  585) = (   0.3711537   0.3499271  -0.0714286), wk =   0.0029155
        k(  586) = (   0.3299144   0.4082483   0.0000000), wk =   0.0014577
        k(  587) = (   0.5361109   0.5540512  -0.3571428), wk =   0.0029155
        k(  588) = (   0.4948716   0.5248906  -0.2857142), wk =   0.0029155
        k(  589) = (   0.4536323   0.4957300  -0.2142857), wk =   0.0029155
        k(  590) = (   0.4123930   0.4665694  -0.1428571), wk =   0.0029155
        k(  591) = (   0.3711537   0.4374088  -0.0714286), wk =   0.0029155
        k(  592) = (   0.3299144  -0.7290148   0.0000000), wk =   0.0014577
        k(  593) = (   0.5361109  -0.5832119  -0.3571428), wk =   0.0029155
        k(  594) = (   0.4948716  -0.6123724  -0.2857142), wk =   0.0029155
        k(  595) = (   0.4536323  -0.6415330  -0.2142857), wk =   0.0029155
        k(  596) = (   0.4123930  -0.6706936  -0.1428571), wk =   0.0029155
        k(  597) = (   0.3711537  -0.6998542  -0.0714286), wk =   0.0029155
        k(  598) = (   0.3299144  -0.6415330   0.0000000), wk =   0.0014577
        k(  599) = (   0.5361109  -0.4957301  -0.3571428), wk =   0.0029155
        k(  600) = (   0.4948716  -0.5248907  -0.2857142), wk =   0.0029155
        k(  601) = (   0.4536323  -0.5540513  -0.2142857), wk =   0.0029155
        k(  602) = (   0.4123930  -0.5832118  -0.1428571), wk =   0.0029155
        k(  603) = (   0.3711537  -0.6123724  -0.0714286), wk =   0.0029155
        k(  604) = (   0.3299144  -0.5540512   0.0000000), wk =   0.0014577
        k(  605) = (   0.5773502  -0.3790877  -0.4285713), wk =   0.0029155
        k(  606) = (   0.5361109  -0.4082483  -0.3571428), wk =   0.0029155
        k(  607) = (   0.4948716  -0.4374089  -0.2857142), wk =   0.0029155
        k(  608) = (   0.4536323  -0.4665695  -0.2142857), wk =   0.0029155
        k(  609) = (   0.4123930  -0.4957301  -0.1428571), wk =   0.0029155
        k(  610) = (   0.3711537  -0.5248906  -0.0714286), wk =   0.0029155
        k(  611) = (   0.3299144  -0.4665695   0.0000000), wk =   0.0014577
        k(  612) = (   0.5773502  -0.2916060  -0.4285713), wk =   0.0029155
        k(  613) = (   0.5361109  -0.3207665  -0.3571428), wk =   0.0029155
        k(  614) = (   0.4948716  -0.3499271  -0.2857142), wk =   0.0029155
        k(  615) = (   0.4536323  -0.3790877  -0.2142857), wk =   0.0029155
        k(  616) = (   0.4123930  -0.4082483  -0.1428571), wk =   0.0029155
        k(  617) = (   0.3711537  -0.4374089  -0.0714286), wk =   0.0029155
        k(  618) = (   0.3299144  -0.3790877   0.0000000), wk =   0.0014577
        k(  619) = (   0.5773502  -0.2041242  -0.4285713), wk =   0.0014577
        k(  620) = (   0.5361109  -0.2332848  -0.3571428), wk =   0.0029155
        k(  621) = (   0.4948716  -0.2624454  -0.2857142), wk =   0.0029155
        k(  622) = (   0.4536323  -0.2916059  -0.2142857), wk =   0.0029155
        k(  623) = (   0.4123930  -0.3207665  -0.1428571), wk =   0.0029155
        k(  624) = (   0.3711537  -0.3499271  -0.0714286), wk =   0.0029155
        k(  625) = (   0.3299144  -0.2916059   0.0000000), wk =   0.0014577
        k(  626) = (   0.5361109  -0.1458030  -0.3571428), wk =   0.0029155
        k(  627) = (   0.4948716  -0.1749636  -0.2857142), wk =   0.0029155
        k(  628) = (   0.4536323  -0.2041242  -0.2142857), wk =   0.0029155
        k(  629) = (   0.4123930  -0.2332847  -0.1428571), wk =   0.0029155
        k(  630) = (   0.3711537  -0.2624453  -0.0714286), wk =   0.0029155
        k(  631) = (   0.3299144  -0.2041241   0.0000000), wk =   0.0014577
        k(  632) = (   0.5361109  -0.0583212  -0.3571428), wk =   0.0029155
        k(  633) = (   0.4948716  -0.0874818  -0.2857142), wk =   0.0029155
        k(  634) = (   0.4536323  -0.1166424  -0.2142857), wk =   0.0029155
        k(  635) = (   0.4123930  -0.1458030  -0.1428571), wk =   0.0029155
        k(  636) = (   0.3711537  -0.1749636  -0.0714286), wk =   0.0029155
        k(  637) = (   0.4123930  -0.1458030   0.0000000), wk =   0.0014577
        k(  638) = (   0.5773502  -0.0291606  -0.2857142), wk =   0.0029155
        k(  639) = (   0.5361109  -0.0583212  -0.2142857), wk =   0.0029155
        k(  640) = (   0.4948716  -0.0874818  -0.1428571), wk =   0.0029155
        k(  641) = (   0.4536323  -0.1166424  -0.0714286), wk =   0.0029155
        k(  642) = (   0.4123930  -0.0583212   0.0000000), wk =   0.0014577
        k(  643) = (   0.5773502   0.0583211  -0.2857142), wk =   0.0029155
        k(  644) = (   0.5361109   0.0291606  -0.2142857), wk =   0.0029155
        k(  645) = (   0.4948716  -0.0000000  -0.1428571), wk =   0.0029155
        k(  646) = (   0.4536323  -0.0291606  -0.0714286), wk =   0.0029155
        k(  647) = (   0.4123930   0.0291606   0.0000000), wk =   0.0014577
        k(  648) = (   0.5773502   0.1458029  -0.2857142), wk =   0.0029155
        k(  649) = (   0.5361109   0.1166423  -0.2142857), wk =   0.0029155
        k(  650) = (   0.4948716   0.0874818  -0.1428571), wk =   0.0029155
        k(  651) = (   0.4536323   0.0583212  -0.0714286), wk =   0.0029155
        k(  652) = (   0.4123930   0.1166424   0.0000000), wk =   0.0014577
        k(  653) = (   0.5773502   0.2332847  -0.2857142), wk =   0.0029155
        k(  654) = (   0.5361109   0.2041241  -0.2142857), wk =   0.0029155
        k(  655) = (   0.4948716   0.1749635  -0.1428571), wk =   0.0029155
        k(  656) = (   0.4536323   0.1458029  -0.0714286), wk =   0.0029155
        k(  657) = (   0.4123930   0.2041241   0.0000000), wk =   0.0014577
        k(  658) = (   0.5773502   0.3207665  -0.2857142), wk =   0.0029155
        k(  659) = (   0.5361109   0.2916059  -0.2142857), wk =   0.0029155
        k(  660) = (   0.4948716   0.2624453  -0.1428571), wk =   0.0029155
        k(  661) = (   0.4536323   0.2332847  -0.0714286), wk =   0.0029155
        k(  662) = (   0.4123930   0.2916059   0.0000000), wk =   0.0014577
        k(  663) = (   0.5773502   0.4082482  -0.2857142), wk =   0.0014577
        k(  664) = (   0.5361109   0.3790876  -0.2142857), wk =   0.0029155
        k(  665) = (   0.4948716   0.3499271  -0.1428571), wk =   0.0029155
        k(  666) = (   0.4536323   0.3207665  -0.0714286), wk =   0.0029155
        k(  667) = (   0.4123930   0.3790877   0.0000000), wk =   0.0014577
        k(  668) = (   0.5361109   0.4665694  -0.2142857), wk =   0.0029155
        k(  669) = (   0.4948716   0.4374088  -0.1428571), wk =   0.0029155
        k(  670) = (   0.4536323   0.4082483  -0.0714286), wk =   0.0029155
        k(  671) = (   0.4123930  -0.7581754   0.0000000), wk =   0.0014577
        k(  672) = (   0.5361109  -0.6706936  -0.2142857), wk =   0.0029155
        k(  673) = (   0.4948716  -0.6998542  -0.1428571), wk =   0.0029155
        k(  674) = (   0.4536323  -0.7290148  -0.0714286), wk =   0.0029155
        k(  675) = (   0.4123930  -0.6706936   0.0000000), wk =   0.0014577
        k(  676) = (   0.5361109  -0.5832118  -0.2142857), wk =   0.0029155
        k(  677) = (   0.4948716  -0.6123724  -0.1428571), wk =   0.0029155
        k(  678) = (   0.4536323  -0.6415330  -0.0714286), wk =   0.0029155
        k(  679) = (   0.4123930  -0.5832118   0.0000000), wk =   0.0014577
        k(  680) = (   0.5361109  -0.4957301  -0.2142857), wk =   0.0029155
        k(  681) = (   0.4948716  -0.5248907  -0.1428571), wk =   0.0029155
        k(  682) = (   0.4536323  -0.5540512  -0.0714286), wk =   0.0029155
        k(  683) = (   0.4123930  -0.4957300   0.0000000), wk =   0.0014577
        k(  684) = (   0.5361109  -0.4082483  -0.2142857), wk =   0.0029155
        k(  685) = (   0.4948716  -0.4374089  -0.1428571), wk =   0.0029155
        k(  686) = (   0.4536323  -0.4665695  -0.0714286), wk =   0.0029155
        k(  687) = (   0.4123930  -0.4082483   0.0000000), wk =   0.0014577
        k(  688) = (   0.5773502  -0.2916059  -0.2857142), wk =   0.0029155
        k(  689) = (   0.5361109  -0.3207665  -0.2142857), wk =   0.0029155
        k(  690) = (   0.4948716  -0.3499271  -0.1428571), wk =   0.0029155
        k(  691) = (   0.4536323  -0.3790877  -0.0714286), wk =   0.0029155
        k(  692) = (   0.4123930  -0.3207665   0.0000000), wk =   0.0014577
        k(  693) = (   0.5773502  -0.2041242  -0.2857142), wk =   0.0014577
        k(  694) = (   0.5361109  -0.2332848  -0.2142857), wk =   0.0029155
        k(  695) = (   0.4948716  -0.2624453  -0.1428571), wk =   0.0029155
        k(  696) = (   0.4536323  -0.2916059  -0.0714286), wk =   0.0029155
        k(  697) = (   0.4123930  -0.2332847   0.0000000), wk =   0.0014577
        k(  698) = (   0.5361109  -0.1458030  -0.2142857), wk =   0.0029155
        k(  699) = (   0.4948716  -0.1749636  -0.1428571), wk =   0.0029155
        k(  700) = (   0.4536323  -0.2041241  -0.0714286), wk =   0.0029155
        k(  701) = (   0.4948716  -0.1749635   0.0000000), wk =   0.0014577
        k(  702) = (   0.5773502  -0.1166424  -0.1428571), wk =   0.0029155
        k(  703) = (   0.5361109  -0.1458030  -0.0714286), wk =   0.0029155
        k(  704) = (   0.4948716  -0.0874818   0.0000000), wk =   0.0014577
        k(  705) = (   0.5773502  -0.0291606  -0.1428571), wk =   0.0029155
        k(  706) = (   0.5361109  -0.0583212  -0.0714286), wk =   0.0029155
        k(  707) = (   0.4948716   0.0000000   0.0000000), wk =   0.0014577
        k(  708) = (   0.5773502   0.0583212  -0.1428571), wk =   0.0029155
        k(  709) = (   0.5361109   0.0291606  -0.0714286), wk =   0.0029155
        k(  710) = (   0.4948716   0.0874818   0.0000000), wk =   0.0014577
        k(  711) = (   0.5773502   0.1458029  -0.1428571), wk =   0.0029155
        k(  712) = (   0.5361109   0.1166424  -0.0714286), wk =   0.0029155
        k(  713) = (   0.4948716   0.1749635   0.0000000), wk =   0.0014577
        k(  714) = (   0.5773502   0.2332847  -0.1428571), wk =   0.0029155
        k(  715) = (   0.5361109   0.2041241  -0.0714286), wk =   0.0029155
        k(  716) = (   0.4948716   0.2624453   0.0000000), wk =   0.0014577
        k(  717) = (   0.5773502   0.3207665  -0.1428571), wk =   0.0029155
        k(  718) = (   0.5361109   0.2916059  -0.0714286), wk =   0.0029155
        k(  719) = (   0.4948716   0.3499271   0.0000000), wk =   0.0014577
        k(  720) = (   0.5773502   0.4082482  -0.1428571), wk =   0.0014577
        k(  721) = (   0.5361109   0.3790877  -0.0714286), wk =   0.0029155
        k(  722) = (   0.4948716  -0.7873359   0.0000000), wk =   0.0014577
        k(  723) = (   0.5361109  -0.7581754  -0.0714286), wk =   0.0029155
        k(  724) = (   0.4948716  -0.6998542   0.0000000), wk =   0.0014577
        k(  725) = (   0.5361109  -0.6706936  -0.0714286), wk =   0.0029155
        k(  726) = (   0.4948716  -0.6123724   0.0000000), wk =   0.0014577
        k(  727) = (   0.5361109  -0.5832118  -0.0714286), wk =   0.0029155
        k(  728) = (   0.4948716  -0.5248906   0.0000000), wk =   0.0014577
        k(  729) = (   0.5361109  -0.4957301  -0.0714286), wk =   0.0029155
        k(  730) = (   0.4948716  -0.4374089   0.0000000), wk =   0.0014577
        k(  731) = (   0.5361109  -0.4082483  -0.0714286), wk =   0.0029155
        k(  732) = (   0.4948716  -0.3499271   0.0000000), wk =   0.0014577
        k(  733) = (   0.5361109  -0.3207665  -0.0714286), wk =   0.0029155
        k(  734) = (   0.4948716  -0.2624453   0.0000000), wk =   0.0014577
        k(  735) = (   0.5773502  -0.2041242  -0.1428571), wk =   0.0014577
        k(  736) = (   0.5361109  -0.2332847  -0.0714286), wk =   0.0029155
        k(  737) = (  -0.5773503   0.2041241   0.0000000), wk =   0.0007289
        k(  738) = (  -0.5773503   0.2916059   0.0000000), wk =   0.0014577
        k(  739) = (  -0.5773503   0.3790877   0.0000000), wk =   0.0014577
        k(  740) = (  -0.5773503   0.4665695   0.0000000), wk =   0.0014577
        k(  741) = (  -0.5773503   0.5540512   0.0000000), wk =   0.0014577
        k(  742) = (  -0.5773503   0.6415330   0.0000000), wk =   0.0014577
        k(  743) = (  -0.5773503   0.7290148   0.0000000), wk =   0.0014577
        k(  744) = (  -0.5773503  -0.4082483   0.0000000), wk =   0.0007289

                       cryst. coord.
        k(    1) = (   0.0000000   0.0000000   0.0000000), wk =   0.0007289
        k(    2) = (   0.0000000  -0.0000000   0.0714286), wk =   0.0029155
        k(    3) = (   0.0000000  -0.0000000   0.1428571), wk =   0.0029155
        k(    4) = (   0.0000000  -0.0000000   0.2142857), wk =   0.0029155
        k(    5) = (   0.0000000  -0.0000000   0.2857143), wk =   0.0029155
        k(    6) = (   0.0000000   0.0000000   0.3571429), wk =   0.0029155
        k(    7) = (   0.0000000  -0.0000000   0.4285714), wk =   0.0029155
        k(    8) = (  -0.0000000   0.0000000  -0.5000000), wk =   0.0014577
        k(    9) = (   0.0000000   0.0714286   0.0000000), wk =   0.0014577
        k(   10) = (   0.0000000   0.0714286   0.0714286), wk =   0.0029155
        k(   11) = (   0.0000000   0.0714286   0.1428571), wk =   0.0029155
        k(   12) = (   0.0000000   0.0714286   0.2142857), wk =   0.0029155
        k(   13) = (   0.0000000   0.0714286   0.2857143), wk =   0.0029155
        k(   14) = (   0.0000000   0.0714286   0.3571429), wk =   0.0029155
        k(   15) = (   0.0000000   0.0714286   0.4285714), wk =   0.0029155
        k(   16) = (  -0.0000000   0.0714286  -0.5000000), wk =   0.0029155
        k(   17) = (  -0.0000000   0.0714286  -0.4285714), wk =   0.0029155
        k(   18) = (  -0.0000000   0.0714286  -0.3571429), wk =   0.0029155
        k(   19) = (   0.0000000   0.0714286  -0.2857143), wk =   0.0029155
        k(   20) = (  -0.0000000   0.0714286  -0.2142857), wk =   0.0029155
        k(   21) = (   0.0000000   0.0714286  -0.1428571), wk =   0.0029155
        k(   22) = (  -0.0000000   0.0714286  -0.0714286), wk =   0.0029155
        k(   23) = (   0.0000000   0.1428571   0.0000000), wk =   0.0014577
        k(   24) = (   0.0000000   0.1428571   0.0714286), wk =   0.0029155
        k(   25) = (   0.0000000   0.1428571   0.1428571), wk =   0.0029155
        k(   26) = (   0.0000000   0.1428571   0.2142857), wk =   0.0029155
        k(   27) = (   0.0000000   0.1428571   0.2857143), wk =   0.0029155
        k(   28) = (   0.0000000   0.1428571   0.3571429), wk =   0.0029155
        k(   29) = (   0.0000000   0.1428571   0.4285714), wk =   0.0029155
        k(   30) = (  -0.0000000   0.1428571  -0.5000000), wk =   0.0029155
        k(   31) = (  -0.0000000   0.1428571  -0.4285714), wk =   0.0029155
        k(   32) = (  -0.0000000   0.1428571  -0.3571429), wk =   0.0029155
        k(   33) = (   0.0000000   0.1428571  -0.2857143), wk =   0.0029155
        k(   34) = (  -0.0000000   0.1428571  -0.2142857), wk =   0.0029155
        k(   35) = (   0.0000000   0.1428571  -0.1428571), wk =   0.0029155
        k(   36) = (  -0.0000000   0.1428571  -0.0714286), wk =   0.0029155
        k(   37) = (   0.0000000   0.2142857   0.0000000), wk =   0.0014577
        k(   38) = (   0.0000000   0.2142857   0.0714286), wk =   0.0029155
        k(   39) = (   0.0000000   0.2142857   0.1428571), wk =   0.0029155
        k(   40) = (   0.0000000   0.2142857   0.2142857), wk =   0.0029155
        k(   41) = (   0.0000000   0.2142857   0.2857143), wk =   0.0029155
        k(   42) = (   0.0000000   0.2142857   0.3571429), wk =   0.0029155
        k(   43) = (   0.0000000   0.2142857   0.4285714), wk =   0.0029155
        k(   44) = (  -0.0000000   0.2142857  -0.5000000), wk =   0.0029155
        k(   45) = (  -0.0000000   0.2142857  -0.4285714), wk =   0.0029155
        k(   46) = (  -0.0000000   0.2142857  -0.3571429), wk =   0.0029155
        k(   47) = (   0.0000000   0.2142857  -0.2857143), wk =   0.0029155
        k(   48) = (  -0.0000000   0.2142857  -0.2142857), wk =   0.0029155
        k(   49) = (   0.0000000   0.2142857  -0.1428571), wk =   0.0029155
        k(   50) = (  -0.0000000   0.2142857  -0.0714286), wk =   0.0029155
        k(   51) = (   0.0000000   0.2857143   0.0000000), wk =   0.0014577
        k(   52) = (   0.0000000   0.2857143   0.0714286), wk =   0.0029155
        k(   53) = (   0.0000000   0.2857143   0.1428571), wk =   0.0029155
        k(   54) = (   0.0000000   0.2857143   0.2142857), wk =   0.0029155
        k(   55) = (   0.0000000   0.2857143   0.2857143), wk =   0.0029155
        k(   56) = (   0.0000000   0.2857143   0.3571429), wk =   0.0029155
        k(   57) = (   0.0000000   0.2857143   0.4285714), wk =   0.0029155
        k(   58) = (  -0.0000000   0.2857143  -0.5000000), wk =   0.0029155
        k(   59) = (  -0.0000000   0.2857143  -0.4285714), wk =   0.0029155
        k(   60) = (  -0.0000000   0.2857143  -0.3571429), wk =   0.0029155
        k(   61) = (   0.0000000   0.2857143  -0.2857143), wk =   0.0029155
        k(   62) = (  -0.0000000   0.2857143  -0.2142857), wk =   0.0029155
        k(   63) = (   0.0000000   0.2857143  -0.1428571), wk =   0.0029155
        k(   64) = (  -0.0000000   0.2857143  -0.0714286), wk =   0.0029155
        k(   65) = (   0.0000000   0.3571429   0.0000000), wk =   0.0014577
        k(   66) = (   0.0000000   0.3571429   0.0714286), wk =   0.0029155
        k(   67) = (   0.0000000   0.3571429   0.1428571), wk =   0.0029155
        k(   68) = (   0.0000000   0.3571429   0.2142857), wk =   0.0029155
        k(   69) = (   0.0000000   0.3571429   0.2857143), wk =   0.0029155
        k(   70) = (   0.0000000   0.3571429   0.3571429), wk =   0.0029155
        k(   71) = (   0.0000000   0.3571429   0.4285714), wk =   0.0029155
        k(   72) = (  -0.0000000   0.3571429  -0.5000000), wk =   0.0029155
        k(   73) = (  -0.0000000   0.3571429  -0.4285714), wk =   0.0029155
        k(   74) = (  -0.0000000   0.3571429  -0.3571429), wk =   0.0029155
        k(   75) = (   0.0000000   0.3571429  -0.2857143), wk =   0.0029155
        k(   76) = (  -0.0000000   0.3571429  -0.2142857), wk =   0.0029155
        k(   77) = (   0.0000000   0.3571429  -0.1428571), wk =   0.0029155
        k(   78) = (  -0.0000000   0.3571429  -0.0714286), wk =   0.0029155
        k(   79) = (   0.0000000   0.4285714   0.0000000), wk =   0.0014577
        k(   80) = (   0.0000000   0.4285714   0.0714286), wk =   0.0029155
        k(   81) = (   0.0000000   0.4285714   0.1428571), wk =   0.0029155
        k(   82) = (   0.0000000   0.4285714   0.2142857), wk =   0.0029155
        k(   83) = (   0.0000000   0.4285714   0.2857143), wk =   0.0029155
        k(   84) = (   0.0000000   0.4285714   0.3571429), wk =   0.0029155
        k(   85) = (   0.0000000   0.4285714   0.4285714), wk =   0.0029155
        k(   86) = (  -0.0000000   0.4285714  -0.5000000), wk =   0.0029155
        k(   87) = (  -0.0000000   0.4285714  -0.4285714), wk =   0.0029155
        k(   88) = (  -0.0000000   0.4285714  -0.3571429), wk =   0.0029155
        k(   89) = (   0.0000000   0.4285714  -0.2857143), wk =   0.0029155
        k(   90) = (  -0.0000000   0.4285714  -0.2142857), wk =   0.0029155
        k(   91) = (   0.0000000   0.4285714  -0.1428571), wk =   0.0029155
        k(   92) = (  -0.0000000   0.4285714  -0.0714286), wk =   0.0029155
        k(   93) = (   0.0000000  -0.5000000   0.0000000), wk =   0.0007289
        k(   94) = (   0.0000000  -0.5000000   0.0714286), wk =   0.0029155
        k(   95) = (   0.0000000  -0.5000000   0.1428571), wk =   0.0029155
        k(   96) = (   0.0000000  -0.5000000   0.2142857), wk =   0.0029155
        k(   97) = (   0.0000000  -0.5000000   0.2857143), wk =   0.0029155
        k(   98) = (   0.0000000  -0.5000000   0.3571429), wk =   0.0029155
        k(   99) = (   0.0000000  -0.5000000   0.4285714), wk =   0.0029155
        k(  100) = (  -0.0000000  -0.5000000  -0.5000000), wk =   0.0014577
        k(  101) = (   0.0714286   0.0000000   0.0000000), wk =   0.0014577
        k(  102) = (   0.0714286  -0.0000000   0.1428571), wk =   0.0029155
        k(  103) = (   0.0714286  -0.0000000   0.2142857), wk =   0.0029155
        k(  104) = (   0.0714286   0.0000000   0.2857143), wk =   0.0029155
        k(  105) = (   0.0714286   0.0000000   0.3571429), wk =   0.0029155
        k(  106) = (   0.0714286  -0.0000000   0.4285714), wk =   0.0029155
        k(  107) = (   0.0714286   0.0000000  -0.5000000), wk =   0.0029155
        k(  108) = (   0.0714286   0.0000000  -0.4285714), wk =   0.0029155
        k(  109) = (   0.0714286   0.0000000  -0.3571429), wk =   0.0029155
        k(  110) = (   0.0714286   0.0000000  -0.2857143), wk =   0.0029155
        k(  111) = (   0.0714286   0.0000000  -0.2142857), wk =   0.0029155
        k(  112) = (   0.0714286   0.0000000  -0.1428571), wk =   0.0029155
        k(  113) = (   0.0714286   0.0000000  -0.0714286), wk =   0.0029155
        k(  114) = (   0.0714286   0.0714286   0.0000000), wk =   0.0014577
        k(  115) = (   0.0714286   0.0714286   0.1428571), wk =   0.0014577
        k(  116) = (   0.0714286   0.0714286   0.2142857), wk =   0.0029155
        k(  117) = (   0.0714286   0.0714286   0.2857143), wk =   0.0029155
        k(  118) = (   0.0714286   0.0714286   0.3571429), wk =   0.0029155
        k(  119) = (   0.0714286   0.0714286   0.4285714), wk =   0.0029155
        k(  120) = (   0.0714286   0.0714286  -0.5000000), wk =   0.0029155
        k(  121) = (   0.0714286   0.0714286  -0.4285714), wk =   0.0029155
        k(  122) = (   0.0714286   0.0714286  -0.3571429), wk =   0.0029155
        k(  123) = (   0.0714286   0.0714286  -0.2857143), wk =   0.0029155
        k(  124) = (   0.0714286   0.0714286  -0.2142857), wk =   0.0029155
        k(  125) = (   0.0714286   0.0714286  -0.1428571), wk =   0.0029155
        k(  126) = (   0.0714286   0.0714286  -0.0714286), wk =   0.0029155
        k(  127) = (   0.0714286   0.1428571   0.0000000), wk =   0.0014577
        k(  128) = (   0.0714286   0.1428571   0.2142857), wk =   0.0029155
        k(  129) = (   0.0714286   0.1428571   0.2857143), wk =   0.0029155
        k(  130) = (   0.0714286   0.1428571   0.3571429), wk =   0.0029155
        k(  131) = (   0.0714286   0.1428571   0.4285714), wk =   0.0029155
        k(  132) = (   0.0714286   0.1428571  -0.5000000), wk =   0.0029155
        k(  133) = (   0.0714286   0.1428571  -0.4285714), wk =   0.0029155
        k(  134) = (   0.0714286   0.1428571  -0.3571429), wk =   0.0029155
        k(  135) = (   0.0714286   0.1428571  -0.2857143), wk =   0.0029155
        k(  136) = (   0.0714286   0.1428571  -0.2142857), wk =   0.0029155
        k(  137) = (   0.0714286   0.1428571  -0.1428571), wk =   0.0029155
        k(  138) = (   0.0714286   0.1428571  -0.0714286), wk =   0.0029155
        k(  139) = (   0.0714286   0.2142857   0.0000000), wk =   0.0014577
        k(  140) = (   0.0714286   0.2142857   0.1428571), wk =   0.0029155
        k(  141) = (   0.0714286   0.2142857   0.2142857), wk =   0.0029155
        k(  142) = (   0.0714286   0.2142857   0.2857143), wk =   0.0029155
        k(  143) = (   0.0714286   0.2142857   0.3571429), wk =   0.0029155
        k(  144) = (   0.0714286   0.2142857   0.4285714), wk =   0.0029155
        k(  145) = (   0.0714286   0.2142857  -0.5000000), wk =   0.0029155
        k(  146) = (   0.0714286   0.2142857  -0.4285714), wk =   0.0029155
        k(  147) = (   0.0714286   0.2142857  -0.3571429), wk =   0.0029155
        k(  148) = (   0.0714286   0.2142857  -0.2857143), wk =   0.0029155
        k(  149) = (   0.0714286   0.2142857  -0.2142857), wk =   0.0029155
        k(  150) = (   0.0714286   0.2142857  -0.1428571), wk =   0.0029155
        k(  151) = (   0.0714286   0.2142857  -0.0714286), wk =   0.0029155
        k(  152) = (   0.0714286   0.2857143   0.0000000), wk =   0.0014577
        k(  153) = (   0.0714286   0.2857143   0.1428571), wk =   0.0029155
        k(  154) = (   0.0714286   0.2857143   0.2142857), wk =   0.0029155
        k(  155) = (   0.0714286   0.2857143   0.2857143), wk =   0.0029155
        k(  156) = (   0.0714286   0.2857143   0.3571429), wk =   0.0029155
        k(  157) = (   0.0714286   0.2857143   0.4285714), wk =   0.0029155
        k(  158) = (   0.0714286   0.2857143  -0.5000000), wk =   0.0029155
        k(  159) = (   0.0714286   0.2857143  -0.4285714), wk =   0.0029155
        k(  160) = (   0.0714286   0.2857143  -0.3571429), wk =   0.0029155
        k(  161) = (   0.0714286   0.2857143  -0.2857143), wk =   0.0029155
        k(  162) = (   0.0714286   0.2857143  -0.2142857), wk =   0.0029155
        k(  163) = (   0.0714286   0.2857143  -0.1428571), wk =   0.0029155
        k(  164) = (   0.0714286   0.2857143  -0.0714286), wk =   0.0029155
        k(  165) = (   0.0714286   0.3571429   0.0000000), wk =   0.0014577
        k(  166) = (   0.0714286   0.3571429   0.1428571), wk =   0.0029155
        k(  167) = (   0.0714286   0.3571429   0.2142857), wk =   0.0029155
        k(  168) = (   0.0714286   0.3571429   0.2857143), wk =   0.0029155
        k(  169) = (   0.0714286   0.3571429   0.3571429), wk =   0.0029155
        k(  170) = (   0.0714286   0.3571429   0.4285714), wk =   0.0029155
        k(  171) = (   0.0714286   0.3571429  -0.5000000), wk =   0.0029155
        k(  172) = (   0.0714286   0.3571429  -0.4285714), wk =   0.0029155
        k(  173) = (   0.0714286   0.3571429  -0.3571429), wk =   0.0029155
        k(  174) = (   0.0714286   0.3571429  -0.2857143), wk =   0.0029155
        k(  175) = (   0.0714286   0.3571429  -0.2142857), wk =   0.0029155
        k(  176) = (   0.0714286   0.3571429  -0.1428571), wk =   0.0029155
        k(  177) = (   0.0714286   0.3571429  -0.0714286), wk =   0.0029155
        k(  178) = (   0.0714286   0.4285714   0.0000000), wk =   0.0014577
        k(  179) = (   0.0714286   0.4285714   0.1428571), wk =   0.0029155
        k(  180) = (   0.0714286   0.4285714   0.2142857), wk =   0.0029155
        k(  181) = (   0.0714286   0.4285714   0.2857143), wk =   0.0029155
        k(  182) = (   0.0714286   0.4285714   0.3571429), wk =   0.0029155
        k(  183) = (   0.0714286   0.4285714   0.4285714), wk =   0.0029155
        k(  184) = (   0.0714286   0.4285714  -0.5000000), wk =   0.0029155
        k(  185) = (   0.0714286   0.4285714  -0.4285714), wk =   0.0029155
        k(  186) = (   0.0714286   0.4285714  -0.3571429), wk =   0.0029155
        k(  187) = (   0.0714286   0.4285714  -0.2857143), wk =   0.0029155
        k(  188) = (   0.0714286   0.4285714  -0.2142857), wk =   0.0029155
        k(  189) = (   0.0714286   0.4285714  -0.1428571), wk =   0.0029155
        k(  190) = (   0.0714286   0.4285714  -0.0714286), wk =   0.0029155
        k(  191) = (   0.0714286  -0.5000000   0.0000000), wk =   0.0014577
        k(  192) = (   0.0714286  -0.5000000   0.1428571), wk =   0.0029155
        k(  193) = (   0.0714286  -0.5000000   0.2142857), wk =   0.0029155
        k(  194) = (   0.0714286  -0.5000000   0.2857143), wk =   0.0029155
        k(  195) = (   0.0714286  -0.5000000   0.3571429), wk =   0.0029155
        k(  196) = (   0.0714286  -0.5000000   0.4285714), wk =   0.0029155
        k(  197) = (   0.0714286  -0.5000000  -0.5000000), wk =   0.0029155
        k(  198) = (   0.0714286  -0.5000000  -0.4285714), wk =   0.0029155
        k(  199) = (   0.0714286  -0.5000000  -0.3571429), wk =   0.0029155
        k(  200) = (   0.0714286  -0.5000000  -0.2857143), wk =   0.0029155
        k(  201) = (   0.0714286  -0.5000000  -0.2142857), wk =   0.0029155
        k(  202) = (   0.0714286  -0.5000000  -0.1428571), wk =   0.0029155
        k(  203) = (   0.0714286  -0.5000000  -0.0714286), wk =   0.0029155
        k(  204) = (   0.0714286  -0.4285714   0.0000000), wk =   0.0014577
        k(  205) = (   0.0714286  -0.4285714   0.1428571), wk =   0.0014577
        k(  206) = (   0.0714286  -0.4285714   0.2142857), wk =   0.0029155
        k(  207) = (   0.0714286  -0.4285714   0.2857143), wk =   0.0029155
        k(  208) = (   0.0714286  -0.4285714   0.3571429), wk =   0.0029155
        k(  209) = (   0.0714286  -0.4285714   0.4285714), wk =   0.0029155
        k(  210) = (   0.0714286  -0.4285714  -0.5000000), wk =   0.0029155
        k(  211) = (   0.0714286  -0.4285714  -0.4285714), wk =   0.0029155
        k(  212) = (   0.0714286  -0.4285714  -0.3571429), wk =   0.0029155
        k(  213) = (   0.0714286  -0.4285714  -0.2857143), wk =   0.0029155
        k(  214) = (   0.0714286  -0.4285714  -0.2142857), wk =   0.0029155
        k(  215) = (   0.0714286  -0.4285714  -0.1428571), wk =   0.0029155
        k(  216) = (   0.0714286  -0.4285714  -0.0714286), wk =   0.0029155
        k(  217) = (   0.0714286  -0.3571429   0.0000000), wk =   0.0014577
        k(  218) = (   0.0714286  -0.3571429   0.2142857), wk =   0.0029155
        k(  219) = (   0.0714286  -0.3571429   0.2857143), wk =   0.0029155
        k(  220) = (   0.0714286  -0.3571429   0.3571429), wk =   0.0029155
        k(  221) = (   0.0714286  -0.3571429   0.4285714), wk =   0.0029155
        k(  222) = (   0.0714286  -0.3571429  -0.5000000), wk =   0.0029155
        k(  223) = (   0.0714286  -0.3571429  -0.4285714), wk =   0.0029155
        k(  224) = (   0.0714286  -0.3571429  -0.3571429), wk =   0.0029155
        k(  225) = (   0.0714286  -0.3571429  -0.2857143), wk =   0.0029155
        k(  226) = (   0.0714286  -0.3571429  -0.2142857), wk =   0.0029155
        k(  227) = (   0.0714286  -0.3571429  -0.1428571), wk =   0.0029155
        k(  228) = (   0.0714286  -0.3571429  -0.0714286), wk =   0.0029155
        k(  229) = (   0.0714286  -0.2857143   0.0000000), wk =   0.0014577
        k(  230) = (   0.0714286  -0.2857143   0.2142857), wk =   0.0029155
        k(  231) = (   0.0714286  -0.2857143   0.2857143), wk =   0.0029155
        k(  232) = (   0.0714286  -0.2857143   0.3571429), wk =   0.0029155
        k(  233) = (   0.0714286  -0.2857143   0.4285714), wk =   0.0029155
        k(  234) = (   0.0714286  -0.2857143  -0.5000000), wk =   0.0029155
        k(  235) = (   0.0714286  -0.2857143  -0.4285714), wk =   0.0029155
        k(  236) = (   0.0714286  -0.2857143  -0.3571429), wk =   0.0029155
[...]

     occupation numbers 
     1.0000   0.0000   0.0000   0.0000   0.0000   0.0000

          k = 0.5774 0.4082-0.2857 (   391 PWs)   bands (ev):

     5.5142   6.1469   7.5615  14.4745  16.1954  24.3962

     occupation numbers 
     1.0000   1.0000   0.9721   0.0000   0.0000   0.0000

          k = 0.5361 0.3791-0.2143 (   390 PWs)   bands (ev):

     4.8608   7.2982   7.7673  13.9628  15.5825  21.8862

     occupation numbers 
     1.0000   1.0036   0.0882   0.0000   0.0000   0.0000

          k = 0.4949 0.3499-0.1429 (   389 PWs)   bands (ev):

     3.3959   8.4772   9.4651  13.6865  15.1666  19.5749

     occupation numbers 
     1.0000   0.0000   0.0000   0.0000   0.0000   0.0000

          k = 0.4536 0.3208-0.0714 (   392 PWs)   bands (ev):

     2.1288   9.6305  11.6458  13.6458  14.7636  17.7614

     occupation numbers 
     1.0000   0.0000   0.0000   0.0000   0.0000   0.0000

          k = 0.4124 0.3791 0.0000 (   392 PWs)   bands (ev):

     2.1288   9.6305  11.6458  13.6458  14.7636  17.7614

     occupation numbers 
     1.0000   0.0000   0.0000   0.0000   0.0000   0.0000

          k = 0.5361 0.4666-0.2143 (   388 PWs)   bands (ev):

     5.6340   6.9163   7.4969  12.3752  17.2172  21.9390

     occupation numbers 
     1.0000   1.0000   1.0814   0.0000   0.0000   0.0000

          k = 0.4949 0.4374-0.1429 (   393 PWs)   bands (ev):

     4.5139   7.3093   9.3495  12.0556  16.6607  19.6187

     occupation numbers 
     1.0000   1.0050   0.0000   0.0000   0.0000   0.0000

          k = 0.4536 0.4082-0.0714 (   396 PWs)   bands (ev):

     3.2194   8.3209  11.0933  12.3132  15.8443  18.0412

     occupation numbers 
     1.0000   0.0000   0.0000   0.0000   0.0000   0.0000

          k = 0.4124-0.7582 0.0000 (   389 PWs)   bands (ev):

     3.3959   8.4772   9.4651  13.6865  15.1666  19.5749

     occupation numbers 
     1.0000   0.0000   0.0000   0.0000   0.0000   0.0000

          k = 0.5361-0.6707-0.2143 (   390 PWs)   bands (ev):

     5.2081   7.5833   8.0617  10.4699  19.6017  22.2555

     occupation numbers 
     1.0000   0.8908   0.0000   0.0000   0.0000   0.0000

          k = 0.4949-0.6999-0.1429 (   388 PWs)   bands (ev):

     5.4630   6.8034   9.0497  10.4925  18.5407  20.3118

     occupation numbers 
     1.0000   1.0000   0.0000   0.0000   0.0000   0.0000

          k = 0.4536-0.7290-0.0714 (   393 PWs)   bands (ev):

     4.5139   7.3093   9.3495  12.0556  16.6607  19.6187

     occupation numbers 
     1.0000   1.0050   0.0000   0.0000   0.0000   0.0000

          k = 0.4124-0.6707 0.0000 (   390 PWs)   bands (ev):

     4.8608   7.2982   7.7673  13.9628  15.5825  21.8862

     occupation numbers 
     1.0000   1.0036   0.0882   0.0000   0.0000   0.0000

          k = 0.5361-0.5832-0.2143 (   393 PWs)   bands (ev):

     4.6248   7.6846   9.0107   9.8425  21.8689  22.8294

     occupation numbers 
     1.0000   0.3659   0.0000   0.0000   0.0000   0.0000

          k = 0.4949-0.6124-0.1429 (   390 PWs)   bands (ev):

     5.2081   7.5833   8.0617  10.4699  19.6017  22.2555

     occupation numbers 
     1.0000   0.8908   0.0000   0.0000   0.0000   0.0000

          k = 0.4536-0.6415-0.0714 (   388 PWs)   bands (ev):

     5.6340   6.9163   7.4969  12.3752  17.2172  21.9390

     occupation numbers 
     1.0000   1.0000   1.0814   0.0000   0.0000   0.0000

          k = 0.4124-0.5832 0.0000 (   391 PWs)   bands (ev):

     5.5142   6.1469   7.5615  14.4745  16.1954  24.3962

     occupation numbers 
     1.0000   1.0000   0.9721   0.0000   0.0000   0.0000

          k = 0.5361-0.4957-0.2143 (   389 PWs)   bands (ev):

     4.2507   6.6020   9.4053  11.7111  21.0279  23.1475

     occupation numbers 
     1.0000   1.0000   0.0000   0.0000   0.0000   0.0000

          k = 0.4949-0.5249-0.1429 (   391 PWs)   bands (ev):

     4.7950   6.0334   9.8585  11.1213  20.4042  23.6124

     occupation numbers 
     1.0000   1.0000   0.0000   0.0000   0.0000   0.0000

          k = 0.4536-0.5541-0.0714 (   390 PWs)   bands (ev):

     5.4969   5.7124   8.3874  12.9810  17.9003  24.4578

     occupation numbers 
     1.0000   1.0000   0.0000   0.0000   0.0000   0.0000

          k = 0.4124-0.4957 0.0000 (   390 PWs)   bands (ev):

     3.9090   6.2577   9.0783  15.2212  17.0362  26.1848

     occupation numbers 
     1.0000   1.0000   0.0000   0.0000   0.0000   0.0000

          k = 0.5361-0.4082-0.2143 (   388 PWs)   bands (ev):

     4.1230   5.3409  10.3984  13.8399  18.7798  24.0356

     occupation numbers 
     1.0000   1.0000   0.0000   0.0000   0.0000   0.0000

          k = 0.4949-0.4374-0.1429 (   390 PWs)   bands (ev):

     4.4986   4.7197  11.8299  12.2121  21.0881  21.6192

     occupation numbers 
     1.0000   1.0000   0.0000   0.0000   0.0000   0.0000

          k = 0.4536-0.4666-0.0714 (   388 PWs)   bands (ev):

     4.1230   5.3409  10.3984  13.8399  18.7798  24.0356

     occupation numbers 
     1.0000   1.0000   0.0000   0.0000   0.0000   0.0000

          k = 0.4124-0.4082 0.0000 (   390 PWs)   bands (ev):

     2.5412   6.2060  11.2468  16.2016  18.0942  23.9090

     occupation numbers 
     1.0000   1.0000   0.0000   0.0000   0.0000   0.0000

          k = 0.5774-0.2916-0.2857 (   388 PWs)   bands (ev):

     4.1230   5.3409  10.3984  13.8399  18.7798  24.0358

     occupation numbers 
     1.0000   1.0000   0.0000   0.0000   0.0000   0.0000

          k = 0.5361-0.3208-0.2143 (   389 PWs)   bands (ev):

     4.1556   4.3713  11.6847  15.5352  17.3543  24.3200

     occupation numbers 
     1.0000   1.0000   0.0000   0.0000   0.0000   0.0000

          k = 0.4949-0.3499-0.1429 (   386 PWs)   bands (ev):

     3.4196   4.6716  13.2009  14.3339  19.2197  22.3720

     occupation numbers 
     1.0000   1.0000   0.0000   0.0000   0.0000   0.0000

          k = 0.4536-0.3791-0.0714 (   388 PWs)   bands (ev):

     2.8507   5.3162  12.6751  14.9386  19.8356  21.8640

     occupation numbers 
     1.0000   1.0000   0.0000   0.0000   0.0000   0.0000

          k = 0.4124-0.3208 0.0000 (   388 PWs)   bands (ev):

     1.4265   6.3609  13.6624  17.4125  19.3177  21.8390

     occupation numbers 
     1.0000   1.0000   0.0000   0.0000   0.0000   0.0000

          k = 0.5774-0.2041-0.2857 (   390 PWs)   bands (ev):

     4.4986   4.7197  11.8299  12.2121  21.0881  21.6193

     occupation numbers 
     1.0000   1.0000   0.0000   0.0000   0.0000   0.0000

          k = 0.5361-0.2333-0.2143 (   386 PWs)   bands (ev):

     3.4196   4.6716  13.2009  14.3339  19.2197  22.3719

     occupation numbers 
     1.0000   1.0000   0.0000   0.0000   0.0000   0.0000

          k = 0.4949-0.2624-0.1429 (   387 PWs)   bands (ev):

     2.4957   4.9771  14.6447  16.1628  17.9521  22.7505

     occupation numbers 
     1.0000   1.0000   0.0000   0.0000   0.0000   0.0000

          k = 0.4536-0.2916-0.0714 (   388 PWs)   bands (ev):

     1.8289   5.5428  15.1125  16.2610  19.8428  21.0375

     occupation numbers 
     1.0000   1.0000   0.0000   0.0000   0.0000   0.0000

          k = 0.4124-0.2333 0.0000 (   388 PWs)   bands (ev):

     0.5729   6.7607  16.1942  18.8290  20.0200  20.4955

     occupation numbers 
     1.0000   1.0000   0.0000   0.0000   0.0000   0.0000

          k = 0.5361-0.1458-0.2143 (   388 PWs)   bands (ev):

     2.8507   5.3162  12.6751  14.9386  19.8357  21.8639

     occupation numbers 
     1.0000   1.0000   0.0000   0.0000   0.0000   0.0000

          k = 0.4949-0.1750-0.1429 (   388 PWs)   bands (ev):

     1.8289   5.5428  15.1125  16.2610  19.8428  21.0375

     occupation numbers 
     1.0000   1.0000   0.0000   0.0000   0.0000   0.0000

          k = 0.4536-0.2041-0.0714 (   387 PWs)   bands (ev):

     1.0678   6.0250  17.1026  17.7611  18.6573  21.4931

     occupation numbers 
     1.0000   1.0000   0.0000   0.0000   0.0000   0.0000

          k = 0.4949-0.1750 0.0000 (   386 PWs)   bands (ev):

     1.4718   5.1983  18.5379  18.5380  19.6836  19.6836

     occupation numbers 
     1.0000   1.0000   0.0000   0.0000   0.0000   0.0000

          k = 0.5774-0.1166-0.1429 (   393 PWs)   bands (ev):

     3.0706   4.3204  14.0284  16.6727  18.5161  22.1825

     occupation numbers 
     1.0000   1.0000   0.0000   0.0000   0.0000   0.0000

          k = 0.5361-0.1458-0.0714 (   392 PWs)   bands (ev):

     2.1416   4.6282  16.4798  18.0375  19.6508  20.2704

     occupation numbers 
     1.0000   1.0000   0.0000   0.0000   0.0000   0.0000

          k = 0.4949-0.0875 0.0000 (   387 PWs)   bands (ev):

     1.0678   6.0250  17.1026  17.7611  18.6572  21.4923

     occupation numbers 
     1.0000   1.0000   0.0000   0.0000   0.0000   0.0000

          k = 0.5774-0.0292-0.1429 (   388 PWs)   bands (ev):

     2.8507   5.3162  12.6751  14.9386  19.8357  21.8639

     occupation numbers 
     1.0000   1.0000   0.0000   0.0000   0.0000   0.0000

          k = 0.5361-0.0583-0.0714 (   388 PWs)   bands (ev):

     1.8289   5.5428  15.1125  16.2610  19.8428  21.0374

     occupation numbers 
     1.0000   1.0000   0.0000   0.0000   0.0000   0.0000

          k = 0.4949 0.0000 0.0000 (   391 PWs)   bands (ev):

     0.9322   7.1012  15.5058  15.8855  17.6288  23.5335

     occupation numbers 
     1.0000   1.0000   0.0000   0.0000   0.0000   0.0000

          k = 0.5774 0.0583-0.1429 (   391 PWs)   bands (ev):

     2.8922   6.5513  11.5505  12.7554  20.8189  22.0753

     occupation numbers 
     1.0000   1.0000   0.0000   0.0000   0.0000   0.0000

          k = 0.5361 0.0292-0.0714 (   387 PWs)   bands (ev):

     1.7826   6.7051  13.8428  14.1115  18.8253  23.0747

     occupation numbers 
     1.0000   1.0000   0.0000   0.0000   0.0000   0.0000

          k = 0.4949 0.0875 0.0000 (   389 PWs)   bands (ev):

     1.0654   8.4145  13.3459  14.9030  16.5915  22.7207

     occupation numbers 
     1.0000   0.0000   0.0000   0.0000   0.0000   0.0000

          k = 0.5774 0.1458-0.1429 (   395 PWs)   bands (ev):

     3.1945   7.9729  10.4927  10.9671  19.9166  22.4864

     occupation numbers 
     1.0000   0.0001   0.0000   0.0000   0.0000   0.0000

          k = 0.5361 0.1166-0.0714 (   399 PWs)   bands (ev):

     2.0025   8.0965  11.8705  13.0474  17.8635  22.4860

     occupation numbers 
     1.0000   0.0000   0.0000   0.0000   0.0000   0.0000

          k = 0.4949 0.1750 0.0000 (   388 PWs)   bands (ev):

     1.4658   9.9359  11.3885  14.1564  15.6824  20.0260

     occupation numbers 
     1.0000   0.0000   0.0000   0.0000   0.0000   0.0000

          k = 0.5774 0.2333-0.1429 (   393 PWs)   bands (ev):

     3.7483   8.8171   9.2200  10.6761  18.7050  20.4542

     occupation numbers 
     1.0000   0.0000   0.0000   0.0000   0.0000   0.0000

          k = 0.5361 0.2041-0.0714 (   392 PWs)   bands (ev):

     2.4849   9.6293  10.0230  12.3901  16.9912  19.9178

     occupation numbers 
     1.0000   0.0000   0.0000   0.0000   0.0000   0.0000

          k = 0.4949 0.2624 0.0000 (   392 PWs)   bands (ev):

     2.1288   9.6305  11.6458  13.6458  14.7636  17.7614

     occupation numbers 
     1.0000   0.0000   0.0000   0.0000   0.0000   0.0000

          k = 0.5774 0.3208-0.1429 (   393 PWs)   bands (ev):

     4.5139   7.3093   9.3495  12.0556  16.6607  19.6187

     occupation numbers 
     1.0000   1.0050   0.0000   0.0000   0.0000   0.0000

          k = 0.5361 0.2916-0.0714 (   396 PWs)   bands (ev):

     3.2194   8.3209  11.0933  12.3132  15.8443  18.0412

     occupation numbers 
     1.0000   0.0000   0.0000   0.0000   0.0000   0.0000

          k = 0.4949 0.3499 0.0000 (   392 PWs)   bands (ev):

     3.0427   8.1507  13.2358  13.3713  13.3713  16.7214

     occupation numbers 
     1.0000   0.0000   0.0000   0.0000   0.0000   0.0000

          k = 0.5774 0.4082-0.1429 (   385 PWs)   bands (ev):

     5.1208   6.4515   9.2804  13.5298  14.9931  19.4224

     occupation numbers 
     1.0000   1.0000   0.0000   0.0000   0.0000   0.0000

          k = 0.5361 0.3791-0.0714 (   388 PWs)   bands (ev):

     4.1655   6.9652  11.3057  13.3326  14.4199  17.4449

     occupation numbers 
     1.0000   1.0000   0.0000   0.0000   0.0000   0.0000

          k = 0.4949-0.7873 0.0000 (   388 PWs)   bands (ev):

     4.1655   6.9652  11.3057  13.3326  14.4199  17.4449

     occupation numbers 
     1.0000   1.0000   0.0000   0.0000   0.0000   0.0000

          k = 0.5361-0.7582-0.0714 (   390 PWs)   bands (ev):

     4.9497   6.2765  10.9234  12.1488  15.6775  17.8849

     occupation numbers 
     1.0000   1.0000   0.0000   0.0000   0.0000   0.0000

          k = 0.4949-0.6999 0.0000 (   385 PWs)   bands (ev):

     5.1208   6.4515   9.2804  13.5298  14.9931  19.4224

     occupation numbers 
     1.0000   1.0000   0.0000   0.0000   0.0000   0.0000

          k = 0.5361-0.6707-0.0714 (   393 PWs)   bands (ev):

     4.5139   7.3093   9.3495  12.0556  16.6607  19.6187

     occupation numbers 
     1.0000   1.0050   0.0000   0.0000   0.0000   0.0000

          k = 0.4949-0.6124 0.0000 (   390 PWs)   bands (ev):

     4.8608   7.2982   7.7673  13.9628  15.5825  21.8862

     occupation numbers 
     1.0000   1.0036   0.0882   0.0000   0.0000   0.0000

          k = 0.5361-0.5832-0.0714 (   392 PWs)   bands (ev):

     3.9238   7.5683   9.0394  12.5418  17.3802  22.0792

     occupation numbers 
     1.0000   0.9493   0.0000   0.0000   0.0000   0.0000

          k = 0.4949-0.5249 0.0000 (   389 PWs)   bands (ev):

     4.4454   5.7131   9.5503  14.6314  16.3629  24.5116

     occupation numbers 
     1.0000   1.0000   0.0000   0.0000   0.0000   0.0000

          k = 0.5361-0.4957-0.0714 (   389 PWs)   bands (ev):

     3.5469   6.0100  11.0050  13.3125  18.2161  24.3285

     occupation numbers 
     1.0000   1.0000   0.0000   0.0000   0.0000   0.0000

          k = 0.4949-0.4374 0.0000 (   389 PWs)   bands (ev):

     4.1556   4.3713  11.6847  15.5351  17.3543  24.3201

     occupation numbers 
     1.0000   1.0000   0.0000   0.0000   0.0000   0.0000

          k = 0.5361-0.4082-0.0714 (   386 PWs)   bands (ev):

     3.4196   4.6716  13.2009  14.3339  19.2197  22.3719

     occupation numbers 
     1.0000   1.0000   0.0000   0.0000   0.0000   0.0000

          k = 0.4949-0.3499 0.0000 (   393 PWs)   bands (ev):

     3.0706   4.3204  14.0284  16.6727  18.5161  22.1824

     occupation numbers 
     1.0000   1.0000   0.0000   0.0000   0.0000   0.0000

          k = 0.5361-0.3208-0.0714 (   386 PWs)   bands (ev):

     3.4672   3.6640  15.4862  15.6463  20.1409  20.5123

     occupation numbers 
     1.0000   1.0000   0.0000   0.0000   0.0000   0.0000

          k = 0.4949-0.2624 0.0000 (   392 PWs)   bands (ev):

     2.1416   4.6282  16.4798  18.0375  19.6508  20.2704

     occupation numbers 
     1.0000   1.0000   0.0000   0.0000   0.0000   0.0000

          k = 0.5774-0.2041-0.1429 (   386 PWs)   bands (ev):

     3.4672   3.6640  15.4861  15.6463  20.1408  20.5123

     occupation numbers 
     1.0000   1.0000   0.0000   0.0000   0.0000   0.0000

          k = 0.5361-0.2333-0.0714 (   391 PWs)   bands (ev):

     2.7173   3.9720  17.0037  17.4564  19.0354  20.7675

     occupation numbers 
     1.0000   1.0000   0.0000   0.0000   0.0000   0.0000

          k =-0.5774 0.2041 0.0000 (   392 PWs)   bands (ev):

     3.1217   3.3055  18.8317  18.8317  19.1612  22.5898

     occupation numbers 
     1.0000   1.0000   0.0000   0.0000   0.0000   0.0000

          k =-0.5774 0.2916 0.0000 (   391 PWs)   bands (ev):

     2.7173   3.9720  17.0037  17.4564  19.0352  20.7675

     occupation numbers 
     1.0000   1.0000   0.0000   0.0000   0.0000   0.0000

          k =-0.5774 0.3791 0.0000 (   387 PWs)   bands (ev):

     2.4957   4.9771  14.6447  16.1628  17.9521  22.7508

     occupation numbers 
     1.0000   1.0000   0.0000   0.0000   0.0000   0.0000

          k =-0.5774 0.4666 0.0000 (   391 PWs)   bands (ev):

     2.5370   6.2330  12.3888  15.1019  16.8552  24.8230

     occupation numbers 
     1.0000   1.0000   0.0000   0.0000   0.0000   0.0000

          k =-0.5774 0.5541 0.0000 (   392 PWs)   bands (ev):

     2.8401   7.7214  10.3359  14.2763  15.9240  22.1709

     occupation numbers 
     1.0000   0.2109   0.0000   0.0000   0.0000   0.0000

          k =-0.5774 0.6415 0.0000 (   389 PWs)   bands (ev):

     3.3959   8.4772   9.4651  13.6865  15.1666  19.5749

     occupation numbers 
     1.0000   0.0000   0.0000   0.0000   0.0000   0.0000

          k =-0.5774 0.7290 0.0000 (   388 PWs)   bands (ev):

     4.1655   6.9652  11.3057  13.3326  14.4199  17.4449

     occupation numbers 
     1.0000   1.0000   0.0000   0.0000   0.0000   0.0000

          k =-0.5774-0.4082 0.0000 (   388 PWs)   bands (ev):

     4.7786   6.0986  13.0551  13.2146  13.2146  16.5572

     occupation numbers 
     1.0000   1.0000   0.0000   0.0000   0.0000   0.0000

     the Fermi energy is     7.6775 ev

!    total energy              =      -6.64309729 Ry
     Harris-Foulkes estimate   =      -6.64309762 Ry
     estimated scf accuracy    <       0.00000137 Ry

     The total energy is the sum of the following terms:

     one-electron contribution =       2.98380707 Ry
     hartree contribution      =       0.00842474 Ry
     xc contribution           =      -4.22897783 Ry
     ewald contribution        =      -5.40634338 Ry
     smearing contrib. (-TS)   =      -0.00000789 Ry

     convergence has been achieved in   3 iterations
 
     init_run     :     14.37s CPU      1.75s WALL (       1 calls)
     electrons    :    238.28s CPU     21.51s WALL (       1 calls)

     Called by init_run:
     wfcinit      :     14.21s CPU      1.62s WALL (       1 calls)
     wfcinit:atom :      0.32s CPU      0.04s WALL (     744 calls)
     wfcinit:wfcr :     13.13s CPU      1.50s WALL (     744 calls)
     potinit      :      0.01s CPU      0.01s WALL (       1 calls)

     Called by electrons:
     c_bands      :    229.23s CPU     19.32s WALL (       4 calls)
     sum_band     :      8.20s CPU      2.15s WALL (       4 calls)
     v_of_rho     :      0.02s CPU      0.00s WALL (       4 calls)
     v_h          :      0.00s CPU      0.00s WALL (       4 calls)
     v_xc         :      0.01s CPU      0.00s WALL (       4 calls)
     newd         :      0.10s CPU      0.01s WALL (       4 calls)
     mix_rho      :      0.01s CPU      0.00s WALL (       4 calls)

     Called by c_bands:
     init_us_2    :      3.63s CPU      0.46s WALL (    6696 calls)
     cegterg      :    211.56s CPU     17.54s WALL (    2976 calls)

     Called by sum_band:
     sum_band:bec :      0.09s CPU      0.01s WALL (    2976 calls)
     addusdens    :      0.01s CPU      0.01s WALL (       4 calls)

     Called by *egterg:
     h_psi        :    195.22s CPU     16.74s WALL (   10192 calls)
     s_psi        :      1.64s CPU      0.15s WALL (   10192 calls)
     g_psi        :      0.84s CPU      0.07s WALL (    6472 calls)
     cdiaghg      :     10.24s CPU      0.82s WALL (    8704 calls)
     cegterg:over :      2.43s CPU      0.20s WALL (    6472 calls)
     cegterg:upda :      2.21s CPU      0.18s WALL (    6472 calls)
     cegterg:last :      1.62s CPU      0.13s WALL (    3380 calls)

     Called by h_psi:
     h_psi:pot    :    193.61s CPU     16.61s WALL (   10192 calls)
     h_psi:calbec :      2.44s CPU      0.20s WALL (   10192 calls)
     vloc_psi     :    187.23s CPU     16.11s WALL (   10192 calls)
     add_vuspsi   :      1.73s CPU      0.15s WALL (   10192 calls)

     General routines
     calbec       :      1.54s CPU      0.15s WALL (   13168 calls)
     fft          :      0.02s CPU      0.01s WALL (      26 calls)
     fftw         :    157.07s CPU     14.76s WALL (  119504 calls)
 
     Parallel routines
 
     PWSCF        :  4m12.82s CPU     0m23.32s WALL

 
   This run was terminated on:  12:27: 9  24Jan2019            

=------------------------------------------------------------------------------=
   JOB DONE.
=------------------------------------------------------------------------------=
