
     Program PWSCF v.6.2 (svn rev. 14038) starts on 30Jan2019 at 19: 6:50 

     This program is part of the open-source Quantum ESPRESSO suite
     for quantum simulation of materials; please cite
         "P. Giannozzi et al., J. Phys.:Condens. Matter 21 395502 (2009);
         "P. Giannozzi et al., J. Phys.:Condens. Matter 29 465901 (2017);
          URL http://www.quantum-espresso.org", 
     in publications or presentations arising from this work. More details at
     http://www.quantum-espresso.org/quote

     Parallel version (MPI), running on     1 processors

     MPI processes distributed on     1 nodes
     Reading input from ./Alkpoint24.in
Warning: card &IONS ignored
Warning: card / ignored
Warning: card &CELL ignored
Warning: card / ignored

     Current dimensions of program PWSCF are:
     Max number of different atomic species (ntypx) = 10
     Max number of k-points (npk) =  40000
     Max angular momentum in pseudopotentials (lmaxx) =  3
     Message from routine iosys:
     minimal I/O required, wf_collect reset to FALSE

     Subspace diagonalization in iterative solution of the eigenvalue problem:
     a serial algorithm will be used

 
     G-vector sticks info
     --------------------
     sticks:   dense  smooth     PW     G-vecs:    dense   smooth      PW
     Sum         283     283    129                 3103     3103     887
 


     bravais-lattice index     =            0
     lattice parameter (alat)  =       5.2705  a.u.
     unit-cell volume          =     112.7033 (a.u.)^3
     number of atoms/cell      =            1
     number of atomic types    =            1
     number of electrons       =         3.00
     number of Kohn-Sham states=            6
     kinetic-energy cutoff     =      35.0000  Ry
     charge density cutoff     =     140.0000  Ry
     convergence threshold     =      1.0E-06
     mixing beta               =       0.7000
     number of iterations used =            8  plain     mixing
     Exchange-correlation      = SLA  PW   PBE  PBE ( 1  4  3  4 0 0)

     celldm(1)=   5.270512  celldm(2)=   0.000000  celldm(3)=   0.000000
     celldm(4)=   0.000000  celldm(5)=   0.000000  celldm(6)=   0.000000

     crystal axes: (cart. coord. in units of alat)
               a(1) = (   0.577350   0.577350   0.577350 )  
               a(2) = (   0.577350  -0.577350  -0.577350 )  
               a(3) = (  -0.577350   0.577350  -0.577350 )  

     reciprocal axes: (cart. coord. in units 2 pi/alat)
               b(1) = (  0.866025  0.866025  0.000000 )  
               b(2) = (  0.866025  0.000000 -0.866025 )  
               b(3) = (  0.000000  0.866025 -0.866025 )  


     PseudoPot. # 1 for Al read from file:
     ./al_pbe_v1.uspp.F.UPF
     MD5 check sum: 0a6289f5291fc8f409219462bc851e1f
     Pseudo is Ultrasoft + core correction, Zval =  3.0
     Generated by new atomic code, or converted to UPF format
     Using radial grid of  893 points,  3 beta functions with: 
                l(1) =   0
                l(2) =   1
                l(3) =   2
     Q(r) pseudized with  8 coefficients,  rinner =    0.900   0.900   0.900
                                                       0.900   0.900

     atomic species   valence    mass     pseudopotential
        Al             3.00    26.98150     Al( 1.00)

     48 Sym. Ops., with inversion, found


                                    s                        frac. trans.

      isym =  1     identity                                     

 cryst.   s( 1) = (     1          0          0      )
                  (     0          1          0      )
                  (     0          0          1      )

 cart.    s( 1) = (  1.0000000  0.0000000  0.0000000 )
                  (  0.0000000  1.0000000  0.0000000 )
                  (  0.0000000  0.0000000  1.0000000 )


      isym =  2     180 deg rotation - cart. axis [0,0,1]        

 cryst.   s( 2) = (    -1         -1         -1      )
                  (     0          0          1      )
                  (     0          1          0      )

 cart.    s( 2) = ( -1.0000000  0.0000000  0.0000000 )
                  (  0.0000000 -1.0000000  0.0000000 )
                  (  0.0000000  0.0000000  1.0000000 )


      isym =  3     180 deg rotation - cart. axis [0,1,0]        

 cryst.   s( 3) = (     0          0          1      )
                  (    -1         -1         -1      )
                  (     1          0          0      )

 cart.    s( 3) = ( -1.0000000  0.0000000  0.0000000 )
                  (  0.0000000  1.0000000  0.0000000 )
                  (  0.0000000  0.0000000 -1.0000000 )


      isym =  4     180 deg rotation - cart. axis [1,0,0]        

 cryst.   s( 4) = (     0          1          0      )
                  (     1          0          0      )
                  (    -1         -1         -1      )

 cart.    s( 4) = (  1.0000000  0.0000000  0.0000000 )
                  (  0.0000000 -1.0000000  0.0000000 )
                  (  0.0000000  0.0000000 -1.0000000 )


      isym =  5     180 deg rotation - cart. axis [1,1,0]        

 cryst.   s( 5) = (     1          1          1      )
                  (     0         -1          0      )
                  (     0          0         -1      )

 cart.    s( 5) = (  0.0000000  1.0000000  0.0000000 )
                  (  1.0000000  0.0000000  0.0000000 )
                  (  0.0000000  0.0000000 -1.0000000 )


      isym =  6     180 deg rotation - cart. axis [1,-1,0]       

 cryst.   s( 6) = (    -1          0          0      )
                  (     0          0         -1      )
                  (     0         -1          0      )

 cart.    s( 6) = (  0.0000000 -1.0000000  0.0000000 )
                  ( -1.0000000  0.0000000  0.0000000 )
                  (  0.0000000  0.0000000 -1.0000000 )


      isym =  7      90 deg rotation - cart. axis [0,0,-1]       

 cryst.   s( 7) = (     0          0         -1      )
                  (    -1          0          0      )
                  (     1          1          1      )

 cart.    s( 7) = (  0.0000000  1.0000000  0.0000000 )
                  ( -1.0000000  0.0000000  0.0000000 )
                  (  0.0000000  0.0000000  1.0000000 )


      isym =  8      90 deg rotation - cart. axis [0,0,1]        

 cryst.   s( 8) = (     0         -1          0      )
                  (     1          1          1      )
                  (    -1          0          0      )

 cart.    s( 8) = (  0.0000000 -1.0000000  0.0000000 )
                  (  1.0000000  0.0000000  0.0000000 )
                  (  0.0000000  0.0000000  1.0000000 )


      isym =  9     180 deg rotation - cart. axis [1,0,1]        

 cryst.   s( 9) = (     0          0         -1      )
                  (     0         -1          0      )
                  (    -1          0          0      )

 cart.    s( 9) = (  0.0000000  0.0000000  1.0000000 )
                  (  0.0000000 -1.0000000  0.0000000 )
                  (  1.0000000  0.0000000  0.0000000 )


      isym = 10     180 deg rotation - cart. axis [-1,0,1]       

 cryst.   s(10) = (    -1          0          0      )
                  (     1          1          1      )
                  (     0          0         -1      )

 cart.    s(10) = (  0.0000000  0.0000000 -1.0000000 )
                  (  0.0000000 -1.0000000  0.0000000 )
                  ( -1.0000000  0.0000000  0.0000000 )


      isym = 11      90 deg rotation - cart. axis [0,1,0]        

 cryst.   s(11) = (     1          1          1      )
                  (    -1          0          0      )
                  (     0         -1          0      )

 cart.    s(11) = (  0.0000000  0.0000000  1.0000000 )
                  (  0.0000000  1.0000000  0.0000000 )
                  ( -1.0000000  0.0000000  0.0000000 )


      isym = 12      90 deg rotation - cart. axis [0,-1,0]       

 cryst.   s(12) = (     0         -1          0      )
                  (     0          0         -1      )
                  (     1          1          1      )

 cart.    s(12) = (  0.0000000  0.0000000 -1.0000000 )
                  (  0.0000000  1.0000000  0.0000000 )
                  (  1.0000000  0.0000000  0.0000000 )


      isym = 13     180 deg rotation - cart. axis [0,1,1]        

 cryst.   s(13) = (     0         -1          0      )
                  (    -1          0          0      )
                  (     0          0         -1      )

 cart.    s(13) = ( -1.0000000  0.0000000  0.0000000 )
                  (  0.0000000  0.0000000  1.0000000 )
                  (  0.0000000  1.0000000  0.0000000 )


      isym = 14     180 deg rotation - cart. axis [0,1,-1]       

 cryst.   s(14) = (    -1          0          0      )
                  (     0         -1          0      )
                  (     1          1          1      )

 cart.    s(14) = ( -1.0000000  0.0000000  0.0000000 )
                  (  0.0000000  0.0000000 -1.0000000 )
                  (  0.0000000 -1.0000000  0.0000000 )


      isym = 15      90 deg rotation - cart. axis [-1,0,0]       

 cryst.   s(15) = (     1          1          1      )
                  (     0          0         -1      )
                  (    -1          0          0      )

 cart.    s(15) = (  1.0000000  0.0000000  0.0000000 )
                  (  0.0000000  0.0000000  1.0000000 )
                  (  0.0000000 -1.0000000  0.0000000 )


      isym = 16      90 deg rotation - cart. axis [1,0,0]        

 cryst.   s(16) = (     0          0         -1      )
                  (     1          1          1      )
                  (     0         -1          0      )

 cart.    s(16) = (  1.0000000  0.0000000  0.0000000 )
                  (  0.0000000  0.0000000 -1.0000000 )
                  (  0.0000000  1.0000000  0.0000000 )


      isym = 17     120 deg rotation - cart. axis [-1,-1,-1]     

 cryst.   s(17) = (     1          0          0      )
                  (    -1         -1         -1      )
                  (     0          1          0      )

 cart.    s(17) = (  0.0000000  1.0000000  0.0000000 )
                  (  0.0000000  0.0000000  1.0000000 )
                  (  1.0000000  0.0000000  0.0000000 )


      isym = 18     120 deg rotation - cart. axis [-1,1,1]       

 cryst.   s(18) = (     0          0          1      )
                  (     0          1          0      )
                  (    -1         -1         -1      )

 cart.    s(18) = (  0.0000000 -1.0000000  0.0000000 )
                  (  0.0000000  0.0000000  1.0000000 )
                  ( -1.0000000  0.0000000  0.0000000 )


      isym = 19     120 deg rotation - cart. axis [1,1,-1]       

 cryst.   s(19) = (     0          1          0      )
                  (     0          0          1      )
                  (     1          0          0      )

 cart.    s(19) = (  0.0000000  1.0000000  0.0000000 )
                  (  0.0000000  0.0000000 -1.0000000 )
                  ( -1.0000000  0.0000000  0.0000000 )


      isym = 20     120 deg rotation - cart. axis [1,-1,1]       

 cryst.   s(20) = (    -1         -1         -1      )
                  (     1          0          0      )
                  (     0          0          1      )

 cart.    s(20) = (  0.0000000 -1.0000000  0.0000000 )
                  (  0.0000000  0.0000000 -1.0000000 )
                  (  1.0000000  0.0000000  0.0000000 )


      isym = 21     120 deg rotation - cart. axis [1,1,1]        

 cryst.   s(21) = (     1          0          0      )
                  (     0          0          1      )
                  (    -1         -1         -1      )

 cart.    s(21) = (  0.0000000  0.0000000  1.0000000 )
                  (  1.0000000  0.0000000  0.0000000 )
                  (  0.0000000  1.0000000  0.0000000 )


      isym = 22     120 deg rotation - cart. axis [-1,1,-1]      

 cryst.   s(22) = (     0          1          0      )
                  (    -1         -1         -1      )
                  (     0          0          1      )

 cart.    s(22) = (  0.0000000  0.0000000  1.0000000 )
                  ( -1.0000000  0.0000000  0.0000000 )
                  (  0.0000000 -1.0000000  0.0000000 )


      isym = 23     120 deg rotation - cart. axis [1,-1,-1]      

 cryst.   s(23) = (    -1         -1         -1      )
                  (     0          1          0      )
                  (     1          0          0      )

 cart.    s(23) = (  0.0000000  0.0000000 -1.0000000 )
                  ( -1.0000000  0.0000000  0.0000000 )
                  (  0.0000000  1.0000000  0.0000000 )


      isym = 24     120 deg rotation - cart. axis [-1,-1,1]      

 cryst.   s(24) = (     0          0          1      )
                  (     1          0          0      )
                  (     0          1          0      )

 cart.    s(24) = (  0.0000000  0.0000000 -1.0000000 )
                  (  1.0000000  0.0000000  0.0000000 )
                  (  0.0000000 -1.0000000  0.0000000 )


      isym = 25     inversion                                    

 cryst.   s(25) = (    -1          0          0      )
                  (     0         -1          0      )
                  (     0          0         -1      )

 cart.    s(25) = ( -1.0000000  0.0000000  0.0000000 )
                  (  0.0000000 -1.0000000  0.0000000 )
                  (  0.0000000  0.0000000 -1.0000000 )


      isym = 26     inv. 180 deg rotation - cart. axis [0,0,1]   

 cryst.   s(26) = (     1          1          1      )
                  (     0          0         -1      )
                  (     0         -1          0      )

 cart.    s(26) = (  1.0000000  0.0000000  0.0000000 )
                  (  0.0000000  1.0000000  0.0000000 )
                  (  0.0000000  0.0000000 -1.0000000 )


      isym = 27     inv. 180 deg rotation - cart. axis [0,1,0]   

 cryst.   s(27) = (     0          0         -1      )
                  (     1          1          1      )
                  (    -1          0          0      )

 cart.    s(27) = (  1.0000000  0.0000000  0.0000000 )
                  (  0.0000000 -1.0000000  0.0000000 )
                  (  0.0000000  0.0000000  1.0000000 )


      isym = 28     inv. 180 deg rotation - cart. axis [1,0,0]   

 cryst.   s(28) = (     0         -1          0      )
                  (    -1          0          0      )
                  (     1          1          1      )

 cart.    s(28) = ( -1.0000000  0.0000000  0.0000000 )
                  (  0.0000000  1.0000000  0.0000000 )
                  (  0.0000000  0.0000000  1.0000000 )


      isym = 29     inv. 180 deg rotation - cart. axis [1,1,0]   

 cryst.   s(29) = (    -1         -1         -1      )
                  (     0          1          0      )
                  (     0          0          1      )

 cart.    s(29) = (  0.0000000 -1.0000000  0.0000000 )
                  ( -1.0000000  0.0000000  0.0000000 )
                  (  0.0000000  0.0000000  1.0000000 )


      isym = 30     inv. 180 deg rotation - cart. axis [1,-1,0]  

 cryst.   s(30) = (     1          0          0      )
                  (     0          0          1      )
                  (     0          1          0      )

 cart.    s(30) = (  0.0000000  1.0000000  0.0000000 )
                  (  1.0000000  0.0000000  0.0000000 )
                  (  0.0000000  0.0000000  1.0000000 )


      isym = 31     inv.  90 deg rotation - cart. axis [0,0,-1]  

 cryst.   s(31) = (     0          0          1      )
                  (     1          0          0      )
                  (    -1         -1         -1      )

 cart.    s(31) = (  0.0000000 -1.0000000  0.0000000 )
                  (  1.0000000  0.0000000  0.0000000 )
                  (  0.0000000  0.0000000 -1.0000000 )


      isym = 32     inv.  90 deg rotation - cart. axis [0,0,1]   

 cryst.   s(32) = (     0          1          0      )
                  (    -1         -1         -1      )
                  (     1          0          0      )

 cart.    s(32) = (  0.0000000  1.0000000  0.0000000 )
                  ( -1.0000000  0.0000000  0.0000000 )
                  (  0.0000000  0.0000000 -1.0000000 )


      isym = 33     inv. 180 deg rotation - cart. axis [1,0,1]   

 cryst.   s(33) = (     0          0          1      )
                  (     0          1          0      )
                  (     1          0          0      )

 cart.    s(33) = (  0.0000000  0.0000000 -1.0000000 )
                  (  0.0000000  1.0000000  0.0000000 )
                  ( -1.0000000  0.0000000  0.0000000 )


      isym = 34     inv. 180 deg rotation - cart. axis [-1,0,1]  

 cryst.   s(34) = (     1          0          0      )
                  (    -1         -1         -1      )
                  (     0          0          1      )

 cart.    s(34) = (  0.0000000  0.0000000  1.0000000 )
                  (  0.0000000  1.0000000  0.0000000 )
                  (  1.0000000  0.0000000  0.0000000 )


      isym = 35     inv.  90 deg rotation - cart. axis [0,1,0]   

 cryst.   s(35) = (    -1         -1         -1      )
                  (     1          0          0      )
                  (     0          1          0      )

 cart.    s(35) = (  0.0000000  0.0000000 -1.0000000 )
                  (  0.0000000 -1.0000000  0.0000000 )
                  (  1.0000000  0.0000000  0.0000000 )


      isym = 36     inv.  90 deg rotation - cart. axis [0,-1,0]  

 cryst.   s(36) = (     0          1          0      )
                  (     0          0          1      )
                  (    -1         -1         -1      )

 cart.    s(36) = (  0.0000000  0.0000000  1.0000000 )
                  (  0.0000000 -1.0000000  0.0000000 )
                  ( -1.0000000  0.0000000  0.0000000 )


      isym = 37     inv. 180 deg rotation - cart. axis [0,1,1]   

 cryst.   s(37) = (     0          1          0      )
                  (     1          0          0      )
                  (     0          0          1      )

 cart.    s(37) = (  1.0000000  0.0000000  0.0000000 )
                  (  0.0000000  0.0000000 -1.0000000 )
                  (  0.0000000 -1.0000000  0.0000000 )


      isym = 38     inv. 180 deg rotation - cart. axis [0,1,-1]  

 cryst.   s(38) = (     1          0          0      )
                  (     0          1          0      )
                  (    -1         -1         -1      )

 cart.    s(38) = (  1.0000000  0.0000000  0.0000000 )
                  (  0.0000000  0.0000000  1.0000000 )
                  (  0.0000000  1.0000000  0.0000000 )


      isym = 39     inv.  90 deg rotation - cart. axis [-1,0,0]  

 cryst.   s(39) = (    -1         -1         -1      )
                  (     0          0          1      )
                  (     1          0          0      )

 cart.    s(39) = ( -1.0000000  0.0000000  0.0000000 )
                  (  0.0000000  0.0000000 -1.0000000 )
                  (  0.0000000  1.0000000  0.0000000 )


      isym = 40     inv.  90 deg rotation - cart. axis [1,0,0]   

 cryst.   s(40) = (     0          0          1      )
                  (    -1         -1         -1      )
                  (     0          1          0      )

 cart.    s(40) = ( -1.0000000  0.0000000  0.0000000 )
                  (  0.0000000  0.0000000  1.0000000 )
                  (  0.0000000 -1.0000000  0.0000000 )


      isym = 41     inv. 120 deg rotation - cart. axis [-1,-1,-1]

 cryst.   s(41) = (    -1          0          0      )
                  (     1          1          1      )
                  (     0         -1          0      )

 cart.    s(41) = (  0.0000000 -1.0000000  0.0000000 )
                  (  0.0000000  0.0000000 -1.0000000 )
                  ( -1.0000000  0.0000000  0.0000000 )


      isym = 42     inv. 120 deg rotation - cart. axis [-1,1,1]  

 cryst.   s(42) = (     0          0         -1      )
                  (     0         -1          0      )
                  (     1          1          1      )

 cart.    s(42) = (  0.0000000  1.0000000  0.0000000 )
                  (  0.0000000  0.0000000 -1.0000000 )
                  (  1.0000000  0.0000000  0.0000000 )


      isym = 43     inv. 120 deg rotation - cart. axis [1,1,-1]  

 cryst.   s(43) = (     0         -1          0      )
                  (     0          0         -1      )
                  (    -1          0          0      )

 cart.    s(43) = (  0.0000000 -1.0000000  0.0000000 )
                  (  0.0000000  0.0000000  1.0000000 )
                  (  1.0000000  0.0000000  0.0000000 )


      isym = 44     inv. 120 deg rotation - cart. axis [1,-1,1]  

 cryst.   s(44) = (     1          1          1      )
                  (    -1          0          0      )
                  (     0          0         -1      )

 cart.    s(44) = (  0.0000000  1.0000000  0.0000000 )
                  (  0.0000000  0.0000000  1.0000000 )
                  ( -1.0000000  0.0000000  0.0000000 )


      isym = 45     inv. 120 deg rotation - cart. axis [1,1,1]   

 cryst.   s(45) = (    -1          0          0      )
                  (     0          0         -1      )
                  (     1          1          1      )

 cart.    s(45) = (  0.0000000  0.0000000 -1.0000000 )
                  ( -1.0000000  0.0000000  0.0000000 )
                  (  0.0000000 -1.0000000  0.0000000 )


      isym = 46     inv. 120 deg rotation - cart. axis [-1,1,-1] 

 cryst.   s(46) = (     0         -1          0      )
                  (     1          1          1      )
                  (     0          0         -1      )

 cart.    s(46) = (  0.0000000  0.0000000 -1.0000000 )
                  (  1.0000000  0.0000000  0.0000000 )
                  (  0.0000000  1.0000000  0.0000000 )


      isym = 47     inv. 120 deg rotation - cart. axis [1,-1,-1] 

 cryst.   s(47) = (     1          1          1      )
                  (     0         -1          0      )
                  (    -1          0          0      )

 cart.    s(47) = (  0.0000000  0.0000000  1.0000000 )
                  (  1.0000000  0.0000000  0.0000000 )
                  (  0.0000000 -1.0000000  0.0000000 )


      isym = 48     inv. 120 deg rotation - cart. axis [-1,-1,1] 

 cryst.   s(48) = (     0          0         -1      )
                  (    -1          0          0      )
                  (     0         -1          0      )

 cart.    s(48) = (  0.0000000  0.0000000  1.0000000 )
                  ( -1.0000000  0.0000000  0.0000000 )
                  (  0.0000000  1.0000000  0.0000000 )


   Cartesian axes

     site n.     atom                  positions (alat units)
         1           Al  tau(   1) = (   0.0000000   0.0000000   0.0000000  )

   Crystallographic axes

     site n.     atom                  positions (cryst. coord.)
         1           Al  tau(   1) = (  0.0000000  0.0000000  0.0000000  )

     number of k points=   413  Marzari-Vanderbilt smearing, width (Ry)=  0.0100
                       cart. coord. in units 2pi/alat
        k(    1) = (   0.0000000   0.0000000   0.0000000), wk =   0.0001447
        k(    2) = (   0.0000000   0.0360844  -0.0360844), wk =   0.0017361
        k(    3) = (   0.0000000   0.0721688  -0.0721688), wk =   0.0017361
        k(    4) = (   0.0000000   0.1082532  -0.1082532), wk =   0.0017361
        k(    5) = (   0.0000000   0.1443376  -0.1443376), wk =   0.0017361
        k(    6) = (   0.0000000   0.1804220  -0.1804220), wk =   0.0017361
        k(    7) = (   0.0000000   0.2165064  -0.2165064), wk =   0.0017361
        k(    8) = (   0.0000000   0.2525907  -0.2525907), wk =   0.0017361
        k(    9) = (   0.0000000   0.2886751  -0.2886751), wk =   0.0017361
        k(   10) = (   0.0000000   0.3247595  -0.3247595), wk =   0.0017361
        k(   11) = (   0.0000000   0.3608439  -0.3608439), wk =   0.0017361
        k(   12) = (   0.0000000   0.3969283  -0.3969283), wk =   0.0017361
        k(   13) = (   0.0000000  -0.4330127   0.4330127), wk =   0.0008681
        k(   14) = (   0.0360844   0.0360844  -0.0721688), wk =   0.0034722
        k(   15) = (   0.0360844   0.0721688  -0.1082532), wk =   0.0069444
        k(   16) = (   0.0360844   0.1082532  -0.1443376), wk =   0.0069444
        k(   17) = (   0.0360844   0.1443376  -0.1804220), wk =   0.0069444
        k(   18) = (   0.0360844   0.1804220  -0.2165064), wk =   0.0069444
        k(   19) = (   0.0360844   0.2165064  -0.2525907), wk =   0.0069444
        k(   20) = (   0.0360844   0.2525907  -0.2886751), wk =   0.0069444
        k(   21) = (   0.0360844   0.2886751  -0.3247595), wk =   0.0069444
        k(   22) = (   0.0360844   0.3247595  -0.3608439), wk =   0.0069444
        k(   23) = (   0.0360844   0.3608439  -0.3969283), wk =   0.0069444
        k(   24) = (   0.0360844   0.3969283  -0.4330127), wk =   0.0069444
        k(   25) = (   0.0721688   0.0721688  -0.1443376), wk =   0.0034722
        k(   26) = (   0.0721688   0.1082532  -0.1804220), wk =   0.0069444
        k(   27) = (   0.0721688   0.1443376  -0.2165064), wk =   0.0069444
        k(   28) = (   0.0721688   0.1804220  -0.2525907), wk =   0.0069444
        k(   29) = (   0.0721688   0.2165064  -0.2886751), wk =   0.0069444
        k(   30) = (   0.0721688   0.2525907  -0.3247595), wk =   0.0069444
        k(   31) = (   0.0721688   0.2886751  -0.3608439), wk =   0.0069444
        k(   32) = (   0.0721688   0.3247595  -0.3969283), wk =   0.0069444
        k(   33) = (   0.0721688   0.3608439  -0.4330127), wk =   0.0069444
        k(   34) = (   0.0721688   0.3969283  -0.4690971), wk =   0.0034722
        k(   35) = (   0.1082532   0.1082532  -0.2165064), wk =   0.0034722
        k(   36) = (   0.1082532   0.1443376  -0.2525907), wk =   0.0069444
        k(   37) = (   0.1082532   0.1804220  -0.2886751), wk =   0.0069444
        k(   38) = (   0.1082532   0.2165064  -0.3247595), wk =   0.0069444
        k(   39) = (   0.1082532   0.2525907  -0.3608439), wk =   0.0069444
        k(   40) = (   0.1082532   0.2886751  -0.3969283), wk =   0.0069444
        k(   41) = (   0.1082532   0.3247595  -0.4330127), wk =   0.0069444
        k(   42) = (   0.1082532   0.3608439  -0.4690971), wk =   0.0069444
        k(   43) = (   0.1443376   0.1443376  -0.2886751), wk =   0.0034722
        k(   44) = (   0.1443376   0.1804220  -0.3247595), wk =   0.0069444
        k(   45) = (   0.1443376   0.2165064  -0.3608439), wk =   0.0069444
        k(   46) = (   0.1443376   0.2525907  -0.3969283), wk =   0.0069444
        k(   47) = (   0.1443376   0.2886751  -0.4330127), wk =   0.0069444
        k(   48) = (   0.1443376   0.3247595  -0.4690971), wk =   0.0069444
        k(   49) = (   0.1443376   0.3608439  -0.5051815), wk =   0.0034722
        k(   50) = (   0.1804220   0.1804220  -0.3608439), wk =   0.0034722
        k(   51) = (   0.1804220   0.2165064  -0.3969283), wk =   0.0069444
        k(   52) = (   0.1804220   0.2525907  -0.4330127), wk =   0.0069444
        k(   53) = (   0.1804220   0.2886751  -0.4690971), wk =   0.0069444
        k(   54) = (   0.1804220   0.3247595  -0.5051815), wk =   0.0069444
        k(   55) = (   0.2165064   0.2165064  -0.4330127), wk =   0.0034722
        k(   56) = (   0.2165064   0.2525907  -0.4690971), wk =   0.0069444
        k(   57) = (   0.2165064   0.2886751  -0.5051815), wk =   0.0069444
        k(   58) = (   0.2165064   0.3247595  -0.5412659), wk =   0.0034722
        k(   59) = (   0.2525907   0.2525907  -0.5051815), wk =   0.0034722
        k(   60) = (   0.2525907   0.2886751  -0.5412659), wk =   0.0069444
        k(   61) = (   0.2886751   0.2886751  -0.5773503), wk =   0.0011574
        k(   62) = (   0.0721688   0.0721688  -0.0721688), wk =   0.0011574
        k(   63) = (   0.0721688   0.1082532  -0.1082532), wk =   0.0034722
        k(   64) = (   0.0721688   0.1443376  -0.1443376), wk =   0.0034722
        k(   65) = (   0.0721688   0.1804220  -0.1804220), wk =   0.0034722
        k(   66) = (   0.0721688   0.2165064  -0.2165064), wk =   0.0034722
        k(   67) = (   0.0721688   0.2525907  -0.2525907), wk =   0.0034722
        k(   68) = (   0.0721688   0.2886751  -0.2886751), wk =   0.0034722
        k(   69) = (   0.0721688   0.3247595  -0.3247595), wk =   0.0034722
        k(   70) = (   0.0721688   0.3608439  -0.3608439), wk =   0.0034722
        k(   71) = (   0.0721688   0.3969283  -0.3969283), wk =   0.0034722
        k(   72) = (   0.0721688   0.4330127  -0.4330127), wk =   0.0017361
        k(   73) = (   0.0721688   0.0000000  -0.0000000), wk =   0.0008681
        k(   74) = (   0.1082532   0.1082532  -0.1443376), wk =   0.0034722
        k(   75) = (   0.1082532   0.1443376  -0.1804220), wk =   0.0069444
        k(   76) = (   0.1082532   0.1804220  -0.2165064), wk =   0.0069444
        k(   77) = (   0.1082532   0.2165064  -0.2525907), wk =   0.0069444
        k(   78) = (   0.1082532   0.2525907  -0.2886751), wk =   0.0069444
        k(   79) = (   0.1082532   0.2886751  -0.3247595), wk =   0.0069444
        k(   80) = (   0.1082532   0.3247595  -0.3608439), wk =   0.0069444
        k(   81) = (   0.1082532   0.3608439  -0.3969283), wk =   0.0069444
        k(   82) = (   0.1082532   0.3969283  -0.4330127), wk =   0.0069444
        k(   83) = (   0.1082532  -0.0360844   0.0000000), wk =   0.0034722
        k(   84) = (   0.1443376   0.1443376  -0.2165064), wk =   0.0034722
        k(   85) = (   0.1443376   0.1804220  -0.2525907), wk =   0.0069444
        k(   86) = (   0.1443376   0.2165064  -0.2886751), wk =   0.0069444
        k(   87) = (   0.1443376   0.2525907  -0.3247595), wk =   0.0069444
        k(   88) = (   0.1443376   0.2886751  -0.3608439), wk =   0.0069444
        k(   89) = (   0.1443376   0.3247595  -0.3969283), wk =   0.0069444
        k(   90) = (   0.1443376   0.3608439  -0.4330127), wk =   0.0069444
        k(   91) = (   0.1443376   0.3969283  -0.4690971), wk =   0.0034722
        k(   92) = (   0.1443376  -0.0721688   0.0000000), wk =   0.0034722
        k(   93) = (   0.1443376  -0.0360844  -0.0360844), wk =   0.0034722
        k(   94) = (   0.1804220   0.1804220  -0.2886751), wk =   0.0034722
        k(   95) = (   0.1804220   0.2165064  -0.3247595), wk =   0.0069444
        k(   96) = (   0.1804220   0.2525907  -0.3608439), wk =   0.0069444
        k(   97) = (   0.1804220   0.2886751  -0.3969283), wk =   0.0069444
        k(   98) = (   0.1804220   0.3247595  -0.4330127), wk =   0.0069444
        k(   99) = (   0.1804220   0.3608439  -0.4690971), wk =   0.0069444
        k(  100) = (   0.1804220  -0.1082532   0.0000000), wk =   0.0034722
        k(  101) = (   0.1804220  -0.0721688  -0.0360844), wk =   0.0069444
        k(  102) = (   0.2165064   0.2165064  -0.3608439), wk =   0.0034722
        k(  103) = (   0.2165064   0.2525907  -0.3969283), wk =   0.0069444
        k(  104) = (   0.2165064   0.2886751  -0.4330127), wk =   0.0069444
        k(  105) = (   0.2165064   0.3247595  -0.4690971), wk =   0.0069444
        k(  106) = (   0.2165064   0.3608439  -0.5051815), wk =   0.0034722
        k(  107) = (   0.2165064  -0.1443376   0.0000000), wk =   0.0034722
        k(  108) = (   0.2165064  -0.1082532  -0.0360844), wk =   0.0069444
        k(  109) = (   0.2165064  -0.0721688  -0.0721688), wk =   0.0034722
        k(  110) = (   0.2525907   0.2525907  -0.4330127), wk =   0.0034722
        k(  111) = (   0.2525907   0.2886751  -0.4690971), wk =   0.0069444
        k(  112) = (   0.2525907   0.3247595  -0.5051815), wk =   0.0069444
        k(  113) = (   0.2525907  -0.1804220   0.0000000), wk =   0.0034722
        k(  114) = (   0.2525907  -0.1443376  -0.0360844), wk =   0.0069444
        k(  115) = (   0.2525907  -0.1082532  -0.0721688), wk =   0.0069444
        k(  116) = (   0.2886751   0.2886751  -0.5051815), wk =   0.0034722
        k(  117) = (   0.2886751   0.3247595  -0.5412659), wk =   0.0034722
        k(  118) = (   0.2886751  -0.2165064   0.0000000), wk =   0.0034722
        k(  119) = (   0.2886751  -0.1804220  -0.0360844), wk =   0.0069444
        k(  120) = (   0.2886751  -0.1443376  -0.0721688), wk =   0.0069444
        k(  121) = (   0.2886751  -0.1082532  -0.1082532), wk =   0.0034722
        k(  122) = (   0.3247595  -0.2525907   0.0000000), wk =   0.0034722
        k(  123) = (   0.3247595  -0.2165064  -0.0360844), wk =   0.0069444
        k(  124) = (   0.3247595  -0.1804220  -0.0721688), wk =   0.0069444
        k(  125) = (   0.3247595  -0.1443376  -0.1082532), wk =   0.0069444
        k(  126) = (   0.3608439  -0.2886751   0.0000000), wk =   0.0034722
        k(  127) = (   0.3608439  -0.2525907  -0.0360844), wk =   0.0069444
        k(  128) = (   0.3608439  -0.2165064  -0.0721688), wk =   0.0069444
        k(  129) = (   0.3608439  -0.1804220  -0.1082532), wk =   0.0069444
        k(  130) = (   0.3608439  -0.1443376  -0.1443376), wk =   0.0034722
        k(  131) = (   0.3969283  -0.3247595  -0.0000000), wk =   0.0034722
        k(  132) = (   0.3969283  -0.2886751  -0.0360844), wk =   0.0069444
        k(  133) = (   0.3969283  -0.2525907  -0.0721688), wk =   0.0069444
        k(  134) = (   0.3969283  -0.2165064  -0.1082532), wk =   0.0069444
        k(  135) = (   0.3969283  -0.1804220  -0.1443376), wk =   0.0069444
        k(  136) = (   0.4330127  -0.3608439   0.0000000), wk =   0.0034722
        k(  137) = (   0.4330127  -0.3247595  -0.0360844), wk =   0.0069444
        k(  138) = (   0.4330127  -0.2886751  -0.0721688), wk =   0.0069444
        k(  139) = (   0.4330127  -0.2525907  -0.1082532), wk =   0.0069444
        k(  140) = (   0.4330127  -0.2165064  -0.1443376), wk =   0.0069444
        k(  141) = (   0.4330127  -0.1804220  -0.1804220), wk =   0.0034722
        k(  142) = (  -0.3969283  -0.3969283   0.8660254), wk =   0.0017361
        k(  143) = (  -0.3969283  -0.3608439   0.8299410), wk =   0.0069444
        k(  144) = (  -0.3969283  -0.3247595   0.7938566), wk =   0.0069444
        k(  145) = (  -0.3969283  -0.2886751   0.7577722), wk =   0.0069444
        k(  146) = (  -0.3969283  -0.2525907   0.7216878), wk =   0.0069444
        k(  147) = (  -0.3969283  -0.2165064   0.6856034), wk =   0.0069444
        k(  148) = (  -0.3608439  -0.3608439   0.7938566), wk =   0.0034722
        k(  149) = (  -0.3608439  -0.3247595   0.7577722), wk =   0.0069444
        k(  150) = (  -0.3608439  -0.2886751   0.7216878), wk =   0.0069444
        k(  151) = (  -0.3608439  -0.2525907   0.6856034), wk =   0.0069444
        k(  152) = (  -0.3608439  -0.2165064   0.6495191), wk =   0.0034722
        k(  153) = (  -0.3247595  -0.3247595   0.7216878), wk =   0.0034722
        k(  154) = (  -0.3247595  -0.2886751   0.6856034), wk =   0.0069444
        k(  155) = (  -0.3247595  -0.2525907   0.6495191), wk =   0.0069444
        k(  156) = (  -0.2886751  -0.2886751   0.6495191), wk =   0.0034722
        k(  157) = (  -0.2886751  -0.2525907   0.6134347), wk =   0.0034722
        k(  158) = (   0.1443376   0.1443376  -0.1443376), wk =   0.0011574
        k(  159) = (   0.1443376   0.1804220  -0.1804220), wk =   0.0034722
        k(  160) = (   0.1443376   0.2165064  -0.2165064), wk =   0.0034722
        k(  161) = (   0.1443376   0.2525907  -0.2525907), wk =   0.0034722
        k(  162) = (   0.1443376   0.2886751  -0.2886751), wk =   0.0034722
        k(  163) = (   0.1443376   0.3247595  -0.3247595), wk =   0.0034722
        k(  164) = (   0.1443376   0.3608439  -0.3608439), wk =   0.0034722
        k(  165) = (   0.1443376   0.3969283  -0.3969283), wk =   0.0034722
        k(  166) = (   0.1443376   0.4330127  -0.4330127), wk =   0.0017361
        k(  167) = (   0.1443376  -0.0000000   0.0000000), wk =   0.0008681
        k(  168) = (   0.1804220   0.1804220  -0.2165064), wk =   0.0034722
        k(  169) = (   0.1804220   0.2165064  -0.2525907), wk =   0.0069444
        k(  170) = (   0.1804220   0.2525907  -0.2886751), wk =   0.0069444
        k(  171) = (   0.1804220   0.2886751  -0.3247595), wk =   0.0069444
        k(  172) = (   0.1804220   0.3247595  -0.3608439), wk =   0.0069444
        k(  173) = (   0.1804220   0.3608439  -0.3969283), wk =   0.0069444
        k(  174) = (   0.1804220   0.3969283  -0.4330127), wk =   0.0069444
        k(  175) = (   0.1804220  -0.0360844   0.0000000), wk =   0.0034722
        k(  176) = (   0.2165064   0.2165064  -0.2886751), wk =   0.0034722
        k(  177) = (   0.2165064   0.2525907  -0.3247595), wk =   0.0069444
        k(  178) = (   0.2165064   0.2886751  -0.3608439), wk =   0.0069444
        k(  179) = (   0.2165064   0.3247595  -0.3969283), wk =   0.0069444
        k(  180) = (   0.2165064   0.3608439  -0.4330127), wk =   0.0069444
        k(  181) = (   0.2165064   0.3969283  -0.4690971), wk =   0.0034722
        k(  182) = (   0.2165064  -0.0721688   0.0000000), wk =   0.0034722
        k(  183) = (   0.2165064  -0.0360844  -0.0360844), wk =   0.0034722
        k(  184) = (   0.2525907   0.2525907  -0.3608439), wk =   0.0034722
        k(  185) = (   0.2525907   0.2886751  -0.3969283), wk =   0.0069444
        k(  186) = (   0.2525907   0.3247595  -0.4330127), wk =   0.0069444
        k(  187) = (   0.2525907   0.3608439  -0.4690971), wk =   0.0069444
        k(  188) = (   0.2525907  -0.1082532   0.0000000), wk =   0.0034722
        k(  189) = (   0.2525907  -0.0721688  -0.0360844), wk =   0.0069444
        k(  190) = (   0.2886751   0.2886751  -0.4330127), wk =   0.0034722
        k(  191) = (   0.2886751   0.3247595  -0.4690971), wk =   0.0069444
        k(  192) = (   0.2886751   0.3608439  -0.5051815), wk =   0.0034722
        k(  193) = (   0.2886751  -0.1443376   0.0000000), wk =   0.0034722
        k(  194) = (   0.2886751  -0.1082532  -0.0360844), wk =   0.0069444
        k(  195) = (   0.2886751  -0.0721688  -0.0721688), wk =   0.0034722
        k(  196) = (   0.3247595   0.3247595  -0.5051815), wk =   0.0034722
        k(  197) = (   0.3247595  -0.1804220   0.0000000), wk =   0.0034722
        k(  198) = (   0.3247595  -0.1443376  -0.0360844), wk =   0.0069444
        k(  199) = (   0.3247595  -0.1082532  -0.0721688), wk =   0.0069444
        k(  200) = (   0.3608439  -0.2165064   0.0000000), wk =   0.0034722
        k(  201) = (   0.3608439  -0.1804220  -0.0360844), wk =   0.0069444
        k(  202) = (   0.3608439  -0.1443376  -0.0721688), wk =   0.0069444
        k(  203) = (   0.3608439  -0.1082532  -0.1082532), wk =   0.0034722
        k(  204) = (   0.3969283  -0.2525907   0.0000000), wk =   0.0034722
        k(  205) = (   0.3969283  -0.2165064  -0.0360844), wk =   0.0069444
        k(  206) = (   0.3969283  -0.1804220  -0.0721688), wk =   0.0069444
        k(  207) = (   0.3969283  -0.1443376  -0.1082532), wk =   0.0069444
        k(  208) = (   0.4330127  -0.2886751  -0.0000000), wk =   0.0034722
        k(  209) = (   0.4330127  -0.2525907  -0.0360844), wk =   0.0069444
        k(  210) = (   0.4330127  -0.2165064  -0.0721688), wk =   0.0069444
        k(  211) = (   0.4330127  -0.1804220  -0.1082532), wk =   0.0069444
        k(  212) = (   0.4330127  -0.1443376  -0.1443376), wk =   0.0034722
        k(  213) = (   0.4690971  -0.3247595   0.0000000), wk =   0.0034722
        k(  214) = (   0.4690971  -0.2886751  -0.0360844), wk =   0.0069444
        k(  215) = (   0.4690971  -0.2525907  -0.0721688), wk =   0.0069444
        k(  216) = (   0.4690971  -0.2165064  -0.1082532), wk =   0.0069444
        k(  217) = (   0.4690971  -0.1804220  -0.1443376), wk =   0.0069444
        k(  218) = (  -0.3608439  -0.3608439   0.8660254), wk =   0.0017361
        k(  219) = (  -0.3608439  -0.3247595   0.8299410), wk =   0.0069444
        k(  220) = (  -0.3608439  -0.2886751   0.7938566), wk =   0.0069444
        k(  221) = (  -0.3608439  -0.2525907   0.7577722), wk =   0.0069444
        k(  222) = (  -0.3608439  -0.2165064   0.7216878), wk =   0.0069444
        k(  223) = (  -0.3608439  -0.1804220   0.6856034), wk =   0.0034722
        k(  224) = (  -0.3247595  -0.3247595   0.7938566), wk =   0.0034722
        k(  225) = (  -0.3247595  -0.2886751   0.7577722), wk =   0.0069444
        k(  226) = (  -0.3247595  -0.2525907   0.7216878), wk =   0.0069444
        k(  227) = (  -0.3247595  -0.2165064   0.6856034), wk =   0.0069444
        k(  228) = (  -0.2886751  -0.2886751   0.7216878), wk =   0.0034722
        k(  229) = (  -0.2886751  -0.2525907   0.6856034), wk =   0.0069444
        k(  230) = (  -0.2886751  -0.2165064   0.6495191), wk =   0.0034722
        k(  231) = (  -0.2525907  -0.2525907   0.6495191), wk =   0.0034722
        k(  232) = (   0.2165064   0.2165064  -0.2165064), wk =   0.0011574
        k(  233) = (   0.2165064   0.2525907  -0.2525907), wk =   0.0034722
        k(  234) = (   0.2165064   0.2886751  -0.2886751), wk =   0.0034722
        k(  235) = (   0.2165064   0.3247595  -0.3247595), wk =   0.0034722
        k(  236) = (   0.2165064   0.3608439  -0.3608439), wk =   0.0034722
        k(  237) = (   0.2165064   0.3969283  -0.3969283), wk =   0.0034722
        k(  238) = (   0.2165064   0.4330127  -0.4330127), wk =   0.0017361
        k(  239) = (   0.2165064   0.0000000   0.0000000), wk =   0.0008681
        k(  240) = (   0.2525907   0.2525907  -0.2886751), wk =   0.0034722
        k(  241) = (   0.2525907   0.2886751  -0.3247595), wk =   0.0069444
        k(  242) = (   0.2525907   0.3247595  -0.3608439), wk =   0.0069444
        k(  243) = (   0.2525907   0.3608439  -0.3969283), wk =   0.0069444
        k(  244) = (   0.2525907   0.3969283  -0.4330127), wk =   0.0069444
        k(  245) = (   0.2525907  -0.0360844   0.0000000), wk =   0.0034722
        k(  246) = (   0.2886751   0.2886751  -0.3608439), wk =   0.0034722
        k(  247) = (   0.2886751   0.3247595  -0.3969283), wk =   0.0069444
        k(  248) = (   0.2886751   0.3608439  -0.4330127), wk =   0.0069444
        k(  249) = (   0.2886751   0.3969283  -0.4690971), wk =   0.0034722
        k(  250) = (   0.2886751  -0.0721688   0.0000000), wk =   0.0034722
        k(  251) = (   0.2886751  -0.0360844  -0.0360844), wk =   0.0034722
        k(  252) = (   0.3247595   0.3247595  -0.4330127), wk =   0.0034722
        k(  253) = (   0.3247595   0.3608439  -0.4690971), wk =   0.0069444
        k(  254) = (   0.3247595  -0.1082532   0.0000000), wk =   0.0034722
        k(  255) = (   0.3247595  -0.0721688  -0.0360844), wk =   0.0069444
        k(  256) = (   0.3608439   0.3608439  -0.5051815), wk =   0.0011574
        k(  257) = (   0.3608439  -0.1443376   0.0000000), wk =   0.0034722
        k(  258) = (   0.3608439  -0.1082532  -0.0360844), wk =   0.0069444
        k(  259) = (   0.3608439  -0.0721688  -0.0721688), wk =   0.0034722
        k(  260) = (   0.3969283  -0.1804220   0.0000000), wk =   0.0034722
        k(  261) = (   0.3969283  -0.1443376  -0.0360844), wk =   0.0069444
        k(  262) = (   0.3969283  -0.1082532  -0.0721688), wk =   0.0069444
        k(  263) = (   0.4330127  -0.2165064   0.0000000), wk =   0.0034722
        k(  264) = (   0.4330127  -0.1804220  -0.0360844), wk =   0.0069444
        k(  265) = (   0.4330127  -0.1443376  -0.0721688), wk =   0.0069444
        k(  266) = (   0.4330127  -0.1082532  -0.1082532), wk =   0.0034722
        k(  267) = (   0.4690971  -0.2525907  -0.0000000), wk =   0.0034722
        k(  268) = (   0.4690971  -0.2165064  -0.0360844), wk =   0.0069444
        k(  269) = (   0.4690971  -0.1804220  -0.0721688), wk =   0.0069444
        k(  270) = (   0.4690971  -0.1443376  -0.1082532), wk =   0.0069444
        k(  271) = (   0.5051815  -0.2886751   0.0000000), wk =   0.0034722
        k(  272) = (   0.5051815  -0.2525907  -0.0360844), wk =   0.0069444
        k(  273) = (   0.5051815  -0.2165064  -0.0721688), wk =   0.0069444
        k(  274) = (   0.5051815  -0.1804220  -0.1082532), wk =   0.0069444
        k(  275) = (   0.5051815  -0.1443376  -0.1443376), wk =   0.0034722
        k(  276) = (  -0.3247595  -0.3247595   0.8660254), wk =   0.0017361
        k(  277) = (  -0.3247595  -0.2886751   0.8299410), wk =   0.0069444
        k(  278) = (  -0.3247595  -0.2525907   0.7938566), wk =   0.0069444
        k(  279) = (  -0.3247595  -0.2165064   0.7577722), wk =   0.0069444
        k(  280) = (  -0.3247595  -0.1804220   0.7216878), wk =   0.0069444
        k(  281) = (  -0.2886751  -0.2886751   0.7938566), wk =   0.0034722
        k(  282) = (  -0.2886751  -0.2525907   0.7577722), wk =   0.0069444
        k(  283) = (  -0.2886751  -0.2165064   0.7216878), wk =   0.0069444
        k(  284) = (  -0.2886751  -0.1804220   0.6856034), wk =   0.0034722
        k(  285) = (  -0.2525907  -0.2525907   0.7216878), wk =   0.0034722
        k(  286) = (  -0.2525907  -0.2165064   0.6856034), wk =   0.0069444
        k(  287) = (  -0.2165064  -0.2165064   0.6495191), wk =   0.0011574
        k(  288) = (   0.2886751   0.2886751  -0.2886751), wk =   0.0011574
        k(  289) = (   0.2886751   0.3247595  -0.3247595), wk =   0.0034722
        k(  290) = (   0.2886751   0.3608439  -0.3608439), wk =   0.0034722
        k(  291) = (   0.2886751   0.3969283  -0.3969283), wk =   0.0034722
        k(  292) = (   0.2886751   0.4330127  -0.4330127), wk =   0.0017361
        k(  293) = (   0.2886751   0.0000000   0.0000000), wk =   0.0008681
        k(  294) = (   0.3247595   0.3247595  -0.3608439), wk =   0.0034722
        k(  295) = (   0.3247595   0.3608439  -0.3969283), wk =   0.0069444
        k(  296) = (   0.3247595   0.3969283  -0.4330127), wk =   0.0069444
        k(  297) = (   0.3247595  -0.0360844   0.0000000), wk =   0.0034722
        k(  298) = (   0.3608439   0.3608439  -0.4330127), wk =   0.0034722
        k(  299) = (   0.3608439   0.3969283  -0.4690971), wk =   0.0034722
        k(  300) = (   0.3608439  -0.0721688   0.0000000), wk =   0.0034722
        k(  301) = (   0.3608439  -0.0360844  -0.0360844), wk =   0.0034722
        k(  302) = (   0.3969283  -0.1082532   0.0000000), wk =   0.0034722
        k(  303) = (   0.3969283  -0.0721688  -0.0360844), wk =   0.0069444
        k(  304) = (   0.4330127  -0.1443376   0.0000000), wk =   0.0034722
        k(  305) = (   0.4330127  -0.1082532  -0.0360844), wk =   0.0069444
        k(  306) = (   0.4330127  -0.0721688  -0.0721688), wk =   0.0034722
        k(  307) = (   0.4690971  -0.1804220   0.0000000), wk =   0.0034722
        k(  308) = (   0.4690971  -0.1443376  -0.0360844), wk =   0.0069444
        k(  309) = (   0.4690971  -0.1082532  -0.0721688), wk =   0.0069444
        k(  310) = (   0.5051815  -0.2165064  -0.0000000), wk =   0.0034722
        k(  311) = (   0.5051815  -0.1804220  -0.0360844), wk =   0.0069444
        k(  312) = (   0.5051815  -0.1443376  -0.0721688), wk =   0.0069444
        k(  313) = (   0.5051815  -0.1082532  -0.1082532), wk =   0.0034722
        k(  314) = (   0.5412659  -0.2525907   0.0000000), wk =   0.0034722
        k(  315) = (   0.5412659  -0.2165064  -0.0360844), wk =   0.0069444
        k(  316) = (   0.5412659  -0.1804220  -0.0721688), wk =   0.0069444
        k(  317) = (   0.5412659  -0.1443376  -0.1082532), wk =   0.0069444
        k(  318) = (  -0.2886751  -0.2886751   0.8660254), wk =   0.0017361
        k(  319) = (  -0.2886751  -0.2525907   0.8299410), wk =   0.0069444
        k(  320) = (  -0.2886751  -0.2165064   0.7938566), wk =   0.0069444
        k(  321) = (  -0.2886751  -0.1804220   0.7577722), wk =   0.0069444
        k(  322) = (  -0.2886751  -0.1443376   0.7216878), wk =   0.0034722
        k(  323) = (  -0.2525907  -0.2525907   0.7938566), wk =   0.0034722
        k(  324) = (  -0.2525907  -0.2165064   0.7577722), wk =   0.0069444
        k(  325) = (  -0.2525907  -0.1804220   0.7216878), wk =   0.0069444
        k(  326) = (  -0.2165064  -0.2165064   0.7216878), wk =   0.0034722
        k(  327) = (  -0.2165064  -0.1804220   0.6856034), wk =   0.0034722
        k(  328) = (   0.3608439   0.3608439  -0.3608439), wk =   0.0011574
        k(  329) = (   0.3608439   0.3969283  -0.3969283), wk =   0.0034722
        k(  330) = (   0.3608439   0.4330127  -0.4330127), wk =   0.0017361
        k(  331) = (   0.3608439  -0.0000000   0.0000000), wk =   0.0008681
        k(  332) = (   0.3969283   0.3969283  -0.4330127), wk =   0.0034722
        k(  333) = (   0.3969283  -0.0360844   0.0000000), wk =   0.0034722
        k(  334) = (   0.4330127  -0.0721688   0.0000000), wk =   0.0034722
        k(  335) = (   0.4330127  -0.0360844  -0.0360844), wk =   0.0034722
        k(  336) = (   0.4690971  -0.1082532   0.0000000), wk =   0.0034722
        k(  337) = (   0.4690971  -0.0721688  -0.0360844), wk =   0.0069444
        k(  338) = (   0.5051815  -0.1443376   0.0000000), wk =   0.0034722
        k(  339) = (   0.5051815  -0.1082532  -0.0360844), wk =   0.0069444
        k(  340) = (   0.5051815  -0.0721688  -0.0721688), wk =   0.0034722
        k(  341) = (   0.5412659  -0.1804220  -0.0000000), wk =   0.0034722
        k(  342) = (   0.5412659  -0.1443376  -0.0360844), wk =   0.0069444
        k(  343) = (   0.5412659  -0.1082532  -0.0721688), wk =   0.0069444
        k(  344) = (   0.5773503  -0.2165064   0.0000000), wk =   0.0034722
        k(  345) = (   0.5773503  -0.1804220  -0.0360844), wk =   0.0069444
        k(  346) = (   0.5773503  -0.1443376  -0.0721688), wk =   0.0069444
        k(  347) = (   0.5773503  -0.1082532  -0.1082532), wk =   0.0034722
        k(  348) = (  -0.2525907  -0.2525907   0.8660254), wk =   0.0017361
        k(  349) = (  -0.2525907  -0.2165064   0.8299410), wk =   0.0069444
        k(  350) = (  -0.2525907  -0.1804220   0.7938566), wk =   0.0069444
        k(  351) = (  -0.2525907  -0.1443376   0.7577722), wk =   0.0069444
        k(  352) = (  -0.2165064  -0.2165064   0.7938566), wk =   0.0034722
        k(  353) = (  -0.2165064  -0.1804220   0.7577722), wk =   0.0069444
        k(  354) = (  -0.2165064  -0.1443376   0.7216878), wk =   0.0034722
        k(  355) = (  -0.1804220  -0.1804220   0.7216878), wk =   0.0034722
        k(  356) = (   0.4330127   0.4330127  -0.4330127), wk =   0.0002894
        k(  357) = (   0.4330127   0.0000000   0.0000000), wk =   0.0008681
        k(  358) = (   0.4690971  -0.0360844   0.0000000), wk =   0.0034722
        k(  359) = (   0.5051815  -0.0721688   0.0000000), wk =   0.0034722
        k(  360) = (   0.5051815  -0.0360844  -0.0360844), wk =   0.0034722
        k(  361) = (   0.5412659  -0.1082532   0.0000000), wk =   0.0034722
        k(  362) = (   0.5412659  -0.0721688  -0.0360844), wk =   0.0069444
        k(  363) = (   0.5773503  -0.1443376  -0.0000000), wk =   0.0034722
        k(  364) = (   0.5773503  -0.1082532  -0.0360844), wk =   0.0069444
        k(  365) = (   0.5773503  -0.0721688  -0.0721688), wk =   0.0034722
        k(  366) = (   0.6134347  -0.1804220   0.0000000), wk =   0.0034722
        k(  367) = (   0.6134347  -0.1443376  -0.0360844), wk =   0.0069444
        k(  368) = (   0.6134347  -0.1082532  -0.0721688), wk =   0.0069444
        k(  369) = (  -0.2165064  -0.2165064   0.8660254), wk =   0.0017361
        k(  370) = (  -0.2165064  -0.1804220   0.8299410), wk =   0.0069444
        k(  371) = (  -0.2165064  -0.1443376   0.7938566), wk =   0.0069444
        k(  372) = (  -0.2165064  -0.1082532   0.7577722), wk =   0.0034722
        k(  373) = (  -0.1804220  -0.1804220   0.7938566), wk =   0.0034722
        k(  374) = (  -0.1804220  -0.1443376   0.7577722), wk =   0.0069444
        k(  375) = (  -0.1443376  -0.1443376   0.7216878), wk =   0.0011574
        k(  376) = (   0.5051815   0.0000000   0.0000000), wk =   0.0008681
        k(  377) = (   0.5412659  -0.0360844   0.0000000), wk =   0.0034722
        k(  378) = (   0.5773503  -0.0721688   0.0000000), wk =   0.0034722
        k(  379) = (   0.5773503  -0.0360844  -0.0360844), wk =   0.0034722
        k(  380) = (   0.6134347  -0.1082532  -0.0000000), wk =   0.0034722
        k(  381) = (   0.6134347  -0.0721688  -0.0360844), wk =   0.0069444
        k(  382) = (   0.6495191  -0.1443376   0.0000000), wk =   0.0034722
        k(  383) = (   0.6495191  -0.1082532  -0.0360844), wk =   0.0069444
        k(  384) = (   0.6495191  -0.0721688  -0.0721688), wk =   0.0034722
        k(  385) = (  -0.1804220  -0.1804220   0.8660254), wk =   0.0017361
        k(  386) = (  -0.1804220  -0.1443376   0.8299410), wk =   0.0069444
        k(  387) = (  -0.1804220  -0.1082532   0.7938566), wk =   0.0069444
        k(  388) = (  -0.1443376  -0.1443376   0.7938566), wk =   0.0034722
        k(  389) = (  -0.1443376  -0.1082532   0.7577722), wk =   0.0034722
        k(  390) = (   0.5773503  -0.0000000   0.0000000), wk =   0.0008681
        k(  391) = (   0.6134347  -0.0360844   0.0000000), wk =   0.0034722
        k(  392) = (   0.6495191  -0.0721688  -0.0000000), wk =   0.0034722
        k(  393) = (   0.6495191  -0.0360844  -0.0360844), wk =   0.0034722
        k(  394) = (   0.6856034  -0.1082532   0.0000000), wk =   0.0034722
        k(  395) = (   0.6856034  -0.0721688  -0.0360844), wk =   0.0069444
        k(  396) = (  -0.1443376  -0.1443376   0.8660254), wk =   0.0017361
        k(  397) = (  -0.1443376  -0.1082532   0.8299410), wk =   0.0069444
        k(  398) = (  -0.1443376  -0.0721688   0.7938566), wk =   0.0034722
        k(  399) = (  -0.1082532  -0.1082532   0.7938566), wk =   0.0034722
        k(  400) = (   0.6495191   0.0000000   0.0000000), wk =   0.0008681
        k(  401) = (   0.6856034  -0.0360844  -0.0000000), wk =   0.0034722
        k(  402) = (   0.7216878  -0.0721688   0.0000000), wk =   0.0034722
        k(  403) = (   0.7216878  -0.0360844  -0.0360844), wk =   0.0034722
        k(  404) = (  -0.1082532  -0.1082532   0.8660254), wk =   0.0017361
        k(  405) = (  -0.1082532  -0.0721688   0.8299410), wk =   0.0069444
        k(  406) = (  -0.0721688  -0.0721688   0.7938566), wk =   0.0011574
        k(  407) = (   0.7216878   0.0000000  -0.0000000), wk =   0.0008681
        k(  408) = (   0.7577722  -0.0360844   0.0000000), wk =   0.0034722
        k(  409) = (  -0.0721688  -0.0721688   0.8660254), wk =   0.0017361
        k(  410) = (  -0.0721688  -0.0360844   0.8299410), wk =   0.0034722
        k(  411) = (   0.7938566  -0.0000000   0.0000000), wk =   0.0008681
        k(  412) = (  -0.0360844  -0.0360844   0.8660254), wk =   0.0017361
        k(  413) = (  -0.8660254  -0.8660254   0.8660254), wk =   0.0001447

                       cryst. coord.
        k(    1) = (   0.0000000   0.0000000   0.0000000), wk =   0.0001447
        k(    2) = (   0.0000000   0.0000000   0.0416667), wk =   0.0017361
        k(    3) = (   0.0000000   0.0000000   0.0833333), wk =   0.0017361
        k(    4) = (   0.0000000   0.0000000   0.1250000), wk =   0.0017361
        k(    5) = (   0.0000000   0.0000000   0.1666667), wk =   0.0017361
        k(    6) = (   0.0000000   0.0000000   0.2083333), wk =   0.0017361
        k(    7) = (   0.0000000   0.0000000   0.2500000), wk =   0.0017361
        k(    8) = (   0.0000000   0.0000000   0.2916667), wk =   0.0017361
        k(    9) = (   0.0000000   0.0000000   0.3333333), wk =   0.0017361
        k(   10) = (   0.0000000   0.0000000   0.3750000), wk =   0.0017361
        k(   11) = (   0.0000000   0.0000000   0.4166667), wk =   0.0017361
        k(   12) = (   0.0000000   0.0000000   0.4583333), wk =   0.0017361
        k(   13) = (   0.0000000   0.0000000  -0.5000000), wk =   0.0008681
        k(   14) = (   0.0000000   0.0416667   0.0416667), wk =   0.0034722
        k(   15) = (   0.0000000   0.0416667   0.0833333), wk =   0.0069444
        k(   16) = (   0.0000000   0.0416667   0.1250000), wk =   0.0069444
        k(   17) = (   0.0000000   0.0416667   0.1666667), wk =   0.0069444
        k(   18) = (   0.0000000   0.0416667   0.2083333), wk =   0.0069444
        k(   19) = (   0.0000000   0.0416667   0.2500000), wk =   0.0069444
        k(   20) = (   0.0000000   0.0416667   0.2916667), wk =   0.0069444
        k(   21) = (   0.0000000   0.0416667   0.3333333), wk =   0.0069444
        k(   22) = (   0.0000000   0.0416667   0.3750000), wk =   0.0069444
        k(   23) = (   0.0000000   0.0416667   0.4166667), wk =   0.0069444
        k(   24) = (   0.0000000   0.0416667   0.4583333), wk =   0.0069444
        k(   25) = (   0.0000000   0.0833333   0.0833333), wk =   0.0034722
        k(   26) = (  -0.0000000   0.0833333   0.1250000), wk =   0.0069444
        k(   27) = (   0.0000000   0.0833333   0.1666667), wk =   0.0069444
        k(   28) = (   0.0000000   0.0833333   0.2083333), wk =   0.0069444
        k(   29) = (   0.0000000   0.0833333   0.2500000), wk =   0.0069444
        k(   30) = (   0.0000000   0.0833333   0.2916667), wk =   0.0069444
        k(   31) = (   0.0000000   0.0833333   0.3333333), wk =   0.0069444
        k(   32) = (   0.0000000   0.0833333   0.3750000), wk =   0.0069444
        k(   33) = (   0.0000000   0.0833333   0.4166667), wk =   0.0069444
        k(   34) = (   0.0000000   0.0833333   0.4583333), wk =   0.0034722
        k(   35) = (   0.0000000   0.1250000   0.1250000), wk =   0.0034722
        k(   36) = (  -0.0000000   0.1250000   0.1666667), wk =   0.0069444
        k(   37) = (   0.0000000   0.1250000   0.2083333), wk =   0.0069444
        k(   38) = (   0.0000000   0.1250000   0.2500000), wk =   0.0069444
        k(   39) = (   0.0000000   0.1250000   0.2916667), wk =   0.0069444
        k(   40) = (   0.0000000   0.1250000   0.3333333), wk =   0.0069444
        k(   41) = (   0.0000000   0.1250000   0.3750000), wk =   0.0069444
        k(   42) = (   0.0000000   0.1250000   0.4166667), wk =   0.0069444
        k(   43) = (   0.0000000   0.1666667   0.1666667), wk =   0.0034722
        k(   44) = (   0.0000000   0.1666667   0.2083333), wk =   0.0069444
        k(   45) = (  -0.0000000   0.1666667   0.2500000), wk =   0.0069444
        k(   46) = (   0.0000000   0.1666667   0.2916667), wk =   0.0069444
        k(   47) = (   0.0000000   0.1666667   0.3333333), wk =   0.0069444
        k(   48) = (   0.0000000   0.1666667   0.3750000), wk =   0.0069444
        k(   49) = (   0.0000000   0.1666667   0.4166667), wk =   0.0034722
        k(   50) = (   0.0000000   0.2083333   0.2083333), wk =   0.0034722
        k(   51) = (   0.0000000   0.2083333   0.2500000), wk =   0.0069444
        k(   52) = (   0.0000000   0.2083333   0.2916667), wk =   0.0069444
        k(   53) = (   0.0000000   0.2083333   0.3333333), wk =   0.0069444
        k(   54) = (   0.0000000   0.2083333   0.3750000), wk =   0.0069444
        k(   55) = (   0.0000000   0.2500000   0.2500000), wk =   0.0034722
        k(   56) = (   0.0000000   0.2500000   0.2916667), wk =   0.0069444
        k(   57) = (  -0.0000000   0.2500000   0.3333333), wk =   0.0069444
        k(   58) = (   0.0000000   0.2500000   0.3750000), wk =   0.0034722
        k(   59) = (   0.0000000   0.2916667   0.2916667), wk =   0.0034722
        k(   60) = (   0.0000000   0.2916667   0.3333333), wk =   0.0069444
        k(   61) = (   0.0000000   0.3333333   0.3333333), wk =   0.0011574
        k(   62) = (   0.0416667   0.0416667   0.0416667), wk =   0.0011574
        k(   63) = (   0.0416667   0.0416667   0.0833333), wk =   0.0034722
        k(   64) = (   0.0416667   0.0416667   0.1250000), wk =   0.0034722
        k(   65) = (   0.0416667   0.0416667   0.1666667), wk =   0.0034722
        k(   66) = (   0.0416667   0.0416667   0.2083333), wk =   0.0034722
        k(   67) = (   0.0416667   0.0416667   0.2500000), wk =   0.0034722
        k(   68) = (   0.0416667   0.0416667   0.2916667), wk =   0.0034722
        k(   69) = (   0.0416667   0.0416667   0.3333333), wk =   0.0034722
        k(   70) = (   0.0416667   0.0416667   0.3750000), wk =   0.0034722
        k(   71) = (   0.0416667   0.0416667   0.4166667), wk =   0.0034722
        k(   72) = (   0.0416667   0.0416667   0.4583333), wk =   0.0017361
        k(   73) = (   0.0416667   0.0416667  -0.0416667), wk =   0.0008681
        k(   74) = (   0.0416667   0.0833333   0.0833333), wk =   0.0034722
        k(   75) = (   0.0416667   0.0833333   0.1250000), wk =   0.0069444
        k(   76) = (   0.0416667   0.0833333   0.1666667), wk =   0.0069444
        k(   77) = (   0.0416667   0.0833333   0.2083333), wk =   0.0069444
        k(   78) = (   0.0416667   0.0833333   0.2500000), wk =   0.0069444
        k(   79) = (   0.0416667   0.0833333   0.2916667), wk =   0.0069444
        k(   80) = (   0.0416667   0.0833333   0.3333333), wk =   0.0069444
        k(   81) = (   0.0416667   0.0833333   0.3750000), wk =   0.0069444
        k(   82) = (   0.0416667   0.0833333   0.4166667), wk =   0.0069444
        k(   83) = (   0.0416667   0.0833333  -0.0833333), wk =   0.0034722
        k(   84) = (   0.0416667   0.1250000   0.1250000), wk =   0.0034722
        k(   85) = (   0.0416667   0.1250000   0.1666667), wk =   0.0069444
        k(   86) = (   0.0416667   0.1250000   0.2083333), wk =   0.0069444
        k(   87) = (   0.0416667   0.1250000   0.2500000), wk =   0.0069444
        k(   88) = (   0.0416667   0.1250000   0.2916667), wk =   0.0069444
        k(   89) = (   0.0416667   0.1250000   0.3333333), wk =   0.0069444
        k(   90) = (   0.0416667   0.1250000   0.3750000), wk =   0.0069444
        k(   91) = (   0.0416667   0.1250000   0.4166667), wk =   0.0034722
        k(   92) = (   0.0416667   0.1250000  -0.1250000), wk =   0.0034722
        k(   93) = (   0.0416667   0.1250000  -0.0833333), wk =   0.0034722
        k(   94) = (   0.0416667   0.1666667   0.1666667), wk =   0.0034722
        k(   95) = (   0.0416667   0.1666667   0.2083333), wk =   0.0069444
        k(   96) = (   0.0416667   0.1666667   0.2500000), wk =   0.0069444
        k(   97) = (   0.0416667   0.1666667   0.2916667), wk =   0.0069444
        k(   98) = (   0.0416667   0.1666667   0.3333333), wk =   0.0069444
        k(   99) = (   0.0416667   0.1666667   0.3750000), wk =   0.0069444
        k(  100) = (   0.0416667   0.1666667  -0.1666667), wk =   0.0034722
        k(  101) = (   0.0416667   0.1666667  -0.1250000), wk =   0.0069444
        k(  102) = (   0.0416667   0.2083333   0.2083333), wk =   0.0034722
        k(  103) = (   0.0416667   0.2083333   0.2500000), wk =   0.0069444
        k(  104) = (   0.0416667   0.2083333   0.2916667), wk =   0.0069444
        k(  105) = (   0.0416667   0.2083333   0.3333333), wk =   0.0069444
        k(  106) = (   0.0416667   0.2083333   0.3750000), wk =   0.0034722
        k(  107) = (   0.0416667   0.2083333  -0.2083333), wk =   0.0034722
        k(  108) = (   0.0416667   0.2083333  -0.1666667), wk =   0.0069444
        k(  109) = (   0.0416667   0.2083333  -0.1250000), wk =   0.0034722
        k(  110) = (   0.0416667   0.2500000   0.2500000), wk =   0.0034722
        k(  111) = (   0.0416667   0.2500000   0.2916667), wk =   0.0069444
        k(  112) = (   0.0416667   0.2500000   0.3333333), wk =   0.0069444
        k(  113) = (   0.0416667   0.2500000  -0.2500000), wk =   0.0034722
        k(  114) = (   0.0416667   0.2500000  -0.2083333), wk =   0.0069444
        k(  115) = (   0.0416667   0.2500000  -0.1666667), wk =   0.0069444
        k(  116) = (   0.0416667   0.2916667   0.2916667), wk =   0.0034722
        k(  117) = (   0.0416667   0.2916667   0.3333333), wk =   0.0034722
        k(  118) = (   0.0416667   0.2916667  -0.2916667), wk =   0.0034722
        k(  119) = (   0.0416667   0.2916667  -0.2500000), wk =   0.0069444
        k(  120) = (   0.0416667   0.2916667  -0.2083333), wk =   0.0069444
        k(  121) = (   0.0416667   0.2916667  -0.1666667), wk =   0.0034722
        k(  122) = (   0.0416667   0.3333333  -0.3333333), wk =   0.0034722
        k(  123) = (   0.0416667   0.3333333  -0.2916667), wk =   0.0069444
        k(  124) = (   0.0416667   0.3333333  -0.2500000), wk =   0.0069444
        k(  125) = (   0.0416667   0.3333333  -0.2083333), wk =   0.0069444
        k(  126) = (   0.0416667   0.3750000  -0.3750000), wk =   0.0034722
        k(  127) = (   0.0416667   0.3750000  -0.3333333), wk =   0.0069444
        k(  128) = (   0.0416667   0.3750000  -0.2916667), wk =   0.0069444
        k(  129) = (   0.0416667   0.3750000  -0.2500000), wk =   0.0069444
        k(  130) = (   0.0416667   0.3750000  -0.2083333), wk =   0.0034722
        k(  131) = (   0.0416667   0.4166667  -0.4166667), wk =   0.0034722
        k(  132) = (   0.0416667   0.4166667  -0.3750000), wk =   0.0069444
        k(  133) = (   0.0416667   0.4166667  -0.3333333), wk =   0.0069444
        k(  134) = (   0.0416667   0.4166667  -0.2916667), wk =   0.0069444
        k(  135) = (   0.0416667   0.4166667  -0.2500000), wk =   0.0069444
        k(  136) = (   0.0416667   0.4583333  -0.4583333), wk =   0.0034722
        k(  137) = (   0.0416667   0.4583333  -0.4166667), wk =   0.0069444
        k(  138) = (   0.0416667   0.4583333  -0.3750000), wk =   0.0069444
        k(  139) = (   0.0416667   0.4583333  -0.3333333), wk =   0.0069444
        k(  140) = (   0.0416667   0.4583333  -0.2916667), wk =   0.0069444
        k(  141) = (   0.0416667   0.4583333  -0.2500000), wk =   0.0034722
        k(  142) = (   0.0416667  -0.5000000  -0.5000000), wk =   0.0017361
        k(  143) = (   0.0416667  -0.5000000  -0.4583333), wk =   0.0069444
        k(  144) = (   0.0416667  -0.5000000  -0.4166667), wk =   0.0069444
        k(  145) = (   0.0416667  -0.5000000  -0.3750000), wk =   0.0069444
        k(  146) = (   0.0416667  -0.5000000  -0.3333333), wk =   0.0069444
        k(  147) = (   0.0416667  -0.5000000  -0.2916667), wk =   0.0069444
        k(  148) = (   0.0416667  -0.4583333  -0.4583333), wk =   0.0034722
        k(  149) = (   0.0416667  -0.4583333  -0.4166667), wk =   0.0069444
        k(  150) = (   0.0416667  -0.4583333  -0.3750000), wk =   0.0069444
        k(  151) = (   0.0416667  -0.4583333  -0.3333333), wk =   0.0069444
        k(  152) = (   0.0416667  -0.4583333  -0.2916667), wk =   0.0034722
        k(  153) = (   0.0416667  -0.4166667  -0.4166667), wk =   0.0034722
        k(  154) = (   0.0416667  -0.4166667  -0.3750000), wk =   0.0069444
        k(  155) = (   0.0416667  -0.4166667  -0.3333333), wk =   0.0069444
        k(  156) = (   0.0416667  -0.3750000  -0.3750000), wk =   0.0034722
        k(  157) = (   0.0416667  -0.3750000  -0.3333333), wk =   0.0034722
        k(  158) = (   0.0833333   0.0833333   0.0833333), wk =   0.0011574
        k(  159) = (   0.0833333   0.0833333   0.1250000), wk =   0.0034722
        k(  160) = (   0.0833333   0.0833333   0.1666667), wk =   0.0034722
        k(  161) = (   0.0833333   0.0833333   0.2083333), wk =   0.0034722
        k(  162) = (   0.0833333   0.0833333   0.2500000), wk =   0.0034722
        k(  163) = (   0.0833333   0.0833333   0.2916667), wk =   0.0034722
        k(  164) = (   0.0833333   0.0833333   0.3333333), wk =   0.0034722
        k(  165) = (   0.0833333   0.0833333   0.3750000), wk =   0.0034722
        k(  166) = (   0.0833333   0.0833333   0.4166667), wk =   0.0017361
        k(  167) = (   0.0833333   0.0833333  -0.0833333), wk =   0.0008681
        k(  168) = (   0.0833333   0.1250000   0.1250000), wk =   0.0034722
        k(  169) = (   0.0833333   0.1250000   0.1666667), wk =   0.0069444
        k(  170) = (   0.0833333   0.1250000   0.2083333), wk =   0.0069444
        k(  171) = (   0.0833333   0.1250000   0.2500000), wk =   0.0069444
        k(  172) = (   0.0833333   0.1250000   0.2916667), wk =   0.0069444
        k(  173) = (   0.0833333   0.1250000   0.3333333), wk =   0.0069444
        k(  174) = (   0.0833333   0.1250000   0.3750000), wk =   0.0069444
        k(  175) = (   0.0833333   0.1250000  -0.1250000), wk =   0.0034722
        k(  176) = (   0.0833333   0.1666667   0.1666667), wk =   0.0034722
        k(  177) = (   0.0833333   0.1666667   0.2083333), wk =   0.0069444
        k(  178) = (   0.0833333   0.1666667   0.2500000), wk =   0.0069444
        k(  179) = (   0.0833333   0.1666667   0.2916667), wk =   0.0069444
        k(  180) = (   0.0833333   0.1666667   0.3333333), wk =   0.0069444
        k(  181) = (   0.0833333   0.1666667   0.3750000), wk =   0.0034722
        k(  182) = (   0.0833333   0.1666667  -0.1666667), wk =   0.0034722
        k(  183) = (   0.0833333   0.1666667  -0.1250000), wk =   0.0034722
        k(  184) = (   0.0833333   0.2083333   0.2083333), wk =   0.0034722
        k(  185) = (   0.0833333   0.2083333   0.2500000), wk =   0.0069444
        k(  186) = (   0.0833333   0.2083333   0.2916667), wk =   0.0069444
        k(  187) = (   0.0833333   0.2083333   0.3333333), wk =   0.0069444
        k(  188) = (   0.0833333   0.2083333  -0.2083333), wk =   0.0034722
        k(  189) = (   0.0833333   0.2083333  -0.1666667), wk =   0.0069444
        k(  190) = (   0.0833333   0.2500000   0.2500000), wk =   0.0034722
        k(  191) = (   0.0833333   0.2500000   0.2916667), wk =   0.0069444
        k(  192) = (   0.0833333   0.2500000   0.3333333), wk =   0.0034722
        k(  193) = (   0.0833333   0.2500000  -0.2500000), wk =   0.0034722
        k(  194) = (   0.0833333   0.2500000  -0.2083333), wk =   0.0069444
        k(  195) = (   0.0833333   0.2500000  -0.1666667), wk =   0.0034722
        k(  196) = (   0.0833333   0.2916667   0.2916667), wk =   0.0034722
        k(  197) = (   0.0833333   0.2916667  -0.2916667), wk =   0.0034722
        k(  198) = (   0.0833333   0.2916667  -0.2500000), wk =   0.0069444
        k(  199) = (   0.0833333   0.2916667  -0.2083333), wk =   0.0069444
        k(  200) = (   0.0833333   0.3333333  -0.3333333), wk =   0.0034722
        k(  201) = (   0.0833333   0.3333333  -0.2916667), wk =   0.0069444
        k(  202) = (   0.0833333   0.3333333  -0.2500000), wk =   0.0069444
        k(  203) = (   0.0833333   0.3333333  -0.2083333), wk =   0.0034722
        k(  204) = (   0.0833333   0.3750000  -0.3750000), wk =   0.0034722
        k(  205) = (   0.0833333   0.3750000  -0.3333333), wk =   0.0069444
        k(  206) = (   0.0833333   0.3750000  -0.2916667), wk =   0.0069444
        k(  207) = (   0.0833333   0.3750000  -0.2500000), wk =   0.0069444
        k(  208) = (   0.0833333   0.4166667  -0.4166667), wk =   0.0034722
        k(  209) = (   0.0833333   0.4166667  -0.3750000), wk =   0.0069444
        k(  210) = (   0.0833333   0.4166667  -0.3333333), wk =   0.0069444
        k(  211) = (   0.0833333   0.4166667  -0.2916667), wk =   0.0069444
        k(  212) = (   0.0833333   0.4166667  -0.2500000), wk =   0.0034722
        k(  213) = (   0.0833333   0.4583333  -0.4583333), wk =   0.0034722
        k(  214) = (   0.0833333   0.4583333  -0.4166667), wk =   0.0069444
        k(  215) = (   0.0833333   0.4583333  -0.3750000), wk =   0.0069444
        k(  216) = (   0.0833333   0.4583333  -0.3333333), wk =   0.0069444
        k(  217) = (   0.0833333   0.4583333  -0.2916667), wk =   0.0069444
        k(  218) = (   0.0833333  -0.5000000  -0.5000000), wk =   0.0017361
        k(  219) = (   0.0833333  -0.5000000  -0.4583333), wk =   0.0069444
        k(  220) = (   0.0833333  -0.5000000  -0.4166667), wk =   0.0069444
        k(  221) = (   0.0833333  -0.5000000  -0.3750000), wk =   0.0069444
        k(  222) = (   0.0833333  -0.5000000  -0.3333333), wk =   0.0069444
        k(  223) = (   0.0833333  -0.5000000  -0.2916667), wk =   0.0034722
        k(  224) = (   0.0833333  -0.4583333  -0.4583333), wk =   0.0034722
        k(  225) = (   0.0833333  -0.4583333  -0.4166667), wk =   0.0069444
        k(  226) = (   0.0833333  -0.4583333  -0.3750000), wk =   0.0069444
        k(  227) = (   0.0833333  -0.4583333  -0.3333333), wk =   0.0069444
        k(  228) = (   0.0833333  -0.4166667  -0.4166667), wk =   0.0034722
        k(  229) = (   0.0833333  -0.4166667  -0.3750000), wk =   0.0069444
        k(  230) = (   0.0833333  -0.4166667  -0.3333333), wk =   0.0034722
        k(  231) = (   0.0833333  -0.3750000  -0.3750000), wk =   0.0034722
        k(  232) = (   0.1250000   0.1250000   0.1250000), wk =   0.0011574
        k(  233) = (   0.1250000   0.1250000   0.1666667), wk =   0.0034722
        k(  234) = (   0.1250000   0.1250000   0.2083333), wk =   0.0034722
        k(  235) = (   0.1250000   0.1250000   0.2500000), wk =   0.0034722
        k(  236) = (   0.1250000   0.1250000   0.2916667), wk =   0.0034722
        k(  237) = (   0.1250000   0.1250000   0.3333333), wk =   0.0034722
        k(  238) = (   0.1250000   0.1250000   0.3750000), wk =   0.0017361
        k(  239) = (   0.1250000   0.1250000  -0.1250000), wk =   0.0008681
        k(  240) = (   0.1250000   0.1666667   0.1666667), wk =   0.0034722
        k(  241) = (   0.1250000   0.1666667   0.2083333), wk =   0.0069444
        k(  242) = (   0.1250000   0.1666667   0.2500000), wk =   0.0069444
        k(  243) = (   0.1250000   0.1666667   0.2916667), wk =   0.0069444
        k(  244) = (   0.1250000   0.1666667   0.3333333), wk =   0.0069444
        k(  245) = (   0.1250000   0.1666667  -0.1666667), wk =   0.0034722
        k(  246) = (   0.1250000   0.2083333   0.2083333), wk =   0.0034722
        k(  247) = (   0.1250000   0.2083333   0.2500000), wk =   0.0069444
        k(  248) = (   0.1250000   0.2083333   0.2916667), wk =   0.0069444
        k(  249) = (   0.1250000   0.2083333   0.3333333), wk =   0.0034722
        k(  250) = (   0.1250000   0.2083333  -0.2083333), wk =   0.0034722
        k(  251) = (   0.1250000   0.2083333  -0.1666667), wk =   0.0034722
        k(  252) = (   0.1250000   0.2500000   0.2500000), wk =   0.0034722
        k(  253) = (   0.1250000   0.2500000   0.2916667), wk =   0.0069444
        k(  254) = (   0.1250000   0.2500000  -0.2500000), wk =   0.0034722
        k(  255) = (   0.1250000   0.2500000  -0.2083333), wk =   0.0069444
        k(  256) = (   0.1250000   0.2916667   0.2916667), wk =   0.0011574
        k(  257) = (   0.1250000   0.2916667  -0.2916667), wk =   0.0034722
        k(  258) = (   0.1250000   0.2916667  -0.2500000), wk =   0.0069444
        k(  259) = (   0.1250000   0.2916667  -0.2083333), wk =   0.0034722
        k(  260) = (   0.1250000   0.3333333  -0.3333333), wk =   0.0034722
        k(  261) = (   0.1250000   0.3333333  -0.2916667), wk =   0.0069444
        k(  262) = (   0.1250000   0.3333333  -0.2500000), wk =   0.0069444
        k(  263) = (   0.1250000   0.3750000  -0.3750000), wk =   0.0034722
        k(  264) = (   0.1250000   0.3750000  -0.3333333), wk =   0.0069444
        k(  265) = (   0.1250000   0.3750000  -0.2916667), wk =   0.0069444
        k(  266) = (   0.1250000   0.3750000  -0.2500000), wk =   0.0034722
        k(  267) = (   0.1250000   0.4166667  -0.4166667), wk =   0.0034722
        k(  268) = (   0.1250000   0.4166667  -0.3750000), wk =   0.0069444
        k(  269) = (   0.1250000   0.4166667  -0.3333333), wk =   0.0069444
        k(  270) = (   0.1250000   0.4166667  -0.2916667), wk =   0.0069444
        k(  271) = (   0.1250000   0.4583333  -0.4583333), wk =   0.0034722
        k(  272) = (   0.1250000   0.4583333  -0.4166667), wk =   0.0069444
        k(  273) = (   0.1250000   0.4583333  -0.3750000), wk =   0.0069444
        k(  274) = (   0.1250000   0.4583333  -0.3333333), wk =   0.0069444
        k(  275) = (   0.1250000   0.4583333  -0.2916667), wk =   0.0034722
        k(  276) = (   0.1250000  -0.5000000  -0.5000000), wk =   0.0017361
        k(  277) = (   0.1250000  -0.5000000  -0.4583333), wk =   0.0069444
        k(  278) = (   0.1250000  -0.5000000  -0.4166667), wk =   0.0069444
        k(  279) = (   0.1250000  -0.5000000  -0.3750000), wk =   0.0069444
        k(  280) = (   0.1250000  -0.5000000  -0.3333333), wk =   0.0069444
        k(  281) = (   0.1250000  -0.4583333  -0.4583333), wk =   0.0034722
        k(  282) = (   0.1250000  -0.4583333  -0.4166667), wk =   0.0069444
        k(  283) = (   0.1250000  -0.4583333  -0.3750000), wk =   0.0069444
        k(  284) = (   0.1250000  -0.4583333  -0.3333333), wk =   0.0034722
        k(  285) = (   0.1250000  -0.4166667  -0.4166667), wk =   0.0034722
        k(  286) = (   0.1250000  -0.4166667  -0.3750000), wk =   0.0069444
        k(  287) = (   0.1250000  -0.3750000  -0.3750000), wk =   0.0011574
        k(  288) = (   0.1666667   0.1666667   0.1666667), wk =   0.0011574
        k(  289) = (   0.1666667   0.1666667   0.2083333), wk =   0.0034722
        k(  290) = (   0.1666667   0.1666667   0.2500000), wk =   0.0034722
        k(  291) = (   0.1666667   0.1666667   0.2916667), wk =   0.0034722
        k(  292) = (   0.1666667   0.1666667   0.3333333), wk =   0.0017361
        k(  293) = (   0.1666667   0.1666667  -0.1666667), wk =   0.0008681
        k(  294) = (   0.1666667   0.2083333   0.2083333), wk =   0.0034722
        k(  295) = (   0.1666667   0.2083333   0.2500000), wk =   0.0069444
        k(  296) = (   0.1666667   0.2083333   0.2916667), wk =   0.0069444
        k(  297) = (   0.1666667   0.2083333  -0.2083333), wk =   0.0034722
        k(  298) = (   0.1666667   0.2500000   0.2500000), wk =   0.0034722
        k(  299) = (   0.1666667   0.2500000   0.2916667), wk =   0.0034722
        k(  300) = (   0.1666667   0.2500000  -0.2500000), wk =   0.0034722
        k(  301) = (   0.1666667   0.2500000  -0.2083333), wk =   0.0034722
        k(  302) = (   0.1666667   0.2916667  -0.2916667), wk =   0.0034722
        k(  303) = (   0.1666667   0.2916667  -0.2500000), wk =   0.0069444
        k(  304) = (   0.1666667   0.3333333  -0.3333333), wk =   0.0034722
        k(  305) = (   0.1666667   0.3333333  -0.2916667), wk =   0.0069444
        k(  306) = (   0.1666667   0.3333333  -0.2500000), wk =   0.0034722
        k(  307) = (   0.1666667   0.3750000  -0.3750000), wk =   0.0034722
        k(  308) = (   0.1666667   0.3750000  -0.3333333), wk =   0.0069444
        k(  309) = (   0.1666667   0.3750000  -0.2916667), wk =   0.0069444
        k(  310) = (   0.1666667   0.4166667  -0.4166667), wk =   0.0034722
        k(  311) = (   0.1666667   0.4166667  -0.3750000), wk =   0.0069444
        k(  312) = (   0.1666667   0.4166667  -0.3333333), wk =   0.0069444
        k(  313) = (   0.1666667   0.4166667  -0.2916667), wk =   0.0034722
        k(  314) = (   0.1666667   0.4583333  -0.4583333), wk =   0.0034722
        k(  315) = (   0.1666667   0.4583333  -0.4166667), wk =   0.0069444
        k(  316) = (   0.1666667   0.4583333  -0.3750000), wk =   0.0069444
        k(  317) = (   0.1666667   0.4583333  -0.3333333), wk =   0.0069444
        k(  318) = (   0.1666667  -0.5000000  -0.5000000), wk =   0.0017361
        k(  319) = (   0.1666667  -0.5000000  -0.4583333), wk =   0.0069444
        k(  320) = (   0.1666667  -0.5000000  -0.4166667), wk =   0.0069444
        k(  321) = (   0.1666667  -0.5000000  -0.3750000), wk =   0.0069444
        k(  322) = (   0.1666667  -0.5000000  -0.3333333), wk =   0.0034722
        k(  323) = (   0.1666667  -0.4583333  -0.4583333), wk =   0.0034722
        k(  324) = (   0.1666667  -0.4583333  -0.4166667), wk =   0.0069444
        k(  325) = (   0.1666667  -0.4583333  -0.3750000), wk =   0.0069444
        k(  326) = (   0.1666667  -0.4166667  -0.4166667), wk =   0.0034722
        k(  327) = (   0.1666667  -0.4166667  -0.3750000), wk =   0.0034722
        k(  328) = (   0.2083333   0.2083333   0.2083333), wk =   0.0011574
        k(  329) = (   0.2083333   0.2083333   0.2500000), wk =   0.0034722
        k(  330) = (   0.2083333   0.2083333   0.2916667), wk =   0.0017361
        k(  331) = (   0.2083333   0.2083333  -0.2083333), wk =   0.0008681
        k(  332) = (   0.2083333   0.2500000   0.2500000), wk =   0.0034722
        k(  333) = (   0.2083333   0.2500000  -0.2500000), wk =   0.0034722
        k(  334) = (   0.2083333   0.2916667  -0.2916667), wk =   0.0034722
        k(  335) = (   0.2083333   0.2916667  -0.2500000), wk =   0.0034722
[...]

     occupation numbers 
     1.0000   0.0000   0.0000   0.0000   0.0000   0.0000

          k = 0.3969 0.3969-0.4330 (   391 PWs)   bands (ev):

     5.9274   6.8781   7.3518   8.5917  28.9950  29.0164

     occupation numbers 
     1.0000   1.0000   1.0014   0.0000   0.0000   0.0000

          k = 0.3969-0.0361 0.0000 (   400 PWs)   bands (ev):

    -0.2969  12.8658  13.3244  15.2611  16.3531  23.4616

     occupation numbers 
     1.0000   0.0000   0.0000   0.0000   0.0000   0.0000

          k = 0.4330-0.0722 0.0000 (   398 PWs)   bands (ev):

     0.3354  11.4727  12.8469  14.9562  16.5391  23.1923

     occupation numbers 
     1.0000   0.0000   0.0000   0.0000   0.0000   0.0000

          k = 0.4330-0.0361-0.0361 (   401 PWs)   bands (ev):

     0.2869  12.2390  12.4441  14.9918  15.9827  23.5881

     occupation numbers 
     1.0000   0.0000   0.0000   0.0000   0.0000   0.0000

          k = 0.4691-0.1083 0.0000 (   400 PWs)   bands (ev):

     1.0616  10.0421  12.4558  14.6154  17.0409  22.8859

     occupation numbers 
     1.0000   0.0000   0.0000   0.0000   0.0000   0.0000

          k = 0.4691-0.0722-0.0361 (   402 PWs)   bands (ev):

     0.9651  10.9629  11.9287  14.8430  16.1026  23.3198

     occupation numbers 
     1.0000   0.0000   0.0000   0.0000   0.0000   0.0000

          k = 0.5052-0.1443 0.0000 (   401 PWs)   bands (ev):

     1.8799   8.6526  12.1513  14.3204  17.7023  22.6236

     occupation numbers 
     1.0000   0.0000   0.0000   0.0000   0.0000   0.0000

          k = 0.5052-0.1083-0.0361 (   400 PWs)   bands (ev):

     1.7361   9.5801  11.5694  14.5815  16.6193  22.8771

     occupation numbers 
     1.0000   0.0000   0.0000   0.0000   0.0000   0.0000

          k = 0.5052-0.0722-0.0722 (   404 PWs)   bands (ev):

     1.6881  10.3812  10.7978  15.0798  15.9310  22.8551

     occupation numbers 
     1.0000   0.0000   0.0000   0.0000   0.0000   0.0000

          k = 0.5413-0.1804-0.0000 (   402 PWs)   bands (ev):

     2.7874   7.3293  11.9337  14.1008  18.4700  22.1972

     occupation numbers 
     1.0000   1.0006   0.0000   0.0000   0.0000   0.0000

          k = 0.5413-0.1443-0.0361 (   400 PWs)   bands (ev):

     2.5976   8.2355  11.3019  14.3426  17.3205  22.0481

     occupation numbers 
     1.0000   0.0000   0.0000   0.0000   0.0000   0.0000

          k = 0.5413-0.1083-0.0722 (   405 PWs)   bands (ev):

     2.5025   9.1877  10.3296  15.0489  16.3125  21.9645

     occupation numbers 
     1.0000   0.0000   0.0000   0.0000   0.0000   0.0000

          k = 0.5774-0.2165 0.0000 (   397 PWs)   bands (ev):

     3.7757   6.0892  11.8031  13.9667  19.3208  21.2055

     occupation numbers 
     1.0000   1.0000   0.0000   0.0000   0.0000   0.0000

          k = 0.5774-0.1804-0.0361 (   401 PWs)   bands (ev):

     3.5451   6.9591  11.1238  14.1734  18.1340  21.0289

     occupation numbers 
     1.0000   1.0000   0.0000   0.0000   0.0000   0.0000

          k = 0.5774-0.1443-0.0722 (   402 PWs)   bands (ev):

     3.4051   7.9039  10.0856  14.8930  17.0245  20.9115

     occupation numbers 
     1.0000   0.0259   0.0000   0.0000   0.0000   0.0000

          k = 0.5774-0.1083-0.1083 (   404 PWs)   bands (ev):

     3.3583   8.7074   9.2325  15.5362  16.2688  20.8717

     occupation numbers 
     1.0000   0.0000   0.0000   0.0000   0.0000   0.0000

          k =-0.2526-0.2526 0.8660 (   392 PWs)   bands (ev):

     4.6456   5.1350  11.7595  13.9216  20.2232  20.2540

     occupation numbers 
     1.0000   1.0000   0.0000   0.0000   0.0000   0.0000

          k =-0.2526-0.2165 0.8299 (   400 PWs)   bands (ev):

     4.5541   5.7841  11.0347  14.0868  19.0295  20.0160

     occupation numbers 
     1.0000   1.0000   0.0000   0.0000   0.0000   0.0000

          k =-0.2526-0.1804 0.7939 (   401 PWs)   bands (ev):

     4.3874   6.6824   9.9445  14.7791  17.8707  19.8583

     occupation numbers 
     1.0000   1.0000   0.0000   0.0000   0.0000   0.0000

          k =-0.2526-0.1443 0.7578 (   401 PWs)   bands (ev):

     4.2986   7.6428   8.8586  15.6172  16.8312  19.7778

     occupation numbers 
     1.0000   0.9845   0.0000   0.0000   0.0000   0.0000

          k =-0.2165-0.2165 0.7939 (   402 PWs)   bands (ev):

     5.2493   5.7396   9.8979  14.7393  18.6628  18.9965

     occupation numbers 
     1.0000   1.0000   0.0000   0.0000   0.0000   0.0000

          k =-0.2165-0.1804 0.7578 (   402 PWs)   bands (ev):

     5.2983   6.5057   8.7435  15.5741  17.6674  18.7557

     occupation numbers 
     1.0000   1.0000   0.0000   0.0000   0.0000   0.0000

          k =-0.2165-0.1443 0.7217 (   402 PWs)   bands (ev):

     5.2674   7.2847   7.8778  16.2955  16.8656  18.7057

     occupation numbers 
     1.0000   1.0001   0.0499   0.0000   0.0000   0.0000

          k =-0.1804-0.1804 0.7217 (   403 PWs)   bands (ev):

     6.1299   6.5203   7.6546  16.4524  17.3405  17.9540

     occupation numbers 
     1.0000   1.0000   0.9454   0.0000   0.0000   0.0000

          k = 0.4330 0.4330-0.4330 (   420 PWs)   bands (ev):

     6.8317   6.8317   6.8317   8.0760  29.4394  30.2195

     occupation numbers 
     1.0000   1.0000   1.0000   0.0001   0.0000   0.0000

          k = 0.4330 0.0000 0.0000 (   402 PWs)   bands (ev):

     0.2383  12.7589  12.7589  14.3819  15.5994  24.4179

     occupation numbers 
     1.0000   0.0000   0.0000   0.0000   0.0000   0.0000

          k = 0.4691-0.0361 0.0000 (   404 PWs)   bands (ev):

     0.8684  11.8011  12.2800  14.1001  15.3352  24.3861

     occupation numbers 
     1.0000   0.0000   0.0000   0.0000   0.0000   0.0000

          k = 0.5052-0.0722 0.0000 (   400 PWs)   bands (ev):

     1.5919  10.4780  11.8878  13.9099  15.5904  23.2098

     occupation numbers 
     1.0000   0.0000   0.0000   0.0000   0.0000   0.0000

          k = 0.5052-0.0361-0.0361 (   403 PWs)   bands (ev):

     1.5439  11.2522  11.4771  13.9370  15.0369  23.1963

     occupation numbers 
     1.0000   0.0000   0.0000   0.0000   0.0000   0.0000

          k = 0.5413-0.1083 0.0000 (   400 PWs)   bands (ev):

     2.4070   9.1271  11.5826  13.6682  16.1756  22.0359

     occupation numbers 
     1.0000   0.0000   0.0000   0.0000   0.0000   0.0000

          k = 0.5413-0.0722-0.0361 (   407 PWs)   bands (ev):

     2.3116  10.0554  11.0422  13.8974  15.2312  21.9795

     occupation numbers 
     1.0000   0.0000   0.0000   0.0000   0.0000   0.0000

          k = 0.5774-0.1443-0.0000 (   408 PWs)   bands (ev):

     3.3106   7.8231  11.3644  13.4662  16.9279  20.8949

     occupation numbers 
     1.0000   0.1581   0.0000   0.0000   0.0000   0.0000

          k = 0.5774-0.1083-0.0361 (   401 PWs)   bands (ev):

     3.1691   8.7552  10.7695  13.7354  15.8293  20.7900

     occupation numbers 
     1.0000   0.0000   0.0000   0.0000   0.0000   0.0000

          k = 0.5774-0.0722-0.0722 (   404 PWs)   bands (ev):

     3.1219   9.5582   9.9906  14.2309  15.1447  20.7533

     occupation numbers 
     1.0000   0.0000   0.0000   0.0000   0.0000   0.0000

          k = 0.6134-0.1804 0.0000 (   403 PWs)   bands (ev):

     4.2939   6.5948  11.2335  13.3381  17.7860  19.8085

     occupation numbers 
     1.0000   1.0000   0.0000   0.0000   0.0000   0.0000

          k = 0.6134-0.1443-0.0361 (   403 PWs)   bands (ev):

     4.1118   7.4994  10.5898  13.5888  16.6154  19.6548

     occupation numbers 
     1.0000   1.0470   0.0000   0.0000   0.0000   0.0000

          k = 0.6134-0.1083-0.0722 (   402 PWs)   bands (ev):

     4.0195   8.4535   9.6068  14.3012  15.6012  19.5754

     occupation numbers 
     1.0000   0.0000   0.0000   0.0000   0.0000   0.0000

          k =-0.2165-0.2165 0.8660 (   398 PWs)   bands (ev):

     5.1563   5.6501  11.1899  13.2946  18.5711  18.9480

     occupation numbers 
     1.0000   1.0000   0.0000   0.0000   0.0000   0.0000

          k =-0.2165-0.1804 0.8299 (   402 PWs)   bands (ev):

     5.1143   6.3369  10.5001  13.5091  17.4874  18.6154

     occupation numbers 
     1.0000   1.0000   0.0000   0.0000   0.0000   0.0000

          k =-0.2165-0.1443 0.7939 (   403 PWs)   bands (ev):

     4.9954   7.2645   9.4526  14.2371  16.3819  18.4761

     occupation numbers 
     1.0000   1.0000   0.0000   0.0000   0.0000   0.0000

          k =-0.2165-0.1083 0.7578 (   402 PWs)   bands (ev):

     4.9526   8.0621   8.5999  14.8812  15.6277  18.4312

     occupation numbers 
     1.0000   0.0001   0.0000   0.0000   0.0000   0.0000

          k =-0.1804-0.1804 0.7939 (   400 PWs)   bands (ev):

     5.8515   6.3333   9.4037  14.2067  17.0631  17.6985

     occupation numbers 
     1.0000   1.0000   0.0000   0.0000   0.0000   0.0000

          k =-0.1804-0.1443 0.7578 (   400 PWs)   bands (ev):

     5.9434   7.1070   8.3225  15.0486  16.1986  17.4307

     occupation numbers 
     1.0000   1.0000   0.0000   0.0000   0.0000   0.0000

          k =-0.1443-0.1443 0.7217 (   406 PWs)   bands (ev):

     6.8218   6.8218   7.6118  15.8303  15.8303  16.8819

     occupation numbers 
     1.0000   1.0000   1.0547   0.0000   0.0000   0.0000

          k = 0.5052 0.0000 0.0000 (   410 PWs)   bands (ev):

     1.4957  11.7999  11.7999  13.2986  14.6414  23.1972

     occupation numbers 
     1.0000   0.0000   0.0000   0.0000   0.0000   0.0000

          k = 0.5413-0.0361 0.0000 (   407 PWs)   bands (ev):

     2.2160  10.9092  11.4069  13.1301  14.4506  21.9322

     occupation numbers 
     1.0000   0.0000   0.0000   0.0000   0.0000   0.0000

          k = 0.5774-0.0722 0.0000 (   402 PWs)   bands (ev):

     3.0271   9.6604  11.1011  13.0451  14.7866  20.6899

     occupation numbers 
     1.0000   0.0000   0.0000   0.0000   0.0000   0.0000

          k = 0.5774-0.0361-0.0361 (   405 PWs)   bands (ev):

     2.9796  10.4419  10.6820  13.0740  14.2293  20.6544

     occupation numbers 
     1.0000   0.0000   0.0000   0.0000   0.0000   0.0000

          k = 0.6134-0.1083-0.0000 (   400 PWs)   bands (ev):

     3.9258   8.3936  10.8826  12.8987  15.4557  19.5026

     occupation numbers 
     1.0000   0.0000   0.0000   0.0000   0.0000   0.0000

          k = 0.6134-0.0722-0.0361 (   403 PWs)   bands (ev):

     3.8323   9.3271  10.3303  13.1362  14.5041  19.4236

     occupation numbers 
     1.0000   0.0000   0.0000   0.0000   0.0000   0.0000

          k = 0.6495-0.1443 0.0000 (   400 PWs)   bands (ev):

     4.9030   7.1841  10.7515  12.7881  16.2803  18.3969

     occupation numbers 
     1.0000   1.0000   0.0000   0.0000   0.0000   0.0000

          k = 0.6495-0.1083-0.0361 (   398 PWs)   bands (ev):

     4.7688   8.1145  10.1454  13.0673  15.1788  18.2669

     occupation numbers 
     1.0000   0.0000   0.0000   0.0000   0.0000   0.0000

          k = 0.6495-0.0722-0.0722 (   398 PWs)   bands (ev):

     4.7235   8.9169   9.3612  13.5703  14.4913  18.2235

     occupation numbers 
     1.0000   0.0000   0.0000   0.0000   0.0000   0.0000

          k =-0.1804-0.1804 0.8660 (   398 PWs)   bands (ev):

     5.7586   6.2498  10.7078  12.7487  16.9706  17.6163

     occupation numbers 
     1.0000   1.0000   0.0000   0.0000   0.0000   0.0000

          k =-0.1804-0.1443 0.8299 (   400 PWs)   bands (ev):

     5.7639   6.9714  10.0546  13.0080  15.9877  17.2484

     occupation numbers 
     1.0000   1.0000   0.0000   0.0000   0.0000   0.0000

          k =-0.1804-0.1083 0.7939 (   399 PWs)   bands (ev):

     5.6911   7.9069   9.0663  13.7309  14.9987  17.1289

     occupation numbers 
     1.0000   0.0239   0.0000   0.0000   0.0000   0.0000

          k =-0.1443-0.1443 0.7939 (   398 PWs)   bands (ev):

     6.5439   6.9966   9.0071  13.7380  15.5509  16.4311

     occupation numbers 
     1.0000   1.0000   0.0000   0.0000   0.0000   0.0000

          k =-0.1443-0.1083 0.7578 (   396 PWs)   bands (ev):

     6.6648   7.6007   8.1835  14.4128  14.9344  16.2153

     occupation numbers 
     1.0000   1.0689   0.0000   0.0000   0.0000   0.0000

          k = 0.5774-0.0000 0.0000 (   402 PWs)   bands (ev):

     2.9322  11.0133  11.0133  12.4115  13.8227  20.6189

     occupation numbers 
     1.0000   0.0000   0.0000   0.0000   0.0000   0.0000

          k = 0.6134-0.0361 0.0000 (   400 PWs)   bands (ev):

     3.7384  10.1931  10.7071  12.3529  13.7107  19.3448

     occupation numbers 
     1.0000   0.0000   0.0000   0.0000   0.0000   0.0000

          k = 0.6495-0.0722-0.0000 (   398 PWs)   bands (ev):

     4.6311   9.0233  10.4884  12.3653  14.1287  18.1392

     occupation numbers 
     1.0000   0.0000   0.0000   0.0000   0.0000   0.0000

          k = 0.6495-0.0361-0.0361 (   399 PWs)   bands (ev):

     4.5849   9.8100  10.0615  12.4030  13.5641  18.0964

     occupation numbers 
     1.0000   0.0000   0.0000   0.0000   0.0000   0.0000

          k = 0.6856-0.1083 0.0000 (   400 PWs)   bands (ev):

     5.6008   7.8492  10.3571  12.3082  14.8579  17.0368

     occupation numbers 
     1.0000   0.0948   0.0000   0.0000   0.0000   0.0000

          k = 0.6856-0.0722-0.0361 (   393 PWs)   bands (ev):

     5.5137   8.7811   9.7953  12.5600  13.9076  16.9383

     occupation numbers 
     1.0000   0.0000   0.0000   0.0000   0.0000   0.0000

          k =-0.1443-0.1443 0.8660 (   394 PWs)   bands (ev):

     6.4512   6.9269  10.3133  12.2804  15.4578  16.3245

     occupation numbers 
     1.0000   1.0000   0.0000   0.0000   0.0000   0.0000

          k =-0.1443-0.1083 0.8299 (   397 PWs)   bands (ev):

     6.4997   7.6773   9.6996  12.5711  14.5731  15.9617

     occupation numbers 
     1.0000   0.8522   0.0000   0.0000   0.0000   0.0000

          k =-0.1443-0.0722 0.7939 (   394 PWs)   bands (ev):

     6.4691   8.4582   8.9192  13.0983  13.9018  15.8783

     occupation numbers 
     1.0000   0.0000   0.0000   0.0000   0.0000   0.0000

          k =-0.1083-0.1083 0.7939 (   389 PWs)   bands (ev):

     7.3236   7.6926   8.7320  13.3011  14.1317  15.2862

     occupation numbers 
     1.0005   0.7780   0.0000   0.0000   0.0000   0.0000

          k = 0.6495 0.0000 0.0000 (   402 PWs)   bands (ev):

     4.5386  10.4006  10.4006  11.7210  13.1490  18.0537

     occupation numbers 
     1.0000   0.0000   0.0000   0.0000   0.0000   0.0000

          k = 0.6856-0.0361-0.0000 (   394 PWs)   bands (ev):

     5.4236   9.6547  10.1817  11.7685  13.1078  16.8444

     occupation numbers 
     1.0000   0.0000   0.0000   0.0000   0.0000   0.0000

          k = 0.7217-0.0722 0.0000 (   392 PWs)   bands (ev):

     6.3834   8.5721  10.0503  11.8671  13.5708  15.7643

     occupation numbers 
     1.0000   0.0000   0.0000   0.0000   0.0000   0.0000

          k = 0.7217-0.0361-0.0361 (   392 PWs)   bands (ev):

     6.3417   9.3578   9.6182  11.9240  13.0027  15.7050

     occupation numbers 
     1.0000   0.0000   0.0000   0.0000   0.0000   0.0000

          k =-0.1083-0.1083 0.8660 (   390 PWs)   bands (ev):

     7.2312   7.6691  10.0065  11.8765  14.0380  15.1288

     occupation numbers 
     1.0000   0.8885   0.0000   0.0000   0.0000   0.0000

          k =-0.1083-0.0722 0.8299 (   392 PWs)   bands (ev):

     7.3149   8.4298   9.4406  12.1571  13.2834  14.8068

     occupation numbers 
     1.0004   0.0000   0.0000   0.0000   0.0000   0.0000

          k =-0.0722-0.0722 0.7939 (   385 PWs)   bands (ev):

     8.1827   8.1827   8.7874  12.8150  12.8150  14.3907

     occupation numbers 
     0.0000   0.0000   0.0000   0.0000   0.0000   0.0000

          k = 0.7217 0.0000-0.0000 (   394 PWs)   bands (ev):

     6.2983   9.9626   9.9626  11.2276  12.5894  15.6500

     occupation numbers 
     1.0000   0.0000   0.0000   0.0000   0.0000   0.0000

          k = 0.7578-0.0361 0.0000 (   390 PWs)   bands (ev):

     7.2437   9.2967   9.8311  11.3742  12.5412  14.6268

     occupation numbers 
     1.0000   0.0000   0.0000   0.0000   0.0000   0.0000

          k =-0.0722-0.0722 0.8660 (   390 PWs)   bands (ev):

     8.0908   8.4504   9.7873  11.5030  12.7206  14.1023

     occupation numbers 
     0.0000   0.0000   0.0000   0.0000   0.0000   0.0000

          k =-0.0722-0.0361 0.8299 (   390 PWs)   bands (ev):

     8.1909   9.0862   9.3601  11.6367  12.2340  13.8870

     occupation numbers 
     0.0000   0.0000   0.0000   0.0000   0.0000   0.0000

          k = 0.7939-0.0000 0.0000 (   390 PWs)   bands (ev):

     8.1636   9.6996   9.6996  10.9315  11.8993  13.7410

     occupation numbers 
     0.0000   0.0000   0.0000   0.0000   0.0000   0.0000

          k =-0.0361-0.0361 0.8660 (   390 PWs)   bands (ev):

     8.9956   9.1991   9.6558  11.1067  11.5409  13.3766

     occupation numbers 
     0.0000   0.0000   0.0000   0.0000   0.0000   0.0000

          k =-0.8660-0.8660 0.8660 (   370 PWs)   bands (ev):

     9.6119   9.6119   9.6119  10.8328  10.8328  13.1130

     occupation numbers 
     0.0000   0.0000   0.0000   0.0000   0.0000   0.0000

     the Fermi energy is     7.7628 ev

!    total energy              =      -6.70058782 Ry
     Harris-Foulkes estimate   =      -6.70058779 Ry
     estimated scf accuracy    <       0.00000079 Ry

     The total energy is the sum of the following terms:

     one-electron contribution =       2.96228303 Ry
     hartree contribution      =       0.00558098 Ry
     xc contribution           =      -4.28664431 Ry
     ewald contribution        =      -5.38183349 Ry
     smearing contrib. (-TS)   =       0.00002597 Ry

     convergence has been achieved in   3 iterations
 
     init_run     :     31.20s CPU      7.80s WALL (       1 calls)
     electrons    :    894.58s CPU    126.99s WALL (       1 calls)

     Called by init_run:
     wfcinit      :     30.90s CPU      7.36s WALL (       1 calls)
     wfcinit:atom :      0.14s CPU      0.03s WALL (     413 calls)
     wfcinit:wfcr :     30.36s CPU      7.25s WALL (     413 calls)
     potinit      :      0.03s CPU      0.03s WALL (       1 calls)

     Called by electrons:
     c_bands      :    852.72s CPU    118.62s WALL (       4 calls)
     sum_band     :     41.08s CPU      8.22s WALL (       4 calls)
     v_of_rho     :      0.27s CPU      0.08s WALL (       4 calls)
     v_h          :      0.00s CPU      0.00s WALL (       4 calls)
     v_xc         :      0.26s CPU      0.08s WALL (       4 calls)
     newd         :      0.58s CPU      0.09s WALL (       4 calls)
     mix_rho      :      0.02s CPU      0.00s WALL (       4 calls)

     Called by c_bands:
     init_us_2    :      3.02s CPU      0.44s WALL (    3717 calls)
     cegterg      :    846.75s CPU    117.89s WALL (    1652 calls)

     Called by sum_band:
     sum_band:bec :      0.19s CPU      0.03s WALL (    1652 calls)
     addusdens    :      0.12s CPU      0.02s WALL (       4 calls)

     Called by *egterg:
     h_psi        :    454.14s CPU     66.23s WALL (    5774 calls)
     s_psi        :     47.32s CPU      7.11s WALL (    5774 calls)
     g_psi        :      0.61s CPU      0.07s WALL (    3709 calls)
     cdiaghg      :     13.50s CPU      1.72s WALL (    4948 calls)
     cegterg:over :    199.01s CPU     27.71s WALL (    3709 calls)
     cegterg:upda :     58.15s CPU      7.75s WALL (    3709 calls)
     cegterg:last :     97.73s CPU     13.72s WALL (    1881 calls)

     Called by h_psi:
     h_psi:pot    :    453.05s CPU     66.09s WALL (    5774 calls)
     h_psi:calbec :    105.19s CPU     15.80s WALL (    5774 calls)
     vloc_psi     :    283.60s CPU     40.80s WALL (    5774 calls)
     add_vuspsi   :     63.02s CPU      9.34s WALL (    5774 calls)

     General routines
     calbec       :    134.35s CPU     21.99s WALL (    7426 calls)
     fft          :      0.35s CPU      0.12s WALL (      54 calls)
     fftw         :    282.29s CPU     41.07s WALL (   66710 calls)
 
     Parallel routines
 
     PWSCF        : 15m25.89s CPU     2m14.87s WALL

 
   This run was terminated on:  19: 9: 5  30Jan2019            

=------------------------------------------------------------------------------=
   JOB DONE.
=------------------------------------------------------------------------------=
