
     Program PWSCF v.6.2 (svn rev. 14038) starts on 31Jan2019 at  0: 9:38 

     This program is part of the open-source Quantum ESPRESSO suite
     for quantum simulation of materials; please cite
         "P. Giannozzi et al., J. Phys.:Condens. Matter 21 395502 (2009);
         "P. Giannozzi et al., J. Phys.:Condens. Matter 29 465901 (2017);
          URL http://www.quantum-espresso.org", 
     in publications or presentations arising from this work. More details at
     http://www.quantum-espresso.org/quote

     Parallel version (MPI), running on     1 processors

     MPI processes distributed on     1 nodes
     Reading input from ./4654bef972e9.in
Warning: card &CELL ignored
Warning: card / ignored

     Current dimensions of program PWSCF are:
     Max number of different atomic species (ntypx) = 10
     Max number of k-points (npk) =  40000
     Max angular momentum in pseudopotentials (lmaxx) =  3
     Message from routine iosys:
     minimal I/O required, wf_collect reset to FALSE

     Subspace diagonalization in iterative solution of the eigenvalue problem:
     a serial algorithm will be used

 
     G-vector sticks info
     --------------------
     sticks:   dense  smooth     PW     G-vecs:    dense   smooth      PW
     Sum         349     349    121                 4111     4111     869
 


     bravais-lattice index     =            0
     lattice parameter (alat)  =       5.9461  a.u.
     unit-cell volume          =     148.6584 (a.u.)^3
     number of atoms/cell      =            1
     number of atomic types    =            1
     number of electrons       =         4.00
     number of Kohn-Sham states=            6
     kinetic-energy cutoff     =      35.0000  Ry
     charge density cutoff     =     140.0000  Ry
     convergence threshold     =      1.0E-06
     mixing beta               =       0.7000
     number of iterations used =            8  plain     mixing
     Exchange-correlation      = SLA  PW   PBE  PBE ( 1  4  3  4 0 0)
     nstep                     =           50


     celldm(1)=   5.946136  celldm(2)=   0.000000  celldm(3)=   0.000000
     celldm(4)=   0.000000  celldm(5)=   0.000000  celldm(6)=   0.000000

     crystal axes: (cart. coord. in units of alat)
               a(1) = (   0.866026   0.000000   0.500000 )  
               a(2) = (   0.288675   0.816497   0.500000 )  
               a(3) = (   0.000000   0.000000   1.000000 )  

     reciprocal axes: (cart. coord. in units 2 pi/alat)
               b(1) = (  1.154700 -0.408248  0.000000 )  
               b(2) = (  0.000000  1.224745  0.000000 )  
               b(3) = ( -0.577350 -0.408248  1.000000 )  


     PseudoPot. # 1 for Si read from file:
     ./si_pbe_v1.uspp.F.UPF
     MD5 check sum: a056efeee980c13900f22a371efd63c1
     Pseudo is Ultrasoft + core correction, Zval =  4.0
     Generated by new atomic code, or converted to UPF format
     Using radial grid of  899 points,  6 beta functions with: 
                l(1) =   0
                l(2) =   0
                l(3) =   1
                l(4) =   1
                l(5) =   2
                l(6) =   2
     Q(r) pseudized with  8 coefficients,  rinner =    0.900   0.900   0.900
                                                       0.900   0.900

     atomic species   valence    mass     pseudopotential
        Si             4.00    28.08550     Si( 1.00)

      4 Sym. Ops., with inversion, found


                                    s                        frac. trans.

      isym =  1     identity                                     

 cryst.   s( 1) = (     1          0          0      )
                  (     0          1          0      )
                  (     0          0          1      )

 cart.    s( 1) = (  1.0000000  0.0000000  0.0000000 )
                  (  0.0000000  1.0000000  0.0000000 )
                  ( -0.0000000 -0.0000000  1.0000000 )


      isym =  2     180 deg rotation - cart. axis [0,0,1]        

 cryst.   s( 2) = (    -1          0          1      )
                  (     0         -1          1      )
                  (     0          0          1      )

 cart.    s( 2) = ( -1.0000000  0.0000000  0.0000000 )
                  (  0.0000000 -1.0000000  0.0000000 )
                  (  0.0000007  0.0000005  1.0000000 )


      isym =  3     inversion                                    

 cryst.   s( 3) = (    -1          0          0      )
                  (     0         -1          0      )
                  (     0          0         -1      )

 cart.    s( 3) = ( -1.0000000  0.0000000  0.0000000 )
                  (  0.0000000 -1.0000000  0.0000000 )
                  (  0.0000000  0.0000000 -1.0000000 )


      isym =  4     inv. 180 deg rotation - cart. axis [0,0,1]   

 cryst.   s( 4) = (     1          0         -1      )
                  (     0          1         -1      )
                  (     0          0         -1      )

 cart.    s( 4) = (  1.0000000  0.0000000  0.0000000 )
                  (  0.0000000  1.0000000  0.0000000 )
                  ( -0.0000007 -0.0000005 -1.0000000 )


   Cartesian axes

     site n.     atom                  positions (alat units)
         1           Si  tau(   1) = (   0.0000000   0.0000000   0.0000000  )

   Crystallographic axes

     site n.     atom                  positions (cryst. coord.)
         1           Si  tau(   1) = (  0.0000000  0.0000000  0.0000000  )

     number of k points=   476  Marzari-Vanderbilt smearing, width (Ry)=  0.0038
                       cart. coord. in units 2pi/alat
        k(    1) = (   0.0000000   0.0000000   0.0000000), wk =   0.0011574
        k(    2) = (  -0.0481125  -0.0340207   0.0833333), wk =   0.0046296
        k(    3) = (  -0.0962250  -0.0680414   0.1666666), wk =   0.0046296
        k(    4) = (  -0.1443375  -0.1020621   0.2500000), wk =   0.0046296
        k(    5) = (  -0.1924499  -0.1360827   0.3333333), wk =   0.0046296
        k(    6) = (  -0.2405624  -0.1701034   0.4166666), wk =   0.0046296
        k(    7) = (   0.2886749   0.2041241  -0.4999999), wk =   0.0023148
        k(    8) = (   0.0000000   0.1020621   0.0000000), wk =   0.0023148
        k(    9) = (  -0.0481125   0.0680414   0.0833333), wk =   0.0046296
        k(   10) = (  -0.0962250   0.0340207   0.1666666), wk =   0.0046296
        k(   11) = (  -0.1443375   0.0000000   0.2500000), wk =   0.0046296
        k(   12) = (  -0.1924499  -0.0340207   0.3333333), wk =   0.0046296
        k(   13) = (  -0.2405624  -0.0680413   0.4166666), wk =   0.0046296
        k(   14) = (   0.2886749   0.3061862  -0.4999999), wk =   0.0046296
        k(   15) = (   0.2405624   0.2721655  -0.4166666), wk =   0.0046296
        k(   16) = (   0.1924499   0.2381448  -0.3333333), wk =   0.0046296
        k(   17) = (   0.1443375   0.2041241  -0.2500000), wk =   0.0046296
        k(   18) = (   0.0962250   0.1701034  -0.1666666), wk =   0.0046296
        k(   19) = (   0.0481125   0.1360828  -0.0833333), wk =   0.0046296
        k(   20) = (   0.0000000   0.2041242   0.0000000), wk =   0.0023148
        k(   21) = (  -0.0481125   0.1701035   0.0833333), wk =   0.0046296
        k(   22) = (  -0.0962250   0.1360828   0.1666666), wk =   0.0046296
        k(   23) = (  -0.1443375   0.1020621   0.2500000), wk =   0.0046296
        k(   24) = (  -0.1924499   0.0680414   0.3333333), wk =   0.0046296
        k(   25) = (  -0.2405624   0.0340207   0.4166666), wk =   0.0046296
        k(   26) = (   0.2886749   0.4082483  -0.4999999), wk =   0.0046296
        k(   27) = (   0.2405624   0.3742276  -0.4166666), wk =   0.0046296
        k(   28) = (   0.1924499   0.3402069  -0.3333333), wk =   0.0046296
        k(   29) = (   0.1443375   0.3061862  -0.2500000), wk =   0.0046296
        k(   30) = (   0.0962250   0.2721655  -0.1666666), wk =   0.0046296
        k(   31) = (   0.0481125   0.2381448  -0.0833333), wk =   0.0046296
        k(   32) = (   0.0000000   0.3061862   0.0000000), wk =   0.0023148
        k(   33) = (  -0.0481125   0.2721656   0.0833333), wk =   0.0046296
        k(   34) = (  -0.0962250   0.2381449   0.1666666), wk =   0.0046296
        k(   35) = (  -0.1443375   0.2041242   0.2500000), wk =   0.0046296
        k(   36) = (  -0.1924499   0.1701035   0.3333333), wk =   0.0046296
        k(   37) = (  -0.2405624   0.1360828   0.4166666), wk =   0.0046296
        k(   38) = (   0.2886749   0.5103103  -0.4999999), wk =   0.0046296
        k(   39) = (   0.2405624   0.4762897  -0.4166666), wk =   0.0046296
        k(   40) = (   0.1924499   0.4422690  -0.3333333), wk =   0.0046296
        k(   41) = (   0.1443375   0.4082483  -0.2500000), wk =   0.0046296
        k(   42) = (   0.0962250   0.3742276  -0.1666666), wk =   0.0046296
        k(   43) = (   0.0481125   0.3402069  -0.0833333), wk =   0.0046296
        k(   44) = (   0.0000000   0.4082483   0.0000000), wk =   0.0023148
        k(   45) = (  -0.0481125   0.3742276   0.0833333), wk =   0.0046296
        k(   46) = (  -0.0962250   0.3402069   0.1666666), wk =   0.0046296
        k(   47) = (  -0.1443375   0.3061863   0.2500000), wk =   0.0046296
        k(   48) = (  -0.1924499   0.2721656   0.3333333), wk =   0.0046296
        k(   49) = (  -0.2405624   0.2381449   0.4166666), wk =   0.0046296
        k(   50) = (   0.2886749   0.6123724  -0.4999999), wk =   0.0046296
        k(   51) = (   0.2405624   0.5783517  -0.4166666), wk =   0.0046296
        k(   52) = (   0.1924499   0.5443310  -0.3333333), wk =   0.0046296
        k(   53) = (   0.1443375   0.5103104  -0.2500000), wk =   0.0046296
        k(   54) = (   0.0962250   0.4762897  -0.1666666), wk =   0.0046296
        k(   55) = (   0.0481125   0.4422690  -0.0833333), wk =   0.0046296
        k(   56) = (   0.0000000   0.5103104   0.0000000), wk =   0.0023148
        k(   57) = (  -0.0481125   0.4762897   0.0833333), wk =   0.0046296
        k(   58) = (  -0.0962250   0.4422690   0.1666666), wk =   0.0046296
        k(   59) = (  -0.1443375   0.4082483   0.2500000), wk =   0.0046296
        k(   60) = (  -0.1924499   0.3742277   0.3333333), wk =   0.0046296
        k(   61) = (  -0.2405624   0.3402070   0.4166666), wk =   0.0046296
        k(   62) = (   0.2886749   0.7144345  -0.4999999), wk =   0.0046296
        k(   63) = (   0.2405624   0.6804138  -0.4166666), wk =   0.0046296
        k(   64) = (   0.1924499   0.6463931  -0.3333333), wk =   0.0046296
        k(   65) = (   0.1443375   0.6123724  -0.2500000), wk =   0.0046296
        k(   66) = (   0.0962250   0.5783518  -0.1666666), wk =   0.0046296
        k(   67) = (   0.0481125   0.5443311  -0.0833333), wk =   0.0046296
        k(   68) = (   0.0000000  -0.6123725   0.0000000), wk =   0.0011574
        k(   69) = (  -0.0481125  -0.6463932   0.0833333), wk =   0.0046296
        k(   70) = (  -0.0962250  -0.6804138   0.1666666), wk =   0.0046296
        k(   71) = (  -0.1443375  -0.7144345   0.2500000), wk =   0.0046296
        k(   72) = (  -0.1924499  -0.7484552   0.3333333), wk =   0.0046296
        k(   73) = (  -0.2405624  -0.7824759   0.4166666), wk =   0.0046296
        k(   74) = (   0.2886749  -0.4082484  -0.4999999), wk =   0.0023148
        k(   75) = (   0.0962250  -0.0340207   0.0000000), wk =   0.0023148
        k(   76) = (   0.0000001  -0.1020620   0.1666666), wk =   0.0046296
        k(   77) = (  -0.0481124  -0.1360827   0.2500000), wk =   0.0046296
        k(   78) = (  -0.0962249  -0.1701034   0.3333333), wk =   0.0046296
        k(   79) = (  -0.1443374  -0.2041241   0.4166666), wk =   0.0046296
        k(   80) = (   0.3848999   0.1701034  -0.4999999), wk =   0.0046296
        k(   81) = (   0.3367874   0.1360828  -0.4166666), wk =   0.0046296
        k(   82) = (   0.2886750   0.1020621  -0.3333333), wk =   0.0046296
        k(   83) = (   0.2405625   0.0680414  -0.2500000), wk =   0.0046296
        k(   84) = (   0.1924500   0.0340207  -0.1666666), wk =   0.0046296
        k(   85) = (   0.1443375   0.0000000  -0.0833333), wk =   0.0046296
        k(   86) = (   0.0962250   0.0680414   0.0000000), wk =   0.0023148
        k(   87) = (   0.0000001   0.0000000   0.1666666), wk =   0.0023148
        k(   88) = (  -0.0481124  -0.0340206   0.2500000), wk =   0.0046296
        k(   89) = (  -0.0962249  -0.0680413   0.3333333), wk =   0.0046296
        k(   90) = (  -0.1443374  -0.1020620   0.4166666), wk =   0.0046296
        k(   91) = (   0.3848999   0.2721655  -0.4999999), wk =   0.0046296
        k(   92) = (   0.3367874   0.2381448  -0.4166666), wk =   0.0046296
        k(   93) = (   0.2886750   0.2041241  -0.3333333), wk =   0.0046296
        k(   94) = (   0.2405625   0.1701035  -0.2500000), wk =   0.0046296
        k(   95) = (   0.1924500   0.1360828  -0.1666666), wk =   0.0046296
        k(   96) = (   0.1443375   0.1020621  -0.0833333), wk =   0.0046296
        k(   97) = (   0.0962250   0.1701035   0.0000000), wk =   0.0023148
        k(   98) = (  -0.0481124   0.0680414   0.2500000), wk =   0.0046296
        k(   99) = (  -0.0962249   0.0340208   0.3333333), wk =   0.0046296
        k(  100) = (  -0.1443374   0.0000001   0.4166666), wk =   0.0046296
        k(  101) = (   0.3848999   0.3742276  -0.4999999), wk =   0.0046296
        k(  102) = (   0.3367874   0.3402069  -0.4166666), wk =   0.0046296
        k(  103) = (   0.2886750   0.3061862  -0.3333333), wk =   0.0046296
        k(  104) = (   0.2405625   0.2721655  -0.2500000), wk =   0.0046296
        k(  105) = (   0.1924500   0.2381449  -0.1666666), wk =   0.0046296
        k(  106) = (   0.1443375   0.2041242  -0.0833333), wk =   0.0046296
        k(  107) = (   0.0962250   0.2721656   0.0000000), wk =   0.0023148
        k(  108) = (   0.0000001   0.2041242   0.1666666), wk =   0.0046296
        k(  109) = (  -0.0481124   0.1701035   0.2500000), wk =   0.0046296
        k(  110) = (  -0.0962249   0.1360828   0.3333333), wk =   0.0046296
        k(  111) = (  -0.1443374   0.1020621   0.4166666), wk =   0.0046296
        k(  112) = (   0.3848999   0.4762897  -0.4999999), wk =   0.0046296
        k(  113) = (   0.3367874   0.4422690  -0.4166666), wk =   0.0046296
        k(  114) = (   0.2886750   0.4082483  -0.3333333), wk =   0.0046296
        k(  115) = (   0.2405625   0.3742276  -0.2500000), wk =   0.0046296
        k(  116) = (   0.1924500   0.3402069  -0.1666666), wk =   0.0046296
        k(  117) = (   0.1443375   0.3061863  -0.0833333), wk =   0.0046296
        k(  118) = (   0.0962250   0.3742276   0.0000000), wk =   0.0023148
        k(  119) = (   0.0000001   0.3061863   0.1666666), wk =   0.0046296
        k(  120) = (  -0.0481124   0.2721656   0.2500000), wk =   0.0046296
        k(  121) = (  -0.0962249   0.2381449   0.3333333), wk =   0.0046296
        k(  122) = (  -0.1443374   0.2041242   0.4166666), wk =   0.0046296
        k(  123) = (   0.3848999   0.5783517  -0.4999999), wk =   0.0046296
        k(  124) = (   0.3367874   0.5443311  -0.4166666), wk =   0.0046296
        k(  125) = (   0.2886750   0.5103104  -0.3333333), wk =   0.0046296
        k(  126) = (   0.2405625   0.4762897  -0.2500000), wk =   0.0046296
        k(  127) = (   0.1924500   0.4422690  -0.1666666), wk =   0.0046296
        k(  128) = (   0.1443375   0.4082483  -0.0833333), wk =   0.0046296
        k(  129) = (   0.0962250   0.4762897   0.0000000), wk =   0.0023148
        k(  130) = (   0.0000001   0.4082484   0.1666666), wk =   0.0046296
        k(  131) = (  -0.0481124   0.3742277   0.2500000), wk =   0.0046296
        k(  132) = (  -0.0962249   0.3402070   0.3333333), wk =   0.0046296
        k(  133) = (  -0.1443374   0.3061863   0.4166666), wk =   0.0046296
        k(  134) = (   0.3848999   0.6804138  -0.4999999), wk =   0.0046296
        k(  135) = (   0.3367874   0.6463931  -0.4166666), wk =   0.0046296
        k(  136) = (   0.2886750   0.6123725  -0.3333333), wk =   0.0046296
        k(  137) = (   0.2405625   0.5783518  -0.2500000), wk =   0.0046296
        k(  138) = (   0.1924500   0.5443311  -0.1666666), wk =   0.0046296
        k(  139) = (   0.1443375   0.5103104  -0.0833333), wk =   0.0046296
        k(  140) = (   0.0962250  -0.6463931   0.0000000), wk =   0.0023148
        k(  141) = (   0.0000001  -0.7144345   0.1666666), wk =   0.0046296
        k(  142) = (  -0.0481124  -0.7484552   0.2500000), wk =   0.0046296
        k(  143) = (  -0.0962249  -0.7824759   0.3333333), wk =   0.0046296
        k(  144) = (  -0.1443374  -0.8164966   0.4166666), wk =   0.0046296
        k(  145) = (   0.3848999  -0.4422690  -0.4999999), wk =   0.0046296
        k(  146) = (   0.3367874  -0.4762897  -0.4166666), wk =   0.0046296
        k(  147) = (   0.2886750  -0.5103104  -0.3333333), wk =   0.0046296
        k(  148) = (   0.2405625  -0.5443311  -0.2500000), wk =   0.0046296
        k(  149) = (   0.1924500  -0.5783518  -0.1666666), wk =   0.0046296
        k(  150) = (   0.1443375  -0.6123725  -0.0833333), wk =   0.0046296
        k(  151) = (   0.0962250  -0.5443311   0.0000000), wk =   0.0023148
        k(  152) = (   0.0000001  -0.6123724   0.1666666), wk =   0.0023148
        k(  153) = (  -0.0481124  -0.6463931   0.2500000), wk =   0.0046296
        k(  154) = (  -0.0962249  -0.6804138   0.3333333), wk =   0.0046296
        k(  155) = (  -0.1443374  -0.7144345   0.4166666), wk =   0.0046296
        k(  156) = (   0.3848999  -0.3402070  -0.4999999), wk =   0.0046296
        k(  157) = (   0.3367874  -0.3742276  -0.4166666), wk =   0.0046296
        k(  158) = (   0.2886750  -0.4082483  -0.3333333), wk =   0.0046296
        k(  159) = (   0.2405625  -0.4422690  -0.2500000), wk =   0.0046296
        k(  160) = (   0.1924500  -0.4762897  -0.1666666), wk =   0.0046296
        k(  161) = (   0.1443375  -0.5103104  -0.0833333), wk =   0.0046296
        k(  162) = (   0.0962250  -0.4422690   0.0000000), wk =   0.0023148
        k(  163) = (  -0.0481124  -0.5443310   0.2500000), wk =   0.0046296
        k(  164) = (  -0.0962249  -0.5783517   0.3333333), wk =   0.0046296
        k(  165) = (  -0.1443374  -0.6123724   0.4166666), wk =   0.0046296
        k(  166) = (   0.3848999  -0.2381449  -0.4999999), wk =   0.0046296
        k(  167) = (   0.3367874  -0.2721656  -0.4166666), wk =   0.0046296
        k(  168) = (   0.2886750  -0.3061862  -0.3333333), wk =   0.0046296
        k(  169) = (   0.2405625  -0.3402069  -0.2500000), wk =   0.0046296
        k(  170) = (   0.1924500  -0.3742276  -0.1666666), wk =   0.0046296
        k(  171) = (   0.1443375  -0.4082483  -0.0833333), wk =   0.0046296
        k(  172) = (   0.0962250  -0.3402069   0.0000000), wk =   0.0023148
        k(  173) = (  -0.0481124  -0.4422690   0.2500000), wk =   0.0046296
        k(  174) = (  -0.0962249  -0.4762896   0.3333333), wk =   0.0046296
        k(  175) = (  -0.1443374  -0.5103103   0.4166666), wk =   0.0046296
        k(  176) = (   0.3848999  -0.1360828  -0.4999999), wk =   0.0046296
        k(  177) = (   0.3367874  -0.1701035  -0.4166666), wk =   0.0046296
        k(  178) = (   0.2886750  -0.2041242  -0.3333333), wk =   0.0046296
        k(  179) = (   0.2405625  -0.2381449  -0.2500000), wk =   0.0046296
        k(  180) = (   0.1924500  -0.2721655  -0.1666666), wk =   0.0046296
        k(  181) = (   0.1443375  -0.3061862  -0.0833333), wk =   0.0046296
        k(  182) = (   0.0962250  -0.2381448   0.0000000), wk =   0.0023148
        k(  183) = (  -0.0481124  -0.3402069   0.2500000), wk =   0.0046296
        k(  184) = (  -0.0962249  -0.3742276   0.3333333), wk =   0.0046296
        k(  185) = (  -0.1443374  -0.4082482   0.4166666), wk =   0.0046296
        k(  186) = (   0.3848999  -0.0340207  -0.4999999), wk =   0.0046296
        k(  187) = (   0.3367874  -0.0680414  -0.4166666), wk =   0.0046296
        k(  188) = (   0.2886750  -0.1020621  -0.3333333), wk =   0.0046296
        k(  189) = (   0.2405625  -0.1360828  -0.2500000), wk =   0.0046296
        k(  190) = (   0.1924500  -0.1701035  -0.1666666), wk =   0.0046296
        k(  191) = (   0.1443375  -0.2041241  -0.0833333), wk =   0.0046296
        k(  192) = (   0.0962250  -0.1360827   0.0000000), wk =   0.0023148
        k(  193) = (  -0.0481124  -0.2381448   0.2500000), wk =   0.0046296
        k(  194) = (  -0.0962249  -0.2721655   0.3333333), wk =   0.0046296
        k(  195) = (  -0.1443374  -0.3061862   0.4166666), wk =   0.0046296
        k(  196) = (   0.3848999   0.0680414  -0.4999999), wk =   0.0046296
        k(  197) = (   0.3367874   0.0340207  -0.4166666), wk =   0.0046296
        k(  198) = (   0.2886750  -0.0000000  -0.3333333), wk =   0.0046296
        k(  199) = (   0.2405625  -0.0340207  -0.2500000), wk =   0.0046296
        k(  200) = (   0.1924500  -0.0680414  -0.1666666), wk =   0.0046296
        k(  201) = (   0.1443375  -0.1020621  -0.0833333), wk =   0.0046296
        k(  202) = (   0.1924501  -0.0680413   0.0000000), wk =   0.0023148
        k(  203) = (   0.0000001  -0.2041241   0.3333333), wk =   0.0046296
        k(  204) = (  -0.0481124  -0.2381448   0.4166666), wk =   0.0046296
        k(  205) = (   0.4811250   0.1360828  -0.4999999), wk =   0.0046296
        k(  206) = (   0.4330125   0.1020621  -0.4166666), wk =   0.0046296
        k(  207) = (   0.3849000   0.0680414  -0.3333333), wk =   0.0046296
        k(  208) = (   0.3367875   0.0340207  -0.2500000), wk =   0.0046296
        k(  209) = (   0.2886750   0.0000000  -0.1666666), wk =   0.0046296
        k(  210) = (   0.2405625  -0.0340207  -0.0833333), wk =   0.0046296
        k(  211) = (   0.1924501   0.0340207   0.0000000), wk =   0.0023148
        k(  212) = (   0.0000001  -0.1020620   0.3333333), wk =   0.0046296
        k(  213) = (  -0.0481124  -0.1360827   0.4166666), wk =   0.0046296
        k(  214) = (   0.4811250   0.2381448  -0.4999999), wk =   0.0046296
        k(  215) = (   0.4330125   0.2041242  -0.4166666), wk =   0.0046296
        k(  216) = (   0.3849000   0.1701035  -0.3333333), wk =   0.0046296
        k(  217) = (   0.3367875   0.1360828  -0.2500000), wk =   0.0046296
        k(  218) = (   0.2886750   0.1020621  -0.1666666), wk =   0.0046296
        k(  219) = (   0.2405625   0.0680414  -0.0833333), wk =   0.0046296
        k(  220) = (   0.1924501   0.1360828   0.0000000), wk =   0.0023148
        k(  221) = (   0.0000001   0.0000001   0.3333333), wk =   0.0023148
        k(  222) = (  -0.0481124  -0.0340206   0.4166666), wk =   0.0046296
        k(  223) = (   0.4811250   0.3402069  -0.4999999), wk =   0.0046296
        k(  224) = (   0.4330125   0.3061862  -0.4166666), wk =   0.0046296
        k(  225) = (   0.3849000   0.2721656  -0.3333333), wk =   0.0046296
        k(  226) = (   0.3367875   0.2381449  -0.2500000), wk =   0.0046296
        k(  227) = (   0.2886750   0.2041242  -0.1666666), wk =   0.0046296
        k(  228) = (   0.2405625   0.1701035  -0.0833333), wk =   0.0046296
        k(  229) = (   0.1924501   0.2381449   0.0000000), wk =   0.0023148
        k(  230) = (  -0.0481124   0.0680415   0.4166666), wk =   0.0046296
        k(  231) = (   0.4811250   0.4422690  -0.4999999), wk =   0.0046296
        k(  232) = (   0.4330125   0.4082483  -0.4166666), wk =   0.0046296
        k(  233) = (   0.3849000   0.3742276  -0.3333333), wk =   0.0046296
        k(  234) = (   0.3367875   0.3402070  -0.2500000), wk =   0.0046296
        k(  235) = (   0.2886750   0.3061863  -0.1666666), wk =   0.0046296
        k(  236) = (   0.2405625   0.2721656  -0.0833333), wk =   0.0046296
        k(  237) = (   0.1924501   0.3402070   0.0000000), wk =   0.0023148
        k(  238) = (  -0.0481124   0.1701036   0.4166666), wk =   0.0046296
        k(  239) = (   0.4811250   0.5443311  -0.4999999), wk =   0.0046296
        k(  240) = (   0.4330125   0.5103104  -0.4166666), wk =   0.0046296
        k(  241) = (   0.3849000   0.4762897  -0.3333333), wk =   0.0046296
        k(  242) = (   0.3367875   0.4422690  -0.2500000), wk =   0.0046296
        k(  243) = (   0.2886750   0.4082483  -0.1666666), wk =   0.0046296
        k(  244) = (   0.2405625   0.3742277  -0.0833333), wk =   0.0046296
        k(  245) = (   0.1924501   0.4422691   0.0000000), wk =   0.0023148
        k(  246) = (   0.0000001   0.3061863   0.3333333), wk =   0.0046296
        k(  247) = (  -0.0481124   0.2721656   0.4166666), wk =   0.0046296
        k(  248) = (   0.4811250   0.6463932  -0.4999999), wk =   0.0046296
        k(  249) = (   0.4330125   0.6123725  -0.4166666), wk =   0.0046296
        k(  250) = (   0.3849000   0.5783518  -0.3333333), wk =   0.0046296
        k(  251) = (   0.3367875   0.5443311  -0.2500000), wk =   0.0046296
        k(  252) = (   0.2886750   0.5103104  -0.1666666), wk =   0.0046296
        k(  253) = (   0.2405625   0.4762897  -0.0833333), wk =   0.0046296
        k(  254) = (   0.1924501  -0.6804138   0.0000000), wk =   0.0023148
        k(  255) = (   0.0000001  -0.8164965   0.3333333), wk =   0.0046296
        k(  256) = (  -0.0481124  -0.8505172   0.4166666), wk =   0.0046296
        k(  257) = (   0.4811250  -0.4762897  -0.4999999), wk =   0.0046296
        k(  258) = (   0.4330125  -0.5103104  -0.4166666), wk =   0.0046296
        k(  259) = (   0.3849000  -0.5443311  -0.3333333), wk =   0.0046296
        k(  260) = (   0.3367875  -0.5783518  -0.2500000), wk =   0.0046296
        k(  261) = (   0.2886750  -0.6123724  -0.1666666), wk =   0.0046296
        k(  262) = (   0.2405625  -0.6463931  -0.0833333), wk =   0.0046296
        k(  263) = (   0.1924501  -0.5783517   0.0000000), wk =   0.0023148
        k(  264) = (   0.0000001  -0.7144345   0.3333333), wk =   0.0046296
        k(  265) = (  -0.0481124  -0.7484551   0.4166666), wk =   0.0046296
        k(  266) = (   0.4811250  -0.3742276  -0.4999999), wk =   0.0046296
        k(  267) = (   0.4330125  -0.4082483  -0.4166666), wk =   0.0046296
        k(  268) = (   0.3849000  -0.4422690  -0.3333333), wk =   0.0046296
        k(  269) = (   0.3367875  -0.4762897  -0.2500000), wk =   0.0046296
        k(  270) = (   0.2886750  -0.5103104  -0.1666666), wk =   0.0046296
        k(  271) = (   0.2405625  -0.5443310  -0.0833333), wk =   0.0046296
        k(  272) = (   0.1924501  -0.4762896   0.0000000), wk =   0.0023148
        k(  273) = (   0.0000001  -0.6123724   0.3333333), wk =   0.0023148
        k(  274) = (  -0.0481124  -0.6463931   0.4166666), wk =   0.0046296
        k(  275) = (   0.4811250  -0.2721655  -0.4999999), wk =   0.0046296
        k(  276) = (   0.4330125  -0.3061862  -0.4166666), wk =   0.0046296
        k(  277) = (   0.3849000  -0.3402069  -0.3333333), wk =   0.0046296
        k(  278) = (   0.3367875  -0.3742276  -0.2500000), wk =   0.0046296
        k(  279) = (   0.2886750  -0.4082483  -0.1666666), wk =   0.0046296
        k(  280) = (   0.2405625  -0.4422690  -0.0833333), wk =   0.0046296
        k(  281) = (   0.1924501  -0.3742276   0.0000000), wk =   0.0023148
        k(  282) = (  -0.0481124  -0.5443310   0.4166666), wk =   0.0046296
        k(  283) = (   0.4811250  -0.1701035  -0.4999999), wk =   0.0046296
        k(  284) = (   0.4330125  -0.2041242  -0.4166666), wk =   0.0046296
        k(  285) = (   0.3849000  -0.2381448  -0.3333333), wk =   0.0046296
        k(  286) = (   0.3367875  -0.2721655  -0.2500000), wk =   0.0046296
        k(  287) = (   0.2886750  -0.3061862  -0.1666666), wk =   0.0046296
        k(  288) = (   0.2405625  -0.3402069  -0.0833333), wk =   0.0046296
        k(  289) = (   0.1924501  -0.2721655   0.0000000), wk =   0.0023148
        k(  290) = (  -0.0481124  -0.4422689   0.4166666), wk =   0.0046296
        k(  291) = (   0.4811250  -0.0680414  -0.4999999), wk =   0.0046296
        k(  292) = (   0.4330125  -0.1020621  -0.4166666), wk =   0.0046296
        k(  293) = (   0.3849000  -0.1360828  -0.3333333), wk =   0.0046296
        k(  294) = (   0.3367875  -0.1701034  -0.2500000), wk =   0.0046296
        k(  295) = (   0.2886750  -0.2041241  -0.1666666), wk =   0.0046296
        k(  296) = (   0.2405625  -0.2381448  -0.0833333), wk =   0.0046296
        k(  297) = (   0.1924501  -0.1701034   0.0000000), wk =   0.0023148
        k(  298) = (  -0.0481124  -0.3402068   0.4166666), wk =   0.0046296
        k(  299) = (   0.4811250   0.0340207  -0.4999999), wk =   0.0046296
        k(  300) = (   0.4330125   0.0000000  -0.4166666), wk =   0.0046296
        k(  301) = (   0.3849000  -0.0340207  -0.3333333), wk =   0.0046296
        k(  302) = (   0.3367875  -0.0680414  -0.2500000), wk =   0.0046296
        k(  303) = (   0.2886750  -0.1020620  -0.1666666), wk =   0.0046296
        k(  304) = (   0.2405625  -0.1360827  -0.0833333), wk =   0.0046296
        k(  305) = (   0.2886751  -0.1020620   0.0000000), wk =   0.0023148
        k(  306) = (   0.5773500   0.1020621  -0.4999999), wk =   0.0046296
        k(  307) = (   0.5292375   0.0680414  -0.4166666), wk =   0.0046296
        k(  308) = (   0.4811250   0.0340207  -0.3333333), wk =   0.0046296
        k(  309) = (   0.4330125   0.0000000  -0.2500000), wk =   0.0046296
        k(  310) = (   0.3849001  -0.0340206  -0.1666666), wk =   0.0046296
        k(  311) = (   0.3367876  -0.0680413  -0.0833333), wk =   0.0046296
        k(  312) = (   0.2886751   0.0000001   0.0000000), wk =   0.0023148
        k(  313) = (   0.5773500   0.2041242  -0.4999999), wk =   0.0046296
        k(  314) = (   0.5292375   0.1701035  -0.4166666), wk =   0.0046296
        k(  315) = (   0.4811250   0.1360828  -0.3333333), wk =   0.0046296
        k(  316) = (   0.4330125   0.1020621  -0.2500000), wk =   0.0046296
        k(  317) = (   0.3849001   0.0680414  -0.1666666), wk =   0.0046296
        k(  318) = (   0.3367876   0.0340208  -0.0833333), wk =   0.0046296
        k(  319) = (   0.2886751   0.1020622   0.0000000), wk =   0.0023148
        k(  320) = (   0.5773500   0.3061863  -0.4999999), wk =   0.0046296
        k(  321) = (   0.5292375   0.2721656  -0.4166666), wk =   0.0046296
        k(  322) = (   0.4811250   0.2381449  -0.3333333), wk =   0.0046296
        k(  323) = (   0.4330125   0.2041242  -0.2500000), wk =   0.0046296
        k(  324) = (   0.3849001   0.1701035  -0.1666666), wk =   0.0046296
        k(  325) = (   0.3367876   0.1360828  -0.0833333), wk =   0.0046296
        k(  326) = (   0.2886751   0.2041242   0.0000000), wk =   0.0023148
        k(  327) = (   0.5773500   0.4082483  -0.4999999), wk =   0.0023148
        k(  328) = (   0.5292375   0.3742277  -0.4166666), wk =   0.0046296
        k(  329) = (   0.4811250   0.3402070  -0.3333333), wk =   0.0046296
        k(  330) = (   0.4330125   0.3061863  -0.2500000), wk =   0.0046296
        k(  331) = (   0.3849001   0.2721656  -0.1666666), wk =   0.0046296
        k(  332) = (   0.3367876   0.2381449  -0.0833333), wk =   0.0046296
        k(  333) = (   0.2886751   0.3061863   0.0000000), wk =   0.0023148
        k(  334) = (   0.5292375   0.4762897  -0.4166666), wk =   0.0046296
        k(  335) = (   0.4811250   0.4422690  -0.3333333), wk =   0.0046296
        k(  336) = (   0.4330125   0.4082484  -0.2500000), wk =   0.0046296
        k(  337) = (   0.3849001   0.3742277  -0.1666666), wk =   0.0046296
        k(  338) = (   0.3367876   0.3402070  -0.0833333), wk =   0.0046296
        k(  339) = (   0.2886751   0.4082484   0.0000000), wk =   0.0023148
        k(  340) = (   0.5292375   0.5783518  -0.4166666), wk =   0.0046296
        k(  341) = (   0.4811250   0.5443311  -0.3333333), wk =   0.0046296
        k(  342) = (   0.4330125   0.5103104  -0.2500000), wk =   0.0046296
        k(  343) = (   0.3849001   0.4762898  -0.1666666), wk =   0.0046296
        k(  344) = (   0.3367876   0.4422691  -0.0833333), wk =   0.0046296
        k(  345) = (   0.2886751  -0.7144345   0.0000000), wk =   0.0023148
        k(  346) = (   0.5292375  -0.5443311  -0.4166666), wk =   0.0046296
        k(  347) = (   0.4811250  -0.5783517  -0.3333333), wk =   0.0046296
        k(  348) = (   0.4330125  -0.6123724  -0.2500000), wk =   0.0046296
        k(  349) = (   0.3849001  -0.6463931  -0.1666666), wk =   0.0046296
        k(  350) = (   0.3367876  -0.6804138  -0.0833333), wk =   0.0046296
        k(  351) = (   0.2886751  -0.6123724   0.0000000), wk =   0.0023148
        k(  352) = (   0.5773500  -0.4082483  -0.4999999), wk =   0.0046296
        k(  353) = (   0.5292375  -0.4422690  -0.4166666), wk =   0.0046296
        k(  354) = (   0.4811250  -0.4762897  -0.3333333), wk =   0.0046296
        k(  355) = (   0.4330125  -0.5103103  -0.2500000), wk =   0.0046296
        k(  356) = (   0.3849001  -0.5443310  -0.1666666), wk =   0.0046296
        k(  357) = (   0.3367876  -0.5783517  -0.0833333), wk =   0.0046296
        k(  358) = (   0.2886751  -0.5103103   0.0000000), wk =   0.0023148
        k(  359) = (   0.5773500  -0.3061862  -0.4999999), wk =   0.0046296
        k(  360) = (   0.5292375  -0.3402069  -0.4166666), wk =   0.0046296
        k(  361) = (   0.4811250  -0.3742276  -0.3333333), wk =   0.0046296
        k(  362) = (   0.4330125  -0.4082483  -0.2500000), wk =   0.0046296
        k(  363) = (   0.3849001  -0.4422690  -0.1666666), wk =   0.0046296
        k(  364) = (   0.3367876  -0.4762896  -0.0833333), wk =   0.0046296
        k(  365) = (   0.2886751  -0.4082482   0.0000000), wk =   0.0023148
        k(  366) = (   0.5773500  -0.2041241  -0.4999999), wk =   0.0023148
        k(  367) = (   0.5292375  -0.2381448  -0.4166666), wk =   0.0046296
        k(  368) = (   0.4811250  -0.2721655  -0.3333333), wk =   0.0046296
        k(  369) = (   0.4330125  -0.3061862  -0.2500000), wk =   0.0046296
        k(  370) = (   0.3849001  -0.3402069  -0.1666666), wk =   0.0046296
        k(  371) = (   0.3367876  -0.3742276  -0.0833333), wk =   0.0046296
        k(  372) = (   0.2886751  -0.3061862   0.0000000), wk =   0.0023148
        k(  373) = (   0.5292375  -0.1360827  -0.4166666), wk =   0.0046296
        k(  374) = (   0.4811250  -0.1701034  -0.3333333), wk =   0.0046296
        k(  375) = (   0.4330125  -0.2041241  -0.2500000), wk =   0.0046296
        k(  376) = (   0.3849001  -0.2381448  -0.1666666), wk =   0.0046296
        k(  377) = (   0.3367876  -0.2721655  -0.0833333), wk =   0.0046296
        k(  378) = (   0.2886751  -0.2041241   0.0000000), wk =   0.0023148
        k(  379) = (   0.5292375  -0.0340207  -0.4166666), wk =   0.0046296
        k(  380) = (   0.4811250  -0.0680413  -0.3333333), wk =   0.0046296
        k(  381) = (   0.4330125  -0.1020620  -0.2500000), wk =   0.0046296
        k(  382) = (   0.3849001  -0.1360827  -0.1666666), wk =   0.0046296
        k(  383) = (   0.3367876  -0.1701034  -0.0833333), wk =   0.0046296
        k(  384) = (   0.3849001  -0.1360827   0.0000000), wk =   0.0023148
        k(  385) = (   0.5773500   0.0000001  -0.3333333), wk =   0.0046296
        k(  386) = (   0.5292376  -0.0340206  -0.2500000), wk =   0.0046296
        k(  387) = (   0.4811251  -0.0680413  -0.1666666), wk =   0.0046296
        k(  388) = (   0.4330126  -0.1020620  -0.0833333), wk =   0.0046296
        k(  389) = (   0.3849001  -0.0340206   0.0000000), wk =   0.0023148
        k(  390) = (   0.5773500   0.1020621  -0.3333333), wk =   0.0046296
        k(  391) = (   0.5292376   0.0680415  -0.2500000), wk =   0.0046296
        k(  392) = (   0.4811251   0.0340208  -0.1666666), wk =   0.0046296
        k(  393) = (   0.4330126   0.0000001  -0.0833333), wk =   0.0046296
        k(  394) = (   0.3849001   0.0680415   0.0000000), wk =   0.0023148
        k(  395) = (   0.5773500   0.2041242  -0.3333333), wk =   0.0046296
        k(  396) = (   0.5292376   0.1701035  -0.2500000), wk =   0.0046296
        k(  397) = (   0.4811251   0.1360829  -0.1666666), wk =   0.0046296
        k(  398) = (   0.4330126   0.1020622  -0.0833333), wk =   0.0046296
        k(  399) = (   0.3849001   0.1701036   0.0000000), wk =   0.0023148
        k(  400) = (   0.5773500   0.3061863  -0.3333333), wk =   0.0046296
        k(  401) = (   0.5292376   0.2721656  -0.2500000), wk =   0.0046296
        k(  402) = (   0.4811251   0.2381449  -0.1666666), wk =   0.0046296
        k(  403) = (   0.4330126   0.2041242  -0.0833333), wk =   0.0046296
        k(  404) = (   0.3849001   0.2721656   0.0000000), wk =   0.0023148
        k(  405) = (   0.5773500   0.4082484  -0.3333333), wk =   0.0023148
        k(  406) = (   0.5292376   0.3742277  -0.2500000), wk =   0.0046296
        k(  407) = (   0.4811251   0.3402070  -0.1666666), wk =   0.0046296
        k(  408) = (   0.4330126   0.3061863  -0.0833333), wk =   0.0046296
        k(  409) = (   0.3849001   0.3742277   0.0000000), wk =   0.0023148
        k(  410) = (   0.5292376   0.4762898  -0.2500000), wk =   0.0046296
        k(  411) = (   0.4811251   0.4422691  -0.1666666), wk =   0.0046296
        k(  412) = (   0.4330126   0.4082484  -0.0833333), wk =   0.0046296
        k(  413) = (   0.3849001  -0.7484551   0.0000000), wk =   0.0023148
        k(  414) = (   0.5292376  -0.6463931  -0.2500000), wk =   0.0046296
        k(  415) = (   0.4811251  -0.6804138  -0.1666666), wk =   0.0046296
        k(  416) = (   0.4330126  -0.7144345  -0.0833333), wk =   0.0046296
        k(  417) = (   0.3849001  -0.6463931   0.0000000), wk =   0.0023148
        k(  418) = (   0.5292376  -0.5443310  -0.2500000), wk =   0.0046296
        k(  419) = (   0.4811251  -0.5783517  -0.1666666), wk =   0.0046296
        k(  420) = (   0.4330126  -0.6123724  -0.0833333), wk =   0.0046296
        k(  421) = (   0.3849001  -0.5443310   0.0000000), wk =   0.0023148
        k(  422) = (   0.5292376  -0.4422689  -0.2500000), wk =   0.0046296
        k(  423) = (   0.4811251  -0.4762896  -0.1666666), wk =   0.0046296
        k(  424) = (   0.4330126  -0.5103103  -0.0833333), wk =   0.0046296
        k(  425) = (   0.3849001  -0.4422689   0.0000000), wk =   0.0023148
        k(  426) = (   0.5773500  -0.3061862  -0.3333333), wk =   0.0046296
        k(  427) = (   0.5292376  -0.3402069  -0.2500000), wk =   0.0046296
        k(  428) = (   0.4811251  -0.3742275  -0.1666666), wk =   0.0046296
        k(  429) = (   0.4330126  -0.4082482  -0.0833333), wk =   0.0046296
        k(  430) = (   0.3849001  -0.3402068   0.0000000), wk =   0.0023148
        k(  431) = (   0.5773500  -0.2041241  -0.3333333), wk =   0.0023148
        k(  432) = (   0.5292376  -0.2381448  -0.2500000), wk =   0.0046296
        k(  433) = (   0.4811251  -0.2721655  -0.1666666), wk =   0.0046296
        k(  434) = (   0.4330126  -0.3061861  -0.0833333), wk =   0.0046296
        k(  435) = (   0.3849001  -0.2381447   0.0000000), wk =   0.0023148
        k(  436) = (   0.5292376  -0.1360827  -0.2500000), wk =   0.0046296
        k(  437) = (   0.4811251  -0.1701034  -0.1666666), wk =   0.0046296
        k(  438) = (   0.4330126  -0.2041241  -0.0833333), wk =   0.0046296
        k(  439) = (   0.4811251  -0.1701033   0.0000000), wk =   0.0023148
        k(  440) = (   0.5773501  -0.1020620  -0.1666666), wk =   0.0046296
        k(  441) = (   0.5292376  -0.1360827  -0.0833333), wk =   0.0046296
        k(  442) = (   0.4811251  -0.0680413   0.0000000), wk =   0.0023148
        k(  443) = (   0.5773501   0.0000001  -0.1666666), wk =   0.0046296
        k(  444) = (   0.5292376  -0.0340206  -0.0833333), wk =   0.0046296
        k(  445) = (   0.4811251   0.0340208   0.0000000), wk =   0.0023148
        k(  446) = (   0.5773501   0.1020622  -0.1666666), wk =   0.0046296
        k(  447) = (   0.5292376   0.0680415  -0.0833333), wk =   0.0046296
        k(  448) = (   0.4811251   0.1360829   0.0000000), wk =   0.0023148
        k(  449) = (   0.5773501   0.2041243  -0.1666666), wk =   0.0046296
        k(  450) = (   0.5292376   0.1701036  -0.0833333), wk =   0.0046296
        k(  451) = (   0.4811251   0.2381450   0.0000000), wk =   0.0023148
        k(  452) = (   0.5773501   0.3061863  -0.1666666), wk =   0.0046296
        k(  453) = (   0.5292376   0.2721657  -0.0833333), wk =   0.0046296
        k(  454) = (   0.4811251   0.3402071   0.0000000), wk =   0.0023148
        k(  455) = (   0.5773501   0.4082484  -0.1666666), wk =   0.0023148
        k(  456) = (   0.5292376   0.3742277  -0.0833333), wk =   0.0046296
        k(  457) = (   0.4811251  -0.7824758   0.0000000), wk =   0.0023148
        k(  458) = (   0.5292376  -0.7484551  -0.0833333), wk =   0.0046296
        k(  459) = (   0.4811251  -0.6804137   0.0000000), wk =   0.0023148
        k(  460) = (   0.5292376  -0.6463930  -0.0833333), wk =   0.0046296
        k(  461) = (   0.4811251  -0.5783517   0.0000000), wk =   0.0023148
        k(  462) = (   0.5292376  -0.5443310  -0.0833333), wk =   0.0046296
        k(  463) = (   0.4811251  -0.4762896   0.0000000), wk =   0.0023148
        k(  464) = (   0.5292376  -0.4422689  -0.0833333), wk =   0.0046296
        k(  465) = (   0.4811251  -0.3742275   0.0000000), wk =   0.0023148
        k(  466) = (   0.5292376  -0.3402068  -0.0833333), wk =   0.0046296
        k(  467) = (   0.4811251  -0.2721654   0.0000000), wk =   0.0023148
        k(  468) = (   0.5773501  -0.2041241  -0.1666666), wk =   0.0023148
        k(  469) = (   0.5292376  -0.2381447  -0.0833333), wk =   0.0046296
        k(  470) = (  -0.5773502   0.2041240   0.0000000), wk =   0.0011574
        k(  471) = (  -0.5773502   0.3061861   0.0000000), wk =   0.0023148
        k(  472) = (  -0.5773502   0.4082482   0.0000000), wk =   0.0023148
        k(  473) = (  -0.5773502   0.5103102   0.0000000), wk =   0.0023148
        k(  474) = (  -0.5773502   0.6123723   0.0000000), wk =   0.0023148
        k(  475) = (  -0.5773502   0.7144344   0.0000000), wk =   0.0023148
        k(  476) = (  -0.5773502  -0.4082485   0.0000000), wk =   0.0011574

                       cryst. coord.
        k(    1) = (   0.0000000   0.0000000   0.0000000), wk =   0.0011574
        k(    2) = (   0.0000000   0.0000000   0.0833333), wk =   0.0046296
        k(    3) = (   0.0000000   0.0000000   0.1666667), wk =   0.0046296
        k(    4) = (  -0.0000000   0.0000000   0.2500000), wk =   0.0046296
        k(    5) = (   0.0000000   0.0000000   0.3333333), wk =   0.0046296
        k(    6) = (  -0.0000000  -0.0000000   0.4166667), wk =   0.0046296
        k(    7) = (   0.0000000   0.0000000  -0.5000000), wk =   0.0023148
        k(    8) = (   0.0000000   0.0833333   0.0000000), wk =   0.0023148
        k(    9) = (   0.0000000   0.0833333   0.0833333), wk =   0.0046296
        k(   10) = (   0.0000000   0.0833333   0.1666667), wk =   0.0046296
        k(   11) = (  -0.0000000   0.0833333   0.2500000), wk =   0.0046296
        k(   12) = (   0.0000000   0.0833333   0.3333333), wk =   0.0046296
        k(   13) = (  -0.0000000   0.0833333   0.4166667), wk =   0.0046296
        k(   14) = (   0.0000000   0.0833333  -0.5000000), wk =   0.0046296
        k(   15) = (   0.0000000   0.0833333  -0.4166667), wk =   0.0046296
        k(   16) = (   0.0000000   0.0833333  -0.3333333), wk =   0.0046296
        k(   17) = (   0.0000000   0.0833333  -0.2500000), wk =   0.0046296
        k(   18) = (   0.0000000   0.0833333  -0.1666667), wk =   0.0046296
        k(   19) = (   0.0000000   0.0833333  -0.0833333), wk =   0.0046296
        k(   20) = (   0.0000000   0.1666667   0.0000000), wk =   0.0023148
        k(   21) = (   0.0000000   0.1666667   0.0833333), wk =   0.0046296
        k(   22) = (   0.0000000   0.1666667   0.1666667), wk =   0.0046296
        k(   23) = (  -0.0000000   0.1666667   0.2500000), wk =   0.0046296
        k(   24) = (   0.0000000   0.1666667   0.3333333), wk =   0.0046296
        k(   25) = (  -0.0000000   0.1666667   0.4166667), wk =   0.0046296
        k(   26) = (   0.0000000   0.1666667  -0.5000000), wk =   0.0046296
        k(   27) = (   0.0000000   0.1666667  -0.4166667), wk =   0.0046296
        k(   28) = (   0.0000000   0.1666667  -0.3333333), wk =   0.0046296
        k(   29) = (   0.0000000   0.1666667  -0.2500000), wk =   0.0046296
        k(   30) = (   0.0000000   0.1666667  -0.1666667), wk =   0.0046296
        k(   31) = (   0.0000000   0.1666667  -0.0833333), wk =   0.0046296
        k(   32) = (   0.0000000   0.2500000   0.0000000), wk =   0.0023148
        k(   33) = (   0.0000000   0.2500000   0.0833333), wk =   0.0046296
        k(   34) = (   0.0000000   0.2500000   0.1666667), wk =   0.0046296
        k(   35) = (  -0.0000000   0.2500000   0.2500000), wk =   0.0046296
        k(   36) = (   0.0000000   0.2500000   0.3333333), wk =   0.0046296
        k(   37) = (  -0.0000000   0.2500000   0.4166667), wk =   0.0046296
        k(   38) = (   0.0000000   0.2500000  -0.5000000), wk =   0.0046296
        k(   39) = (   0.0000000   0.2500000  -0.4166667), wk =   0.0046296
        k(   40) = (   0.0000000   0.2500000  -0.3333333), wk =   0.0046296
        k(   41) = (   0.0000000   0.2500000  -0.2500000), wk =   0.0046296
        k(   42) = (   0.0000000   0.2500000  -0.1666667), wk =   0.0046296
        k(   43) = (   0.0000000   0.2500000  -0.0833333), wk =   0.0046296
        k(   44) = (   0.0000000   0.3333333   0.0000000), wk =   0.0023148
        k(   45) = (   0.0000000   0.3333333   0.0833333), wk =   0.0046296
        k(   46) = (   0.0000000   0.3333333   0.1666667), wk =   0.0046296
        k(   47) = (  -0.0000000   0.3333333   0.2500000), wk =   0.0046296
        k(   48) = (   0.0000000   0.3333333   0.3333333), wk =   0.0046296
        k(   49) = (  -0.0000000   0.3333333   0.4166667), wk =   0.0046296
        k(   50) = (   0.0000000   0.3333333  -0.5000000), wk =   0.0046296
        k(   51) = (   0.0000000   0.3333333  -0.4166667), wk =   0.0046296
        k(   52) = (   0.0000000   0.3333333  -0.3333333), wk =   0.0046296
        k(   53) = (   0.0000000   0.3333333  -0.2500000), wk =   0.0046296
        k(   54) = (   0.0000000   0.3333333  -0.1666667), wk =   0.0046296
        k(   55) = (   0.0000000   0.3333333  -0.0833333), wk =   0.0046296
        k(   56) = (   0.0000000   0.4166667   0.0000000), wk =   0.0023148
        k(   57) = (   0.0000000   0.4166667   0.0833333), wk =   0.0046296
        k(   58) = (   0.0000000   0.4166667   0.1666667), wk =   0.0046296
        k(   59) = (  -0.0000000   0.4166667   0.2500000), wk =   0.0046296
        k(   60) = (   0.0000000   0.4166667   0.3333333), wk =   0.0046296
        k(   61) = (  -0.0000000   0.4166667   0.4166667), wk =   0.0046296
        k(   62) = (   0.0000000   0.4166667  -0.5000000), wk =   0.0046296
        k(   63) = (   0.0000000   0.4166667  -0.4166667), wk =   0.0046296
        k(   64) = (   0.0000000   0.4166667  -0.3333333), wk =   0.0046296
        k(   65) = (   0.0000000   0.4166667  -0.2500000), wk =   0.0046296
        k(   66) = (   0.0000000   0.4166667  -0.1666667), wk =   0.0046296
        k(   67) = (   0.0000000   0.4166667  -0.0833333), wk =   0.0046296
        k(   68) = (   0.0000000  -0.5000000   0.0000000), wk =   0.0011574
        k(   69) = (   0.0000000  -0.5000000   0.0833333), wk =   0.0046296
        k(   70) = (   0.0000000  -0.5000000   0.1666667), wk =   0.0046296
        k(   71) = (  -0.0000000  -0.5000000   0.2500000), wk =   0.0046296
        k(   72) = (   0.0000000  -0.5000000   0.3333333), wk =   0.0046296
        k(   73) = (  -0.0000000  -0.5000000   0.4166667), wk =   0.0046296
        k(   74) = (   0.0000000  -0.5000000  -0.5000000), wk =   0.0023148
        k(   75) = (   0.0833333  -0.0000000   0.0000000), wk =   0.0023148
        k(   76) = (   0.0833333   0.0000000   0.1666667), wk =   0.0046296
        k(   77) = (   0.0833333  -0.0000000   0.2500000), wk =   0.0046296
        k(   78) = (   0.0833333   0.0000000   0.3333333), wk =   0.0046296
        k(   79) = (   0.0833333  -0.0000000   0.4166667), wk =   0.0046296
        k(   80) = (   0.0833333   0.0000000  -0.5000000), wk =   0.0046296
        k(   81) = (   0.0833333   0.0000000  -0.4166667), wk =   0.0046296
        k(   82) = (   0.0833333  -0.0000000  -0.3333333), wk =   0.0046296
        k(   83) = (   0.0833333   0.0000000  -0.2500000), wk =   0.0046296
        k(   84) = (   0.0833333   0.0000000  -0.1666667), wk =   0.0046296
        k(   85) = (   0.0833333   0.0000000  -0.0833333), wk =   0.0046296
        k(   86) = (   0.0833333   0.0833333   0.0000000), wk =   0.0023148
        k(   87) = (   0.0833333   0.0833333   0.1666667), wk =   0.0023148
        k(   88) = (   0.0833333   0.0833333   0.2500000), wk =   0.0046296
        k(   89) = (   0.0833333   0.0833333   0.3333333), wk =   0.0046296
        k(   90) = (   0.0833333   0.0833333   0.4166667), wk =   0.0046296
        k(   91) = (   0.0833333   0.0833333  -0.5000000), wk =   0.0046296
        k(   92) = (   0.0833333   0.0833333  -0.4166667), wk =   0.0046296
        k(   93) = (   0.0833333   0.0833333  -0.3333333), wk =   0.0046296
        k(   94) = (   0.0833333   0.0833333  -0.2500000), wk =   0.0046296
        k(   95) = (   0.0833333   0.0833333  -0.1666667), wk =   0.0046296
        k(   96) = (   0.0833333   0.0833333  -0.0833333), wk =   0.0046296
        k(   97) = (   0.0833333   0.1666667   0.0000000), wk =   0.0023148
        k(   98) = (   0.0833333   0.1666667   0.2500000), wk =   0.0046296
        k(   99) = (   0.0833333   0.1666667   0.3333333), wk =   0.0046296
        k(  100) = (   0.0833333   0.1666667   0.4166667), wk =   0.0046296
        k(  101) = (   0.0833333   0.1666667  -0.5000000), wk =   0.0046296
        k(  102) = (   0.0833333   0.1666667  -0.4166667), wk =   0.0046296
        k(  103) = (   0.0833333   0.1666667  -0.3333333), wk =   0.0046296
        k(  104) = (   0.0833333   0.1666667  -0.2500000), wk =   0.0046296
        k(  105) = (   0.0833333   0.1666667  -0.1666667), wk =   0.0046296
        k(  106) = (   0.0833333   0.1666667  -0.0833333), wk =   0.0046296
        k(  107) = (   0.0833333   0.2500000   0.0000000), wk =   0.0023148
        k(  108) = (   0.0833333   0.2500000   0.1666667), wk =   0.0046296
        k(  109) = (   0.0833333   0.2500000   0.2500000), wk =   0.0046296
        k(  110) = (   0.0833333   0.2500000   0.3333333), wk =   0.0046296
        k(  111) = (   0.0833333   0.2500000   0.4166667), wk =   0.0046296
        k(  112) = (   0.0833333   0.2500000  -0.5000000), wk =   0.0046296
        k(  113) = (   0.0833333   0.2500000  -0.4166667), wk =   0.0046296
        k(  114) = (   0.0833333   0.2500000  -0.3333333), wk =   0.0046296
        k(  115) = (   0.0833333   0.2500000  -0.2500000), wk =   0.0046296
        k(  116) = (   0.0833333   0.2500000  -0.1666667), wk =   0.0046296
        k(  117) = (   0.0833333   0.2500000  -0.0833333), wk =   0.0046296
        k(  118) = (   0.0833333   0.3333333   0.0000000), wk =   0.0023148
        k(  119) = (   0.0833333   0.3333333   0.1666667), wk =   0.0046296
        k(  120) = (   0.0833333   0.3333333   0.2500000), wk =   0.0046296
        k(  121) = (   0.0833333   0.3333333   0.3333333), wk =   0.0046296
        k(  122) = (   0.0833333   0.3333333   0.4166667), wk =   0.0046296
        k(  123) = (   0.0833333   0.3333333  -0.5000000), wk =   0.0046296
        k(  124) = (   0.0833333   0.3333333  -0.4166667), wk =   0.0046296
        k(  125) = (   0.0833333   0.3333333  -0.3333333), wk =   0.0046296
        k(  126) = (   0.0833333   0.3333333  -0.2500000), wk =   0.0046296
        k(  127) = (   0.0833333   0.3333333  -0.1666667), wk =   0.0046296
        k(  128) = (   0.0833333   0.3333333  -0.0833333), wk =   0.0046296
        k(  129) = (   0.0833333   0.4166667   0.0000000), wk =   0.0023148
        k(  130) = (   0.0833333   0.4166667   0.1666667), wk =   0.0046296
        k(  131) = (   0.0833333   0.4166667   0.2500000), wk =   0.0046296
        k(  132) = (   0.0833333   0.4166667   0.3333333), wk =   0.0046296
        k(  133) = (   0.0833333   0.4166667   0.4166667), wk =   0.0046296
        k(  134) = (   0.0833333   0.4166667  -0.5000000), wk =   0.0046296
        k(  135) = (   0.0833333   0.4166667  -0.4166667), wk =   0.0046296
        k(  136) = (   0.0833333   0.4166667  -0.3333333), wk =   0.0046296
        k(  137) = (   0.0833333   0.4166667  -0.2500000), wk =   0.0046296
        k(  138) = (   0.0833333   0.4166667  -0.1666667), wk =   0.0046296
        k(  139) = (   0.0833333   0.4166667  -0.0833333), wk =   0.0046296
        k(  140) = (   0.0833333  -0.5000000   0.0000000), wk =   0.0023148
        k(  141) = (   0.0833333  -0.5000000   0.1666667), wk =   0.0046296
        k(  142) = (   0.0833333  -0.5000000   0.2500000), wk =   0.0046296
        k(  143) = (   0.0833333  -0.5000000   0.3333333), wk =   0.0046296
        k(  144) = (   0.0833333  -0.5000000   0.4166667), wk =   0.0046296
        k(  145) = (   0.0833333  -0.5000000  -0.5000000), wk =   0.0046296
        k(  146) = (   0.0833333  -0.5000000  -0.4166667), wk =   0.0046296
        k(  147) = (   0.0833333  -0.5000000  -0.3333333), wk =   0.0046296
        k(  148) = (   0.0833333  -0.5000000  -0.2500000), wk =   0.0046296
        k(  149) = (   0.0833333  -0.5000000  -0.1666667), wk =   0.0046296
        k(  150) = (   0.0833333  -0.5000000  -0.0833333), wk =   0.0046296
        k(  151) = (   0.0833333  -0.4166667   0.0000000), wk =   0.0023148
        k(  152) = (   0.0833333  -0.4166667   0.1666667), wk =   0.0023148
        k(  153) = (   0.0833333  -0.4166667   0.2500000), wk =   0.0046296
        k(  154) = (   0.0833333  -0.4166667   0.3333333), wk =   0.0046296
        k(  155) = (   0.0833333  -0.4166667   0.4166667), wk =   0.0046296
        k(  156) = (   0.0833333  -0.4166667  -0.5000000), wk =   0.0046296
        k(  157) = (   0.0833333  -0.4166667  -0.4166667), wk =   0.0046296
        k(  158) = (   0.0833333  -0.4166667  -0.3333333), wk =   0.0046296
        k(  159) = (   0.0833333  -0.4166667  -0.2500000), wk =   0.0046296
        k(  160) = (   0.0833333  -0.4166667  -0.1666667), wk =   0.0046296
        k(  161) = (   0.0833333  -0.4166667  -0.0833333), wk =   0.0046296
        k(  162) = (   0.0833333  -0.3333333   0.0000000), wk =   0.0023148
        k(  163) = (   0.0833333  -0.3333333   0.2500000), wk =   0.0046296
        k(  164) = (   0.0833333  -0.3333333   0.3333333), wk =   0.0046296
        k(  165) = (   0.0833333  -0.3333333   0.4166667), wk =   0.0046296
        k(  166) = (   0.0833333  -0.3333333  -0.5000000), wk =   0.0046296
        k(  167) = (   0.0833333  -0.3333333  -0.4166667), wk =   0.0046296
        k(  168) = (   0.0833333  -0.3333333  -0.3333333), wk =   0.0046296
        k(  169) = (   0.0833333  -0.3333333  -0.2500000), wk =   0.0046296
        k(  170) = (   0.0833333  -0.3333333  -0.1666667), wk =   0.0046296
        k(  171) = (   0.0833333  -0.3333333  -0.0833333), wk =   0.0046296
        k(  172) = (   0.0833333  -0.2500000   0.0000000), wk =   0.0023148
        k(  173) = (   0.0833333  -0.2500000   0.2500000), wk =   0.0046296
        k(  174) = (   0.0833333  -0.2500000   0.3333333), wk =   0.0046296
        k(  175) = (   0.0833333  -0.2500000   0.4166667), wk =   0.0046296
        k(  176) = (   0.0833333  -0.2500000  -0.5000000), wk =   0.0046296
        k(  177) = (   0.0833333  -0.2500000  -0.4166667), wk =   0.0046296
        k(  178) = (   0.0833333  -0.2500000  -0.3333333), wk =   0.0046296
        k(  179) = (   0.0833333  -0.2500000  -0.2500000), wk =   0.0046296
        k(  180) = (   0.0833333  -0.2500000  -0.1666667), wk =   0.0046296
        k(  181) = (   0.0833333  -0.2500000  -0.0833333), wk =   0.0046296
        k(  182) = (   0.0833333  -0.1666667   0.0000000), wk =   0.0023148
        k(  183) = (   0.0833333  -0.1666667   0.2500000), wk =   0.0046296
        k(  184) = (   0.0833333  -0.1666667   0.3333333), wk =   0.0046296
        k(  185) = (   0.0833333  -0.1666667   0.4166667), wk =   0.0046296
        k(  186) = (   0.0833333  -0.1666667  -0.5000000), wk =   0.0046296
        k(  187) = (   0.0833333  -0.1666667  -0.4166667), wk =   0.0046296
        k(  188) = (   0.0833333  -0.1666667  -0.3333333), wk =   0.0046296
        k(  189) = (   0.0833333  -0.1666667  -0.2500000), wk =   0.0046296
        k(  190) = (   0.0833333  -0.1666667  -0.1666667), wk =   0.0046296
        k(  191) = (   0.0833333  -0.1666667  -0.0833333), wk =   0.0046296
        k(  192) = (   0.0833333  -0.0833333   0.0000000), wk =   0.0023148
        k(  193) = (   0.0833333  -0.0833333   0.2500000), wk =   0.0046296
        k(  194) = (   0.0833333  -0.0833333   0.3333333), wk =   0.0046296
        k(  195) = (   0.0833333  -0.0833333   0.4166667), wk =   0.0046296
        k(  196) = (   0.0833333  -0.0833333  -0.5000000), wk =   0.0046296
        k(  197) = (   0.0833333  -0.0833333  -0.4166667), wk =   0.0046296
        k(  198) = (   0.0833333  -0.0833333  -0.3333333), wk =   0.0046296
        k(  199) = (   0.0833333  -0.0833333  -0.2500000), wk =   0.0046296
        k(  200) = (   0.0833333  -0.0833333  -0.1666667), wk =   0.0046296
        k(  201) = (   0.0833333  -0.0833333  -0.0833333), wk =   0.0046296
        k(  202) = (   0.1666667  -0.0000000   0.0000000), wk =   0.0023148
        k(  203) = (   0.1666667   0.0000000   0.3333333), wk =   0.0046296
        k(  204) = (   0.1666667  -0.0000000   0.4166667), wk =   0.0046296
        k(  205) = (   0.1666667   0.0000000  -0.5000000), wk =   0.0046296
        k(  206) = (   0.1666667   0.0000000  -0.4166667), wk =   0.0046296
        k(  207) = (   0.1666667   0.0000000  -0.3333333), wk =   0.0046296
        k(  208) = (   0.1666667   0.0000000  -0.2500000), wk =   0.0046296
        k(  209) = (   0.1666667  -0.0000000  -0.1666667), wk =   0.0046296
        k(  210) = (   0.1666667   0.0000000  -0.0833333), wk =   0.0046296
        k(  211) = (   0.1666667   0.0833333   0.0000000), wk =   0.0023148
        k(  212) = (   0.1666667   0.0833333   0.3333333), wk =   0.0046296
        k(  213) = (   0.1666667   0.0833333   0.4166667), wk =   0.0046296
        k(  214) = (   0.1666667   0.0833333  -0.5000000), wk =   0.0046296
        k(  215) = (   0.1666667   0.0833333  -0.4166667), wk =   0.0046296
        k(  216) = (   0.1666667   0.0833333  -0.3333333), wk =   0.0046296
        k(  217) = (   0.1666667   0.0833333  -0.2500000), wk =   0.0046296
        k(  218) = (   0.1666667   0.0833333  -0.1666667), wk =   0.0046296
        k(  219) = (   0.1666667   0.0833333  -0.0833333), wk =   0.0046296
        k(  220) = (   0.1666667   0.1666667   0.0000000), wk =   0.0023148
        k(  221) = (   0.1666667   0.1666667   0.3333333), wk =   0.0023148
        k(  222) = (   0.1666667   0.1666667   0.4166667), wk =   0.0046296
        k(  223) = (   0.1666667   0.1666667  -0.5000000), wk =   0.0046296
        k(  224) = (   0.1666667   0.1666667  -0.4166667), wk =   0.0046296
        k(  225) = (   0.1666667   0.1666667  -0.3333333), wk =   0.0046296
        k(  226) = (   0.1666667   0.1666667  -0.2500000), wk =   0.0046296
        k(  227) = (   0.1666667   0.1666667  -0.1666667), wk =   0.0046296
        k(  228) = (   0.1666667   0.1666667  -0.0833333), wk =   0.0046296
        k(  229) = (   0.1666667   0.2500000   0.0000000), wk =   0.0023148
        k(  230) = (   0.1666667   0.2500000   0.4166667), wk =   0.0046296
        k(  231) = (   0.1666667   0.2500000  -0.5000000), wk =   0.0046296
        k(  232) = (   0.1666667   0.2500000  -0.4166667), wk =   0.0046296
        k(  233) = (   0.1666667   0.2500000  -0.3333333), wk =   0.0046296
        k(  234) = (   0.1666667   0.2500000  -0.2500000), wk =   0.0046296
        k(  235) = (   0.1666667   0.2500000  -0.1666667), wk =   0.0046296
        k(  236) = (   0.1666667   0.2500000  -0.0833333), wk =   0.0046296
        k(  237) = (   0.1666667   0.3333333   0.0000000), wk =   0.0023148
        k(  238) = (   0.1666667   0.3333333   0.4166667), wk =   0.0046296
        k(  239) = (   0.1666667   0.3333333  -0.5000000), wk =   0.0046296
        k(  240) = (   0.1666667   0.3333333  -0.4166667), wk =   0.0046296
        k(  241) = (   0.1666667   0.3333333  -0.3333333), wk =   0.0046296
        k(  242) = (   0.1666667   0.3333333  -0.2500000), wk =   0.0046296
        k(  243) = (   0.1666667   0.3333333  -0.1666667), wk =   0.0046296
        k(  244) = (   0.1666667   0.3333333  -0.0833333), wk =   0.0046296
        k(  245) = (   0.1666667   0.4166667   0.0000000), wk =   0.0023148
        k(  246) = (   0.1666667   0.4166667   0.3333333), wk =   0.0046296
        k(  247) = (   0.1666667   0.4166667   0.4166667), wk =   0.0046296
        k(  248) = (   0.1666667   0.4166667  -0.5000000), wk =   0.0046296
        k(  249) = (   0.1666667   0.4166667  -0.4166667), wk =   0.0046296
        k(  250) = (   0.1666667   0.4166667  -0.3333333), wk =   0.0046296
        k(  251) = (   0.1666667   0.4166667  -0.2500000), wk =   0.0046296
        k(  252) = (   0.1666667   0.4166667  -0.1666667), wk =   0.0046296
        k(  253) = (   0.1666667   0.4166667  -0.0833333), wk =   0.0046296
        k(  254) = (   0.1666667  -0.5000000   0.0000000), wk =   0.0023148
        k(  255) = (   0.1666667  -0.5000000   0.3333333), wk =   0.0046296
        k(  256) = (   0.1666667  -0.5000000   0.4166667), wk =   0.0046296
        k(  257) = (   0.1666667  -0.5000000  -0.5000000), wk =   0.0046296
        k(  258) = (   0.1666667  -0.5000000  -0.4166667), wk =   0.0046296
        k(  259) = (   0.1666667  -0.5000000  -0.3333333), wk =   0.0046296
        k(  260) = (   0.1666667  -0.5000000  -0.2500000), wk =   0.0046296
        k(  261) = (   0.1666667  -0.5000000  -0.1666667), wk =   0.0046296
        k(  262) = (   0.1666667  -0.5000000  -0.0833333), wk =   0.0046296
        k(  263) = (   0.1666667  -0.4166667   0.0000000), wk =   0.0023148
        k(  264) = (   0.1666667  -0.4166667   0.3333333), wk =   0.0046296
        k(  265) = (   0.1666667  -0.4166667   0.4166667), wk =   0.0046296
        k(  266) = (   0.1666667  -0.4166667  -0.5000000), wk =   0.0046296
        k(  267) = (   0.1666667  -0.4166667  -0.4166667), wk =   0.0046296
        k(  268) = (   0.1666667  -0.4166667  -0.3333333), wk =   0.0046296
        k(  269) = (   0.1666667  -0.4166667  -0.2500000), wk =   0.0046296
        k(  270) = (   0.1666667  -0.4166667  -0.1666667), wk =   0.0046296
        k(  271) = (   0.1666667  -0.4166667  -0.0833333), wk =   0.0046296
        k(  272) = (   0.1666667  -0.3333333   0.0000000), wk =   0.0023148
        k(  273) = (   0.1666667  -0.3333333   0.3333333), wk =   0.0023148
        k(  274) = (   0.1666667  -0.3333333   0.4166667), wk =   0.0046296
        k(  275) = (   0.1666667  -0.3333333  -0.5000000), wk =   0.0046296
        k(  276) = (   0.1666667  -0.3333333  -0.4166667), wk =   0.0046296
        k(  277) = (   0.1666667  -0.3333333  -0.3333333), wk =   0.0046296
        k(  278) = (   0.1666667  -0.3333333  -0.2500000), wk =   0.0046296
        k(  279) = (   0.1666667  -0.3333333  -0.1666667), wk =   0.0046296
        k(  280) = (   0.1666667  -0.3333333  -0.0833333), wk =   0.0046296
        k(  281) = (   0.1666667  -0.2500000   0.0000000), wk =   0.0023148
        k(  282) = (   0.1666667  -0.2500000   0.4166667), wk =   0.0046296
        k(  283) = (   0.1666667  -0.2500000  -0.5000000), wk =   0.0046296
        k(  284) = (   0.1666667  -0.2500000  -0.4166667), wk =   0.0046296
        k(  285) = (   0.1666667  -0.2500000  -0.3333333), wk =   0.0046296
        k(  286) = (   0.1666667  -0.2500000  -0.2500000), wk =   0.0046296
        k(  287) = (   0.1666667  -0.2500000  -0.1666667), wk =   0.0046296
        k(  288) = (   0.1666667  -0.2500000  -0.0833333), wk =   0.0046296
        k(  289) = (   0.1666667  -0.1666667   0.0000000), wk =   0.0023148
        k(  290) = (   0.1666667  -0.1666667   0.4166667), wk =   0.0046296
        k(  291) = (   0.1666667  -0.1666667  -0.5000000), wk =   0.0046296
        k(  292) = (   0.1666667  -0.1666667  -0.4166667), wk =   0.0046296
        k(  293) = (   0.1666667  -0.1666667  -0.3333333), wk =   0.0046296
        k(  294) = (   0.1666667  -0.1666667  -0.2500000), wk =   0.0046296
        k(  295) = (   0.1666667  -0.1666667  -0.1666667), wk =   0.0046296
        k(  296) = (   0.1666667  -0.1666667  -0.0833333), wk =   0.0046296
        k(  297) = (   0.1666667  -0.0833333   0.0000000), wk =   0.0023148
        k(  298) = (   0.1666667  -0.0833333   0.4166667), wk =   0.0046296
        k(  299) = (   0.1666667  -0.0833333  -0.5000000), wk =   0.0046296
        k(  300) = (   0.1666667  -0.0833333  -0.4166667), wk =   0.0046296
        k(  301) = (   0.1666667  -0.0833333  -0.3333333), wk =   0.0046296
        k(  302) = (   0.1666667  -0.0833333  -0.2500000), wk =   0.0046296
        k(  303) = (   0.1666667  -0.0833333  -0.1666667), wk =   0.0046296
        k(  304) = (   0.1666667  -0.0833333  -0.0833333), wk =   0.0046296
        k(  305) = (   0.2500000   0.0000000   0.0000000), wk =   0.0023148
        k(  306) = (   0.2500000   0.0000000  -0.5000000), wk =   0.0046296
        k(  307) = (   0.2500000   0.0000000  -0.4166667), wk =   0.0046296
        k(  308) = (   0.2500000   0.0000000  -0.3333333), wk =   0.0046296
        k(  309) = (   0.2500000   0.0000000  -0.2500000), wk =   0.0046296
        k(  310) = (   0.2500000   0.0000000  -0.1666667), wk =   0.0046296
        k(  311) = (   0.2500000  -0.0000000  -0.0833333), wk =   0.0046296
        k(  312) = (   0.2500000   0.0833333   0.0000000), wk =   0.0023148
        k(  313) = (   0.2500000   0.0833333  -0.5000000), wk =   0.0046296
        k(  314) = (   0.2500000   0.0833333  -0.4166667), wk =   0.0046296
        k(  315) = (   0.2500000   0.0833333  -0.3333333), wk =   0.0046296
        k(  316) = (   0.2500000   0.0833333  -0.2500000), wk =   0.0046296
        k(  317) = (   0.2500000   0.0833333  -0.1666667), wk =   0.0046296
        k(  318) = (   0.2500000   0.0833333  -0.0833333), wk =   0.0046296
        k(  319) = (   0.2500000   0.1666667   0.0000000), wk =   0.0023148
        k(  320) = (   0.2500000   0.1666667  -0.5000000), wk =   0.0046296
        k(  321) = (   0.2500000   0.1666667  -0.4166667), wk =   0.0046296
        k(  322) = (   0.2500000   0.1666667  -0.3333333), wk =   0.0046296
        k(  323) = (   0.2500000   0.1666667  -0.2500000), wk =   0.0046296
        k(  324) = (   0.2500000   0.1666667  -0.1666667), wk =   0.0046296
        k(  325) = (   0.2500000   0.1666667  -0.0833333), wk =   0.0046296
        k(  326) = (   0.2500000   0.2500000   0.0000000), wk =   0.0023148
        k(  327) = (   0.2500000   0.2500000  -0.5000000), wk =   0.0023148
        k(  328) = (   0.2500000   0.2500000  -0.4166667), wk =   0.0046296
        k(  329) = (   0.2500000   0.2500000  -0.3333333), wk =   0.0046296
        k(  330) = (   0.2500000   0.2500000  -0.2500000), wk =   0.0046296
        k(  331) = (   0.2500000   0.2500000  -0.1666667), wk =   0.0046296
        k(  332) = (   0.2500000   0.2500000  -0.0833333), wk =   0.0046296
        k(  333) = (   0.2500000   0.3333333   0.0000000), wk =   0.0023148
        k(  334) = (   0.2500000   0.3333333  -0.4166667), wk =   0.0046296
        k(  335) = (   0.2500000   0.3333333  -0.3333333), wk =   0.0046296
        k(  336) = (   0.2500000   0.3333333  -0.2500000), wk =   0.0046296
        k(  337) = (   0.2500000   0.3333333  -0.1666667), wk =   0.0046296
        k(  338) = (   0.2500000   0.3333333  -0.0833333), wk =   0.0046296
        k(  339) = (   0.2500000   0.4166667   0.0000000), wk =   0.0023148
        k(  340) = (   0.2500000   0.4166667  -0.4166667), wk =   0.0046296
        k(  341) = (   0.2500000   0.4166667  -0.3333333), wk =   0.0046296
        k(  342) = (   0.2500000   0.4166667  -0.2500000), wk =   0.0046296
        k(  343) = (   0.2500000   0.4166667  -0.1666667), wk =   0.0046296
        k(  344) = (   0.2500000   0.4166667  -0.0833333), wk =   0.0046296
        k(  345) = (   0.2500000  -0.5000000   0.0000000), wk =   0.0023148
        k(  346) = (   0.2500000  -0.5000000  -0.4166667), wk =   0.0046296
        k(  347) = (   0.2500000  -0.5000000  -0.3333333), wk =   0.0046296
        k(  348) = (   0.2500000  -0.5000000  -0.2500000), wk =   0.0046296
        k(  349) = (   0.2500000  -0.5000000  -0.1666667), wk =   0.0046296
        k(  350) = (   0.2500000  -0.5000000  -0.0833333), wk =   0.0046296
        k(  351) = (   0.2500000  -0.4166667   0.0000000), wk =   0.0023148
        k(  352) = (   0.2500000  -0.4166667  -0.5000000), wk =   0.0046296
        k(  353) = (   0.2500000  -0.4166667  -0.4166667), wk =   0.0046296
        k(  354) = (   0.2500000  -0.4166667  -0.3333333), wk =   0.0046296
        k(  355) = (   0.2500000  -0.4166667  -0.2500000), wk =   0.0046296
        k(  356) = (   0.2500000  -0.4166667  -0.1666667), wk =   0.0046296
        k(  357) = (   0.2500000  -0.4166667  -0.0833333), wk =   0.0046296
        k(  358) = (   0.2500000  -0.3333333   0.0000000), wk =   0.0023148
        k(  359) = (   0.2500000  -0.3333333  -0.5000000), wk =   0.0046296
        k(  360) = (   0.2500000  -0.3333333  -0.4166667), wk =   0.0046296
        k(  361) = (   0.2500000  -0.3333333  -0.3333333), wk =   0.0046296
        k(  362) = (   0.2500000  -0.3333333  -0.2500000), wk =   0.0046296
        k(  363) = (   0.2500000  -0.3333333  -0.1666667), wk =   0.0046296
        k(  364) = (   0.2500000  -0.3333333  -0.0833333), wk =   0.0046296
        k(  365) = (   0.2500000  -0.2500000   0.0000000), wk =   0.0023148
        k(  366) = (   0.2500000  -0.2500000  -0.5000000), wk =   0.0023148
        k(  367) = (   0.2500000  -0.2500000  -0.4166667), wk =   0.0046296
        k(  368) = (   0.2500000  -0.2500000  -0.3333333), wk =   0.0046296
        k(  369) = (   0.2500000  -0.2500000  -0.2500000), wk =   0.0046296
        k(  370) = (   0.2500000  -0.2500000  -0.1666667), wk =   0.0046296
        k(  371) = (   0.2500000  -0.2500000  -0.0833333), wk =   0.0046296
        k(  372) = (   0.2500000  -0.1666667   0.0000000), wk =   0.0023148
        k(  373) = (   0.2500000  -0.1666667  -0.4166667), wk =   0.0046296
        k(  374) = (   0.2500000  -0.1666667  -0.3333333), wk =   0.0046296
        k(  375) = (   0.2500000  -0.1666667  -0.2500000), wk =   0.0046296
        k(  376) = (   0.2500000  -0.1666667  -0.1666667), wk =   0.0046296
        k(  377) = (   0.2500000  -0.1666667  -0.0833333), wk =   0.0046296
        k(  378) = (   0.2500000  -0.0833333   0.0000000), wk =   0.0023148
        k(  379) = (   0.2500000  -0.0833333  -0.4166667), wk =   0.0046296
        k(  380) = (   0.2500000  -0.0833333  -0.3333333), wk =   0.0046296
        k(  381) = (   0.2500000  -0.0833333  -0.2500000), wk =   0.0046296
        k(  382) = (   0.2500000  -0.0833333  -0.1666667), wk =   0.0046296
        k(  383) = (   0.2500000  -0.0833333  -0.0833333), wk =   0.0046296
        k(  384) = (   0.3333333  -0.0000000   0.0000000), wk =   0.0023148
        k(  385) = (   0.3333333   0.0000000  -0.3333333), wk =   0.0046296
        k(  386) = (   0.3333333   0.0000000  -0.2500000), wk =   0.0046296
        k(  387) = (   0.3333333   0.0000000  -0.1666667), wk =   0.0046296
        k(  388) = (   0.3333333  -0.0000000  -0.0833333), wk =   0.0046296
        k(  389) = (   0.3333333   0.0833333   0.0000000), wk =   0.0023148
        k(  390) = (   0.3333333   0.0833333  -0.3333333), wk =   0.0046296
        k(  391) = (   0.3333333   0.0833333  -0.2500000), wk =   0.0046296
        k(  392) = (   0.3333333   0.0833333  -0.1666667), wk =   0.0046296
        k(  393) = (   0.3333333   0.0833333  -0.0833333), wk =   0.0046296
        k(  394) = (   0.3333333   0.1666667   0.0000000), wk =   0.0023148
        k(  395) = (   0.3333333   0.1666667  -0.3333333), wk =   0.0046296
        k(  396) = (   0.3333333   0.1666667  -0.2500000), wk =   0.0046296
        k(  397) = (   0.3333333   0.1666667  -0.1666667), wk =   0.0046296
        k(  398) = (   0.3333333   0.1666667  -0.0833333), wk =   0.0046296
        k(  399) = (   0.3333333   0.2500000   0.0000000), wk =   0.0023148
        k(  400) = (   0.3333333   0.2500000  -0.3333333), wk =   0.0046296
        k(  401) = (   0.3333333   0.2500000  -0.2500000), wk =   0.0046296
        k(  402) = (   0.3333333   0.2500000  -0.1666667), wk =   0.0046296
        k(  403) = (   0.3333333   0.2500000  -0.0833333), wk =   0.0046296
        k(  404) = (   0.3333333   0.3333333   0.0000000), wk =   0.0023148
        k(  405) = (   0.3333333   0.3333333  -0.3333333), wk =   0.0023148
        k(  406) = (   0.3333333   0.3333333  -0.2500000), wk =   0.0046296
        k(  407) = (   0.3333333   0.3333333  -0.1666667), wk =   0.0046296
        k(  408) = (   0.3333333   0.3333333  -0.0833333), wk =   0.0046296
        k(  409) = (   0.3333333   0.4166667   0.0000000), wk =   0.0023148
        k(  410) = (   0.3333333   0.4166667  -0.2500000), wk =   0.0046296
        k(  411) = (   0.3333333   0.4166667  -0.1666667), wk =   0.0046296
        k(  412) = (   0.3333333   0.4166667  -0.0833333), wk =   0.0046296
        k(  413) = (   0.3333333  -0.5000000   0.0000000), wk =   0.0023148
        k(  414) = (   0.3333333  -0.5000000  -0.2500000), wk =   0.0046296
        k(  415) = (   0.3333333  -0.5000000  -0.1666667), wk =   0.0046296
        k(  416) = (   0.3333333  -0.5000000  -0.0833333), wk =   0.0046296
        k(  417) = (   0.3333333  -0.4166667   0.0000000), wk =   0.0023148
        k(  418) = (   0.3333333  -0.4166667  -0.2500000), wk =   0.0046296
        k(  419) = (   0.3333333  -0.4166667  -0.1666667), wk =   0.0046296
        k(  420) = (   0.3333333  -0.4166667  -0.0833333), wk =   0.0046296
        k(  421) = (   0.3333333  -0.3333333   0.0000000), wk =   0.0023148
        k(  422) = (   0.3333333  -0.3333333  -0.2500000), wk =   0.0046296
        k(  423) = (   0.3333333  -0.3333333  -0.1666667), wk =   0.0046296
        k(  424) = (   0.3333333  -0.3333333  -0.0833333), wk =   0.0046296
        k(  425) = (   0.3333333  -0.2500000   0.0000000), wk =   0.0023148
        k(  426) = (   0.3333333  -0.2500000  -0.3333333), wk =   0.0046296
        k(  427) = (   0.3333333  -0.2500000  -0.2500000), wk =   0.0046296
        k(  428) = (   0.3333333  -0.2500000  -0.1666667), wk =   0.0046296
        k(  429) = (   0.3333333  -0.2500000  -0.0833333), wk =   0.0046296
        k(  430) = (   0.3333333  -0.1666667   0.0000000), wk =   0.0023148
        k(  431) = (   0.3333333  -0.1666667  -0.3333333), wk =   0.0023148
        k(  432) = (   0.3333333  -0.1666667  -0.2500000), wk =   0.0046296
        k(  433) = (   0.3333333  -0.1666667  -0.1666667), wk =   0.0046296
        k(  434) = (   0.3333333  -0.1666667  -0.0833333), wk =   0.0046296
        k(  435) = (   0.3333333  -0.0833333   0.0000000), wk =   0.0023148
        k(  436) = (   0.3333333  -0.0833333  -0.2500000), wk =   0.0046296
        k(  437) = (   0.3333333  -0.0833333  -0.1666667), wk =   0.0046296
        k(  438) = (   0.3333333  -0.0833333  -0.0833333), wk =   0.0046296
        k(  439) = (   0.4166667  -0.0000000   0.0000000), wk =   0.0023148
        k(  440) = (   0.4166667  -0.0000000  -0.1666667), wk =   0.0046296
        k(  441) = (   0.4166667  -0.0000000  -0.0833333), wk =   0.0046296
        k(  442) = (   0.4166667   0.0833333   0.0000000), wk =   0.0023148
        k(  443) = (   0.4166667   0.0833333  -0.1666667), wk =   0.0046296
        k(  444) = (   0.4166667   0.0833333  -0.0833333), wk =   0.0046296
        k(  445) = (   0.4166667   0.1666667   0.0000000), wk =   0.0023148
        k(  446) = (   0.4166667   0.1666667  -0.1666667), wk =   0.0046296
        k(  447) = (   0.4166667   0.1666667  -0.0833333), wk =   0.0046296
        k(  448) = (   0.4166667   0.2500000   0.0000000), wk =   0.0023148
        k(  449) = (   0.4166667   0.2500000  -0.1666667), wk =   0.0046296
        k(  450) = (   0.4166667   0.2500000  -0.0833333), wk =   0.0046296
        k(  451) = (   0.4166667   0.3333333   0.0000000), wk =   0.0023148
        k(  452) = (   0.4166667   0.3333333  -0.1666667), wk =   0.0046296
        k(  453) = (   0.4166667   0.3333333  -0.0833333), wk =   0.0046296
        k(  454) = (   0.4166667   0.4166667   0.0000000), wk =   0.0023148
        k(  455) = (   0.4166667   0.4166667  -0.1666667), wk =   0.0023148
        k(  456) = (   0.4166667   0.4166667  -0.0833333), wk =   0.0046296
        k(  457) = (   0.4166667  -0.5000000   0.0000000), wk =   0.0023148
        k(  458) = (   0.4166667  -0.5000000  -0.0833333), wk =   0.0046296
        k(  459) = (   0.4166667  -0.4166667   0.0000000), wk =   0.0023148
        k(  460) = (   0.4166667  -0.4166667  -0.0833333), wk =   0.0046296
        k(  461) = (   0.4166667  -0.3333333   0.0000000), wk =   0.0023148
        k(  462) = (   0.4166667  -0.3333333  -0.0833333), wk =   0.0046296
        k(  463) = (   0.4166667  -0.2500000   0.0000000), wk =   0.0023148
        k(  464) = (   0.4166667  -0.2500000  -0.0833333), wk =   0.0046296
        k(  465) = (   0.4166667  -0.1666667   0.0000000), wk =   0.0023148
        k(  466) = (   0.4166667  -0.1666667  -0.0833333), wk =   0.0046296
        k(  467) = (   0.4166667  -0.0833333   0.0000000), wk =   0.0023148
        k(  468) = (   0.4166667  -0.0833333  -0.1666667), wk =   0.0023148
        k(  469) = (   0.4166667  -0.0833333  -0.0833333), wk =   0.0046296
        k(  470) = (  -0.5000000   0.0000000   0.0000000), wk =   0.0011574
        k(  471) = (  -0.5000000   0.0833333   0.0000000), wk =   0.0023148
        k(  472) = (  -0.5000000   0.1666667   0.0000000), wk =   0.0023148
        k(  473) = (  -0.5000000   0.2500000   0.0000000), wk =   0.0023148
        k(  474) = (  -0.5000000   0.3333333   0.0000000), wk =   0.0023148
        k(  475) = (  -0.5000000   0.4166667   0.0000000), wk =   0.0023148
        k(  476) = (  -0.5000000  -0.5000000   0.0000000), wk =   0.0011574

     Dense  grid:     4111 G-vectors     FFT dimensions: (  24,  24,  24)

     Dynamical RAM for                 wfc:       0.05 MB

     Dynamical RAM for     wfc (w. buffer):      22.71 MB

     Dynamical RAM for           str. fact:       0.06 MB

     Dynamical RAM for           local pot:       0.00 MB

     Dynamical RAM for          nlocal pot:       0.14 MB

     Dynamical RAM for                qrad:       0.90 MB

     Dynamical RAM for          rho,v,vnew:       0.50 MB

     Dynamical RAM for               rhoin:       0.17 MB

     Dynamical RAM for            rho*nmix:       1.00 MB

     Dynamical RAM for           G-vectors:       0.27 MB

     Dynamical RAM for          h,s,v(r/c):       0.03 MB

     Dynamical RAM for          <psi|beta>:       0.00 MB

     Dynamical RAM for                 psi:       0.19 MB

     Dynamical RAM for                hpsi:       0.19 MB

     Dynamical RAM for                spsi:       0.19 MB

     Dynamical RAM for      wfcinit/wfcrot:       0.10 MB

     Dynamical RAM for           addusdens:      11.73 MB

     Dynamical RAM for          addusforce:      11.77 MB

     Estimated static dynamical RAM per process >      26.41 MB

     Estimated max dynamical RAM per process >      38.18 MB

     Initial potential from superposition of free atoms

     starting charge    3.99933, renormalised to    4.00000
     Starting wfc are    4 randomized atomic wfcs +    2 random wfc

     total cpu time spent up to now is        1.6 secs

     Self-consistent Calculation

     iteration #  1     ecut=    35.00 Ry     beta= 0.70
     Davidson diagonalization with overlap
     ethr =  1.00E-02,  avg # of iterations =  4.4

     Threshold (ethr) on eigenvalues was too large:
     Diagonalizing with lowered threshold

     Davidson diagonalization with overlap
     ethr =  8.59E-05,  avg # of iterations =  2.4

     total cpu time spent up to now is       12.9 secs

     total energy              =      -9.52032706 Ry
     Harris-Foulkes estimate   =      -9.52144675 Ry
[...]

     0.2043   3.2461   5.4778   7.9181  13.1822  16.9800

     occupation numbers 
     1.0000   1.0000   1.0000   0.0000   0.0000   0.0000

          k = 0.4811 0.2381-0.1667 (   520 PWs)   bands (ev):

    -0.9541   4.7484   6.4017   7.8477  13.0050  14.8885

     occupation numbers 
     1.0000   1.0000   0.0000   0.0000   0.0000   0.0000

          k = 0.4330 0.2041-0.0833 (   522 PWs)   bands (ev):

    -2.0113   6.1925   7.5698   8.3323  12.9756  13.2555

     occupation numbers 
     1.0000   0.0000   0.0000   0.0000   0.0000   0.0000

          k = 0.3849 0.2722 0.0000 (   512 PWs)   bands (ev):

    -2.1949   6.4664   8.6565   8.6565  11.5363  12.1928

     occupation numbers 
     1.0000   0.0000   0.0000   0.0000   0.0000   0.0000

          k = 0.5774 0.4082-0.3333 (   528 PWs)   bands (ev):

     0.4221   3.7659   3.7876   9.2762  12.4345  19.1679

     occupation numbers 
     1.0000   1.0000   1.0000   0.0000   0.0000   0.0000

          k = 0.5292 0.3742-0.2500 (   516 PWs)   bands (ev):

     0.8067   3.0809   4.4962   8.7540  11.8222  16.8645

     occupation numbers 
     1.0000   1.0000   1.0000   0.0000   0.0000   0.0000

          k = 0.4811 0.3402-0.1667 (   513 PWs)   bands (ev):

    -0.1904   4.0012   5.7343   8.4700  11.5182  14.5843

     occupation numbers 
     1.0000   1.0000   0.1561   0.0000   0.0000   0.0000

          k = 0.4330 0.3062-0.0833 (   517 PWs)   bands (ev):

    -1.2998   5.2153   7.4092   8.4368  11.5120  12.6592

     occupation numbers 
     1.0000   1.0000   0.0000   0.0000   0.0000   0.0000

          k = 0.3849 0.3742 0.0000 (   517 PWs)   bands (ev):

    -1.2998   5.2153   7.4092   8.4368  11.5120  12.6592

     occupation numbers 
     1.0000   1.0000   0.0000   0.0000   0.0000   0.0000

          k = 0.5292 0.4763-0.2500 (   517 PWs)   bands (ev):

     1.1910   3.2170   4.0885   7.6792  12.9781  16.8842

     occupation numbers 
     1.0000   1.0000   1.0000   0.0000   0.0000   0.0000

          k = 0.4811 0.4423-0.1667 (   511 PWs)   bands (ev):

     0.7393   3.2514   5.4164   7.3039  12.5815  14.5300

     occupation numbers 
     1.0000   1.0000   1.0000   0.0000   0.0000   0.0000

          k = 0.4330 0.4082-0.0833 (   511 PWs)   bands (ev):

    -0.3422   4.1260   7.0249   7.3530  12.4141  12.5177

     occupation numbers 
     1.0000   1.0000   0.0000   0.0000   0.0000   0.0000

          k = 0.3849-0.7485 0.0000 (   513 PWs)   bands (ev):

    -0.1904   4.0012   5.7343   8.4700  11.5182  14.5843

     occupation numbers 
     1.0000   1.0000   0.1561   0.0000   0.0000   0.0000

          k = 0.5292-0.6464-0.2500 (   513 PWs)   bands (ev):

     1.0915   3.4587   4.5859   6.2917  15.0885  17.0328

     occupation numbers 
     1.0000   1.0000   1.0000   0.0000   0.0000   0.0000

          k = 0.4811-0.6804-0.1667 (   508 PWs)   bands (ev):

     1.3808   3.0262   5.2745   5.9220  14.5858  14.8661

     occupation numbers 
     1.0000   1.0000   1.0000   0.0000   0.0000   0.0000

          k = 0.4330-0.7144-0.0833 (   511 PWs)   bands (ev):

     0.7393   3.2514   5.4164   7.3039  12.5816  14.5300

     occupation numbers 
     1.0000   1.0000   1.0000   0.0000   0.0000   0.0000

          k = 0.3849-0.6464 0.0000 (   516 PWs)   bands (ev):

     0.8067   3.0809   4.4962   8.7540  11.8222  16.8645

     occupation numbers 
     1.0000   1.0000   1.0000   0.0000   0.0000   0.0000

          k = 0.5292-0.5443-0.2500 (   515 PWs)   bands (ev):

     0.7673   3.9061   4.1633   6.7562  15.4583  18.0723

     occupation numbers 
     1.0000   1.0000   1.0000   0.0000   0.0000   0.0000

          k = 0.4811-0.5784-0.1667 (   513 PWs)   bands (ev):

     1.0915   3.4587   4.5859   6.2917  15.0885  17.0329

     occupation numbers 
     1.0000   1.0000   1.0000   0.0000   0.0000   0.0000

          k = 0.4330-0.6124-0.0833 (   517 PWs)   bands (ev):

     1.1910   3.2170   4.0885   7.6792  12.9781  16.8842

     occupation numbers 
     1.0000   1.0000   1.0000   0.0000   0.0000   0.0000

          k = 0.3849-0.5443 0.0000 (   528 PWs)   bands (ev):

     0.4221   3.7659   3.7876   9.2762  12.4345  19.1679

     occupation numbers 
     1.0000   1.0000   1.0000   0.0000   0.0000   0.0000

          k = 0.5292-0.4423-0.2500 (   517 PWs)   bands (ev):

     0.4574   2.9953   4.8669   8.3334  13.6368  18.4810

     occupation numbers 
     1.0000   1.0000   1.0000   0.0000   0.0000   0.0000

          k = 0.4811-0.4763-0.1667 (   520 PWs)   bands (ev):

     0.4959   2.7003   5.7161   7.3405  15.2622  16.8185

     occupation numbers 
     1.0000   1.0000   0.3366   0.0000   0.0000   0.0000

          k = 0.4330-0.5103-0.0833 (   517 PWs)   bands (ev):

     0.4574   2.9953   4.8669   8.3334  13.6368  18.4808

     occupation numbers 
     1.0000   1.0000   1.0000   0.0000   0.0000   0.0000

          k = 0.3849-0.4423 0.0000 (   521 PWs)   bands (ev):

    -0.6816   3.4495   5.5736  10.0023  13.3379  18.8823

     occupation numbers 
     1.0000   1.0000   1.0059   0.0000   0.0000   0.0000

          k = 0.5774-0.3062-0.3333 (   517 PWs)   bands (ev):

     0.4574   2.9953   4.8669   8.3334  13.6368  18.4808

     occupation numbers 
     1.0000   1.0000   1.0000   0.0000   0.0000   0.0000

          k = 0.5292-0.3402-0.2500 (   518 PWs)   bands (ev):

     0.1538   2.3377   5.9568   9.4330  12.6675  18.9257

     occupation numbers 
     1.0000   1.0000   0.0000   0.0000   0.0000   0.0000

          k = 0.4811-0.3742-0.1667 (   524 PWs)   bands (ev):

    -0.2057   2.2493   7.0693   8.8253  14.0158  17.0899

     occupation numbers 
     1.0000   1.0000   0.0000   0.0000   0.0000   0.0000

          k = 0.4330-0.4082-0.0833 (   523 PWs)   bands (ev):

    -0.5268   2.6642   6.7360   9.2235  14.4789  16.8119

     occupation numbers 
     1.0000   1.0000   0.0000   0.0000   0.0000   0.0000

          k = 0.3849-0.3402 0.0000 (   520 PWs)   bands (ev):

    -1.6938   3.4549   7.6846  10.8360  14.4860  17.1768

     occupation numbers 
     1.0000   1.0000   0.0000   0.0000   0.0000   0.0000

          k = 0.5774-0.2041-0.3333 (   520 PWs)   bands (ev):

     0.4959   2.7003   5.7161   7.3405  15.2622  16.8185

     occupation numbers 
     1.0000   1.0000   0.3366   0.0000   0.0000   0.0000

          k = 0.5292-0.2381-0.2500 (   524 PWs)   bands (ev):

    -0.2057   2.2493   7.0693   8.8253  14.0158  17.0899

     occupation numbers 
     1.0000   1.0000   0.0000   0.0000   0.0000   0.0000

          k = 0.4811-0.2722-0.1667 (   524 PWs)   bands (ev):

    -0.8875   2.2876   8.3790   9.8888  13.3917  17.9417

     occupation numbers 
     1.0000   1.0000   0.0000   0.0000   0.0000   0.0000

          k = 0.4330-0.3062-0.0833 (   519 PWs)   bands (ev):

    -1.4075   2.7125   8.7538  10.1957  14.7629  16.0204

     occupation numbers 
     1.0000   1.0000   0.0000   0.0000   0.0000   0.0000

          k = 0.3849-0.2381 0.0000 (   517 PWs)   bands (ev):

    -2.4759   3.7624   9.8485  11.4792  15.6769  16.0769

     occupation numbers 
     1.0000   1.0000   0.0000   0.0000   0.0000   0.0000

          k = 0.5292-0.1361-0.2500 (   523 PWs)   bands (ev):

    -0.5268   2.6642   6.7360   9.2235  14.4789  16.8119

     occupation numbers 
     1.0000   1.0000   0.0000   0.0000   0.0000   0.0000

          k = 0.4811-0.1701-0.1667 (   519 PWs)   bands (ev):

    -1.4075   2.7125   8.7538  10.1957  14.7629  16.0204

     occupation numbers 
     1.0000   1.0000   0.0000   0.0000   0.0000   0.0000

          k = 0.4330-0.2041-0.0833 (   521 PWs)   bands (ev):

    -2.0714   3.0893  10.5684  10.5861  14.6600  16.4513

     occupation numbers 
     1.0000   1.0000   0.0000   0.0000   0.0000   0.0000

          k = 0.4811-0.1701 0.0000 (   522 PWs)   bands (ev):

    -1.7875   2.3477  11.2200  11.2200  15.3416  15.6682

     occupation numbers 
     1.0000   1.0000   0.0000   0.0000   0.0000   0.0000

          k = 0.5774-0.1021-0.1667 (   524 PWs)   bands (ev):

    -0.5750   1.8912   7.9194  10.2687  13.7815  17.3388

     occupation numbers 
     1.0000   1.0000   0.0000   0.0000   0.0000   0.0000

          k = 0.5292-0.1361-0.0833 (   524 PWs)   bands (ev):

    -1.2660   1.9264   9.9256  11.0482  15.0217  15.9468

     occupation numbers 
     1.0000   1.0000   0.0000   0.0000   0.0000   0.0000

          k = 0.4811-0.0680 0.0000 (   521 PWs)   bands (ev):

    -2.0714   3.0893  10.5684  10.5861  14.6600  16.4521

     occupation numbers 
     1.0000   1.0000   0.0000   0.0000   0.0000   0.0000

          k = 0.5774 0.0000-0.1667 (   523 PWs)   bands (ev):

    -0.5268   2.6642   6.7360   9.2235  14.4789  16.8119

     occupation numbers 
     1.0000   1.0000   0.0000   0.0000   0.0000   0.0000

          k = 0.5292-0.0340-0.0833 (   519 PWs)   bands (ev):

    -1.4075   2.7125   8.7538  10.1957  14.7629  16.0204

     occupation numbers 
     1.0000   1.0000   0.0000   0.0000   0.0000   0.0000

          k = 0.4811 0.0340 0.0000 (   521 PWs)   bands (ev):

    -2.0896   4.0975   9.0203   9.7294  13.3472  17.3227

     occupation numbers 
     1.0000   1.0000   0.0000   0.0000   0.0000   0.0000

          k = 0.5774 0.1021-0.1667 (   517 PWs)   bands (ev):

    -0.3066   3.7286   5.7023   7.6459  15.2496  16.7816

     occupation numbers 
     1.0000   1.0000   0.5224   0.0000   0.0000   0.0000

          k = 0.5292 0.0680-0.0833 (   525 PWs)   bands (ev):

    -1.3102   3.7714   7.4669   8.8540  13.8094  17.0377

     occupation numbers 
     1.0000   1.0000   0.0000   0.0000   0.0000   0.0000

          k = 0.4811 0.1361 0.0000 (   523 PWs)   bands (ev):

    -1.8321   5.2120   7.5234   8.9792  12.2733  15.1313

     occupation numbers 
     1.0000   1.0000   0.0000   0.0000   0.0000   0.0000

          k = 0.5774 0.2041-0.1667 (   505 PWs)   bands (ev):

     0.1269   4.1608   5.4619   6.5390  14.7483  15.0433

     occupation numbers 
     1.0000   1.0000   1.0000   0.0000   0.0000   0.0000

          k = 0.5292 0.1701-0.0833 (   520 PWs)   bands (ev):

    -0.9541   4.7484   6.4017   7.8477  13.0050  14.8885

     occupation numbers 
     1.0000   1.0000   0.0000   0.0000   0.0000   0.0000

          k = 0.4811 0.2381 0.0000 (   517 PWs)   bands (ev):

    -1.2998   5.2153   7.4092   8.4368  11.5120  12.6592

     occupation numbers 
     1.0000   1.0000   0.0000   0.0000   0.0000   0.0000

          k = 0.5774 0.3062-0.1667 (   511 PWs)   bands (ev):

     0.7393   3.2514   5.4164   7.3039  12.5816  14.5300

     occupation numbers 
     1.0000   1.0000   1.0000   0.0000   0.0000   0.0000

          k = 0.5292 0.2722-0.0833 (   511 PWs)   bands (ev):

    -0.3422   4.1260   7.0249   7.3530  12.4141  12.5177

     occupation numbers 
     1.0000   1.0000   0.0000   0.0000   0.0000   0.0000

          k = 0.4811 0.3402 0.0000 (   504 PWs)   bands (ev):

    -0.5077   4.0518   8.1364   8.1364  10.9433  11.2946

     occupation numbers 
     1.0000   1.0000   0.0000   0.0000   0.0000   0.0000

          k = 0.5774 0.4082-0.1667 (   508 PWs)   bands (ev):

     1.1848   2.6446   5.2393   8.2984  11.2768  14.4013

     occupation numbers 
     1.0000   1.0000   1.0000   0.0000   0.0000   0.0000

          k = 0.5292 0.3742-0.0833 (   510 PWs)   bands (ev):

     0.4787   3.0095   6.9252   8.0898  11.0352  12.2196

     occupation numbers 
     1.0000   1.0000   0.0000   0.0000   0.0000   0.0000

          k = 0.4811-0.7825 0.0000 (   510 PWs)   bands (ev):

     0.4787   3.0095   6.9252   8.0898  11.0352  12.2196

     occupation numbers 
     1.0000   1.0000   0.0000   0.0000   0.0000   0.0000

          k = 0.5292-0.7485-0.0833 (   508 PWs)   bands (ev):

     1.1253   2.4532   6.8421   7.0779  12.2254  12.2839

     occupation numbers 
     1.0000   1.0000   0.0000   0.0000   0.0000   0.0000

          k = 0.4811-0.6804 0.0000 (   508 PWs)   bands (ev):

     1.1848   2.6446   5.2393   8.2984  11.2768  14.4013

     occupation numbers 
     1.0000   1.0000   1.0000   0.0000   0.0000   0.0000

          k = 0.5292-0.6464-0.0833 (   511 PWs)   bands (ev):

     0.7393   3.2514   5.4164   7.3039  12.5816  14.5300

     occupation numbers 
     1.0000   1.0000   1.0000   0.0000   0.0000   0.0000

          k = 0.4811-0.5784 0.0000 (   516 PWs)   bands (ev):

     0.8067   3.0809   4.4962   8.7540  11.8222  16.8645

     occupation numbers 
     1.0000   1.0000   1.0000   0.0000   0.0000   0.0000

          k = 0.5292-0.5443-0.0833 (   514 PWs)   bands (ev):

     0.2043   3.2461   5.4778   7.9181  13.1822  16.9800

     occupation numbers 
     1.0000   1.0000   1.0000   0.0000   0.0000   0.0000

          k = 0.4811-0.4763 0.0000 (   518 PWs)   bands (ev):

     0.1538   2.3377   5.9568   9.4330  12.6675  18.9254

     occupation numbers 
     1.0000   1.0000   0.0000   0.0000   0.0000   0.0000

          k = 0.5292-0.4423-0.0833 (   524 PWs)   bands (ev):

    -0.2057   2.2493   7.0693   8.8253  14.0158  17.0899

     occupation numbers 
     1.0000   1.0000   0.0000   0.0000   0.0000   0.0000

          k = 0.4811-0.3742 0.0000 (   524 PWs)   bands (ev):

    -0.5750   1.8912   7.9194  10.2687  13.7815  17.3388

     occupation numbers 
     1.0000   1.0000   0.0000   0.0000   0.0000   0.0000

          k = 0.5292-0.3402-0.0833 (   518 PWs)   bands (ev):

    -0.5627   1.6009   8.7808   9.9629  14.7468  15.7753

     occupation numbers 
     1.0000   1.0000   0.0000   0.0000   0.0000   0.0000

          k = 0.4811-0.2722 0.0000 (   524 PWs)   bands (ev):

    -1.2660   1.9264   9.9256  11.0482  15.0217  15.9468

     occupation numbers 
     1.0000   1.0000   0.0000   0.0000   0.0000   0.0000

          k = 0.5774-0.2041-0.1667 (   518 PWs)   bands (ev):

    -0.5627   1.6009   8.7808   9.9629  14.7468  15.7753

     occupation numbers 
     1.0000   1.0000   0.0000   0.0000   0.0000   0.0000

          k = 0.5292-0.2381-0.0833 (   523 PWs)   bands (ev):

    -0.9446   1.5145  10.1809  10.7345  14.6625  16.1715

     occupation numbers 
     1.0000   1.0000   0.0000   0.0000   0.0000   0.0000

          k =-0.5774 0.2041 0.0000 (   502 PWs)   bands (ev):

    -0.9354   1.2248  11.1723  11.1723  15.3075  15.4750

     occupation numbers 
     1.0000   1.0000   0.0000   0.0000   0.0000   0.0000

          k =-0.5774 0.3062 0.0000 (   523 PWs)   bands (ev):

    -0.9446   1.5145  10.1809  10.7345  14.6625  16.1715

     occupation numbers 
     1.0000   1.0000   0.0000   0.0000   0.0000   0.0000

          k =-0.5774 0.4082 0.0000 (   524 PWs)   bands (ev):

    -0.8875   2.2876   8.3790   9.8888  13.3917  17.9422

     occupation numbers 
     1.0000   1.0000   0.0000   0.0000   0.0000   0.0000

          k =-0.5774 0.5103 0.0000 (   519 PWs)   bands (ev):

    -0.6517   3.3609   6.6130   9.0852  12.3078  17.1012

     occupation numbers 
     1.0000   1.0000   0.0000   0.0000   0.0000   0.0000

          k =-0.5774 0.6124 0.0000 (   513 PWs)   bands (ev):

    -0.1904   4.0012   5.7343   8.4700  11.5182  14.5843

     occupation numbers 
     1.0000   1.0000   0.1561   0.0000   0.0000   0.0000

          k =-0.5774 0.7144 0.0000 (   510 PWs)   bands (ev):

     0.4787   3.0095   6.9252   8.0898  11.0352  12.2196

     occupation numbers 
     1.0000   1.0000   0.0000   0.0000   0.0000   0.0000

          k =-0.5774-0.4082 0.0000 (   524 PWs)   bands (ev):

     1.0159   2.2615   7.9617   7.9617  10.7444  11.0133

     occupation numbers 
     1.0000   1.0000   0.0000   0.0000   0.0000   0.0000

     the Fermi energy is     5.7111 ev

!    total energy              =      -9.52047939 Ry
     Harris-Foulkes estimate   =      -9.52047940 Ry
     estimated scf accuracy    <       0.00000005 Ry

     The total energy is the sum of the following terms:

     one-electron contribution =       3.16511773 Ry
     hartree contribution      =       0.13260758 Ry
     xc contribution           =      -4.09453218 Ry
     ewald contribution        =      -8.72361319 Ry
     smearing contrib. (-TS)   =      -0.00005932 Ry

     convergence has been achieved in   4 iterations

     Forces acting on atoms (cartesian axes, Ry/au):

     atom    1 type  1   force =     0.00000000    0.00000000    0.00000000
     The non-local contrib.  to forces
     atom    1 type  1   force =     0.00000000    0.00000000    0.00000000
     The ionic contribution  to forces
     atom    1 type  1   force =     0.00000000    0.00000000    0.00000000
     The local contribution  to forces
     atom    1 type  1   force =    -0.00000000    0.00000000   -0.00000000
     The core correction contribution to forces
     atom    1 type  1   force =     0.00000000   -0.00000000   -0.00000000
     The Hubbard contrib.    to forces
     atom    1 type  1   force =     0.00000000    0.00000000    0.00000000
     The SCF correction term to forces
     atom    1 type  1   force =     0.00000000    0.00000000    0.00000000

     Total force =     0.000000     Total SCF correction =     0.000000

     BFGS Geometry Optimization

     bfgs converged in   1 scf cycles and   0 bfgs steps
     (criteria: energy <  1.0E-04 Ry, force <  1.0E-03 Ry/Bohr)

     End of BFGS Geometry Optimization

     Final energy   =      -9.5204793851 Ry
Begin final coordinates

ATOMIC_POSITIONS (crystal)
Si       0.000000000   0.000000000   0.000000000
End final coordinates


 
     init_run     :     22.72s CPU      1.53s WALL (       1 calls)
     electrons    :    457.84s CPU     23.91s WALL (       1 calls)
     forces       :      5.21s CPU      0.24s WALL (       1 calls)

     Called by init_run:
     wfcinit      :     22.46s CPU      1.35s WALL (       1 calls)
     wfcinit:atom :      0.58s CPU      0.04s WALL (     476 calls)
     wfcinit:wfcr :     20.20s CPU      1.21s WALL (     476 calls)
     potinit      :      0.04s CPU      0.01s WALL (       1 calls)

     Called by electrons:
     c_bands      :    409.29s CPU     20.93s WALL (       5 calls)
     sum_band     :     47.27s CPU      2.91s WALL (       5 calls)
     v_of_rho     :      0.30s CPU      0.02s WALL (       5 calls)
     v_h          :      0.01s CPU      0.00s WALL (       5 calls)
     v_xc         :      0.39s CPU      0.02s WALL (       6 calls)
     newd         :      0.50s CPU      0.04s WALL (       5 calls)
     mix_rho      :      0.05s CPU      0.00s WALL (       5 calls)

     Called by c_bands:
     init_us_2    :     14.22s CPU      0.79s WALL (    5712 calls)
     cegterg      :    363.56s CPU     18.47s WALL (    2380 calls)

     Called by sum_band:
     sum_band:bec :      0.48s CPU      0.03s WALL (    2380 calls)
     addusdens    :      0.53s CPU      0.03s WALL (       5 calls)

     Called by *egterg:
     h_psi        :    324.14s CPU     16.70s WALL (    9117 calls)
     s_psi        :      3.70s CPU      0.20s WALL (    9117 calls)
     g_psi        :      1.87s CPU      0.10s WALL (    6261 calls)
     cdiaghg      :     17.43s CPU      0.91s WALL (    8165 calls)
     cegterg:over :      5.58s CPU      0.30s WALL (    6261 calls)
     cegterg:upda :      4.41s CPU      0.24s WALL (    6261 calls)
     cegterg:last :      2.12s CPU      0.12s WALL (    2401 calls)

     Called by h_psi:
     h_psi:pot    :    320.01s CPU     16.48s WALL (    9117 calls)
     h_psi:calbec :     11.37s CPU      0.58s WALL (    9117 calls)
     vloc_psi     :    297.64s CPU     15.36s WALL (    9117 calls)
     add_vuspsi   :      5.00s CPU      0.29s WALL (    9117 calls)

     General routines
     calbec       :     11.44s CPU      0.63s WALL (   13401 calls)
     fft          :      0.17s CPU      0.03s WALL (      78 calls)
     fftw         :    267.37s CPU     14.18s WALL (   93334 calls)
 
     Parallel routines
 
     PWSCF        :  8m 5.95s CPU     0m25.75s WALL

 
   This run was terminated on:   0:10: 4  31Jan2019            

=------------------------------------------------------------------------------=
   JOB DONE.
=------------------------------------------------------------------------------=
