
     Program PWSCF v.6.3MaX starts on 21Mar2019 at  1:55:49 

     This program is part of the open-source Quantum ESPRESSO suite
     for quantum simulation of materials; please cite
         "P. Giannozzi et al., J. Phys.:Condens. Matter 21 395502 (2009);
         "P. Giannozzi et al., J. Phys.:Condens. Matter 29 465901 (2017);
          URL http://www.quantum-espresso.org", 
     in publications or presentations arising from this work. More details at
     http://www.quantum-espresso.org/quote

     Parallel version (MPI & OpenMP), running on      20 processor cores
     Number of MPI processes:                20
     Threads/MPI process:                     1

     MPI processes distributed on     1 nodes
     R & G space division:  proc/nbgrp/npool/nimage =      20
     Reading input from /home/azadoks/dftman/projects/ABO3 Tetragonal/PBSJobs/BaPdO3221vcrelax_e5efdc5ce8bf/pwscf.in
Warning: card &CELL ignored
Warning: card / ignored

     Current dimensions of program PWSCF are:
     Max number of different atomic species (ntypx) = 10
     Max number of k-points (npk) =  40000
     Max angular momentum in pseudopotentials (lmaxx) =  3
     Message from routine iosys:
     minimal I/O required, wf_collect reset to FALSE

     Subspace diagonalization in iterative solution of the eigenvalue problem:
     one sub-group per band group will be used
     scalapack distributed-memory algorithm (size of sub-group:  3*  3 procs)

 
     Parallelization info
     --------------------
     sticks:   dense  smooth     PW     G-vecs:    dense   smooth      PW
     Min         172     172     47                 7700     7700    1103
     Max         173     173     48                 7703     7703    1106
     Sum        3457    3457    949               154051   154051   22087
 


     bravais-lattice index     =            0
     lattice parameter (alat)  =      14.7563  a.u.
     unit-cell volume          =    3227.7835 (a.u.)^3
     number of atoms/cell      =            5
     number of atomic types    =            3
     number of electrons       =        44.00
     number of Kohn-Sham states=           26
     kinetic-energy cutoff     =      50.0000  Ry
     charge density cutoff     =     200.0000  Ry
     convergence threshold     =      1.0E-08
     mixing beta               =       0.7000
     number of iterations used =            8  plain     mixing
     Exchange-correlation      =  SLA  PW   PBX  PBC ( 1  4  3  4 0 0)
     nstep                     =           50


     celldm(1)=  14.756304  celldm(2)=   0.000000  celldm(3)=   0.000000
     celldm(4)=   0.000000  celldm(5)=   0.000000  celldm(6)=   0.000000

     crystal axes: (cart. coord. in units of alat)
               a(1) = (   1.000000   0.000000   0.000000 )  
               a(2) = (   0.000000   1.000000   0.000000 )  
               a(3) = (   0.000000   0.000000   1.004550 )  

     reciprocal axes: (cart. coord. in units 2 pi/alat)
               b(1) = (  1.000000  0.000000  0.000000 )  
               b(2) = (  0.000000  1.000000  0.000000 )  
               b(3) = (  0.000000  0.000000  0.995471 )  


     PseudoPot. # 1 for Ba read from file:
     /home/azadoks/.local/share/pseudo/GBRV_PBE_US/ba_pbe_v1.uspp.F.UPF
     MD5 check sum: 3380f63c22b3abf76d74aa74136bb909
     Pseudo is Ultrasoft + core correction, Zval = 10.0
     Generated by new atomic code, or converted to UPF format
     Using radial grid of  907 points,  7 beta functions with: 
                l(1) =   0
                l(2) =   0
                l(3) =   1
                l(4) =   1
                l(5) =   2
                l(6) =   2
                l(7) =   3
     Q(r) pseudized with  6 coefficients,  rinner =    1.700   1.700   1.700
                                                       1.700   1.700   1.700
                                                       1.700

     PseudoPot. # 2 for O  read from file:
     /home/azadoks/.local/share/pseudo/GBRV_PBE_US/o_pbe_v1.2.uspp.F.UPF
     MD5 check sum: 734c27235a0248c51dbae37a1fbe46ec
     Pseudo is Ultrasoft + core correction, Zval =  6.0
     Generated by new atomic code, or converted to UPF format
     Using radial grid of  737 points,  5 beta functions with: 
                l(1) =   0
                l(2) =   0
                l(3) =   1
                l(4) =   1
                l(5) =   2
     Q(r) pseudized with  8 coefficients,  rinner =    0.900   0.900   0.900
                                                       0.900   0.900

     PseudoPot. # 3 for Pd read from file:
     /home/azadoks/.local/share/pseudo/GBRV_PBE_US/pd_pbe_v1.4.uspp.F.UPF
     MD5 check sum: 2d733d2bc2cbfd217af676df1668a4bc
     Pseudo is Ultrasoft + core correction, Zval = 16.0
     Generated by new atomic code, or converted to UPF format
     Using radial grid of  887 points,  6 beta functions with: 
                l(1) =   0
                l(2) =   0
                l(3) =   1
                l(4) =   1
                l(5) =   2
                l(6) =   2
     Q(r) pseudized with  8 coefficients,  rinner =    1.130   1.130   1.130
                                                       1.130   1.130

     atomic species   valence    mass     pseudopotential
        Ba            10.00   137.32700     Ba( 1.00)
        O              6.00    15.99940     O ( 1.00)
        Pd            16.00   106.42000     Pd( 1.00)

      8 Sym. Ops. (no inversion) found


                                    s                        frac. trans.

      isym =  1     identity                                     

 cryst.   s( 1) = (     1          0          0      )
                  (     0          1          0      )
                  (     0          0          1      )

 cart.    s( 1) = (  1.0000000  0.0000000  0.0000000 )
                  (  0.0000000  1.0000000  0.0000000 )
                  (  0.0000000  0.0000000  1.0000000 )


      isym =  2     180 deg rotation - cart. axis [0,0,1]        

 cryst.   s( 2) = (    -1          0          0      )
                  (     0         -1          0      )
                  (     0          0          1      )

 cart.    s( 2) = ( -1.0000000  0.0000000  0.0000000 )
                  (  0.0000000 -1.0000000  0.0000000 )
                  (  0.0000000  0.0000000  1.0000000 )


      isym =  3      90 deg rotation - cart. axis [0,0,-1]       

 cryst.   s( 3) = (     0         -1          0      )
                  (     1          0          0      )
                  (     0          0          1      )

 cart.    s( 3) = (  0.0000000  1.0000000  0.0000000 )
                  ( -1.0000000  0.0000000  0.0000000 )
                  (  0.0000000  0.0000000  1.0000000 )


      isym =  4      90 deg rotation - cart. axis [0,0,1]        

 cryst.   s( 4) = (     0          1          0      )
                  (    -1          0          0      )
                  (     0          0          1      )

 cart.    s( 4) = (  0.0000000 -1.0000000  0.0000000 )
                  (  1.0000000  0.0000000  0.0000000 )
                  (  0.0000000  0.0000000  1.0000000 )


      isym =  5     inv. 180 deg rotation - cart. axis [0,1,0]   

 cryst.   s( 5) = (     1          0          0      )
                  (     0         -1          0      )
                  (     0          0          1      )

 cart.    s( 5) = (  1.0000000  0.0000000  0.0000000 )
                  (  0.0000000 -1.0000000  0.0000000 )
                  (  0.0000000  0.0000000  1.0000000 )


      isym =  6     inv. 180 deg rotation - cart. axis [1,0,0]   

 cryst.   s( 6) = (    -1          0          0      )
                  (     0          1          0      )
                  (     0          0          1      )

 cart.    s( 6) = ( -1.0000000  0.0000000  0.0000000 )
                  (  0.0000000  1.0000000  0.0000000 )
                  (  0.0000000  0.0000000  1.0000000 )


      isym =  7     inv. 180 deg rotation - cart. axis [1,1,0]   

 cryst.   s( 7) = (     0         -1          0      )
                  (    -1          0          0      )
                  (     0          0          1      )

 cart.    s( 7) = (  0.0000000 -1.0000000  0.0000000 )
                  ( -1.0000000  0.0000000  0.0000000 )
                  (  0.0000000  0.0000000  1.0000000 )


      isym =  8     inv. 180 deg rotation - cart. axis [1,-1,0]  

 cryst.   s( 8) = (     0          1          0      )
                  (     1          0          0      )
                  (     0          0          1      )

 cart.    s( 8) = (  0.0000000  1.0000000  0.0000000 )
                  (  1.0000000  0.0000000  0.0000000 )
                  (  0.0000000  0.0000000  1.0000000 )


   Cartesian axes

     site n.     atom                  positions (alat units)
         1           Ba  tau(   1) = (   0.0000000   0.0000000   0.0000000  )
         2           Pd  tau(   2) = (   0.5000000   0.5000000   0.4841931  )
         3           O   tau(   3) = (   0.5000000   0.5000000   0.0160728  )
         4           O   tau(   4) = (   0.5000000   0.0000000   0.5173433  )
         5           O   tau(   5) = (   0.0000000   0.5000000   0.5173433  )

   Crystallographic axes

     site n.     atom                  positions (cryst. coord.)
         1           Ba  tau(   1) = (  0.0000000  0.0000000  0.0000000  )
         2           Pd  tau(   2) = (  0.5000000  0.5000000  0.4820000  )
         3           O   tau(   3) = (  0.5000000  0.5000000  0.0160000  )
         4           O   tau(   4) = (  0.5000000  0.0000000  0.5150000  )
         5           O   tau(   5) = (  0.0000000  0.5000000  0.5150000  )

     number of k points=    75  Marzari-Vanderbilt smearing, width (Ry)=  0.0010
                       cart. coord. in units 2pi/alat
        k(    1) = (   0.0000000   0.0000000   0.0000000), wk =   0.0027435
        k(    2) = (   0.0000000   0.0000000   0.1106078), wk =   0.0054870
        k(    3) = (   0.0000000   0.0000000   0.2212157), wk =   0.0054870
        k(    4) = (   0.0000000   0.0000000   0.3318235), wk =   0.0054870
        k(    5) = (   0.0000000   0.0000000   0.4424314), wk =   0.0054870
        k(    6) = (   0.0000000   0.1111111   0.0000000), wk =   0.0109739
        k(    7) = (   0.0000000   0.1111111   0.1106078), wk =   0.0219479
        k(    8) = (   0.0000000   0.1111111   0.2212157), wk =   0.0219479
        k(    9) = (   0.0000000   0.1111111   0.3318235), wk =   0.0219479
        k(   10) = (   0.0000000   0.1111111   0.4424314), wk =   0.0219479
        k(   11) = (   0.0000000   0.2222222   0.0000000), wk =   0.0109739
        k(   12) = (   0.0000000   0.2222222   0.1106078), wk =   0.0219479
        k(   13) = (   0.0000000   0.2222222   0.2212157), wk =   0.0219479
        k(   14) = (   0.0000000   0.2222222   0.3318235), wk =   0.0219479
        k(   15) = (   0.0000000   0.2222222   0.4424314), wk =   0.0219479
        k(   16) = (   0.0000000   0.3333333   0.0000000), wk =   0.0109739
        k(   17) = (   0.0000000   0.3333333   0.1106078), wk =   0.0219479
        k(   18) = (   0.0000000   0.3333333   0.2212157), wk =   0.0219479
        k(   19) = (   0.0000000   0.3333333   0.3318235), wk =   0.0219479
        k(   20) = (   0.0000000   0.3333333   0.4424314), wk =   0.0219479
        k(   21) = (   0.0000000   0.4444444   0.0000000), wk =   0.0109739
        k(   22) = (   0.0000000   0.4444444   0.1106078), wk =   0.0219479
        k(   23) = (   0.0000000   0.4444444   0.2212157), wk =   0.0219479
        k(   24) = (   0.0000000   0.4444444   0.3318235), wk =   0.0219479
        k(   25) = (   0.0000000   0.4444444   0.4424314), wk =   0.0219479
        k(   26) = (   0.1111111   0.1111111   0.0000000), wk =   0.0109739
        k(   27) = (   0.1111111   0.1111111   0.1106078), wk =   0.0219479
        k(   28) = (   0.1111111   0.1111111   0.2212157), wk =   0.0219479
        k(   29) = (   0.1111111   0.1111111   0.3318235), wk =   0.0219479
        k(   30) = (   0.1111111   0.1111111   0.4424314), wk =   0.0219479
        k(   31) = (   0.1111111   0.2222222   0.0000000), wk =   0.0219479
        k(   32) = (   0.1111111   0.2222222   0.1106078), wk =   0.0438957
        k(   33) = (   0.1111111   0.2222222   0.2212157), wk =   0.0438957
        k(   34) = (   0.1111111   0.2222222   0.3318235), wk =   0.0438957
        k(   35) = (   0.1111111   0.2222222   0.4424314), wk =   0.0438957
        k(   36) = (   0.1111111   0.3333333   0.0000000), wk =   0.0219479
        k(   37) = (   0.1111111   0.3333333   0.1106078), wk =   0.0438957
        k(   38) = (   0.1111111   0.3333333   0.2212157), wk =   0.0438957
        k(   39) = (   0.1111111   0.3333333   0.3318235), wk =   0.0438957
        k(   40) = (   0.1111111   0.3333333   0.4424314), wk =   0.0438957
        k(   41) = (   0.1111111   0.4444444   0.0000000), wk =   0.0219479
        k(   42) = (   0.1111111   0.4444444   0.1106078), wk =   0.0438957
        k(   43) = (   0.1111111   0.4444444   0.2212157), wk =   0.0438957
        k(   44) = (   0.1111111   0.4444444   0.3318235), wk =   0.0438957
        k(   45) = (   0.1111111   0.4444444   0.4424314), wk =   0.0438957
        k(   46) = (   0.2222222   0.2222222   0.0000000), wk =   0.0109739
        k(   47) = (   0.2222222   0.2222222   0.1106078), wk =   0.0219479
        k(   48) = (   0.2222222   0.2222222   0.2212157), wk =   0.0219479
        k(   49) = (   0.2222222   0.2222222   0.3318235), wk =   0.0219479
        k(   50) = (   0.2222222   0.2222222   0.4424314), wk =   0.0219479
        k(   51) = (   0.2222222   0.3333333   0.0000000), wk =   0.0219479
        k(   52) = (   0.2222222   0.3333333   0.1106078), wk =   0.0438957
        k(   53) = (   0.2222222   0.3333333   0.2212157), wk =   0.0438957
        k(   54) = (   0.2222222   0.3333333   0.3318235), wk =   0.0438957
        k(   55) = (   0.2222222   0.3333333   0.4424314), wk =   0.0438957
        k(   56) = (   0.2222222   0.4444444   0.0000000), wk =   0.0219479
        k(   57) = (   0.2222222   0.4444444   0.1106078), wk =   0.0438957
        k(   58) = (   0.2222222   0.4444444   0.2212157), wk =   0.0438957
        k(   59) = (   0.2222222   0.4444444   0.3318235), wk =   0.0438957
        k(   60) = (   0.2222222   0.4444444   0.4424314), wk =   0.0438957
        k(   61) = (   0.3333333   0.3333333   0.0000000), wk =   0.0109739
        k(   62) = (   0.3333333   0.3333333   0.1106078), wk =   0.0219479
        k(   63) = (   0.3333333   0.3333333   0.2212157), wk =   0.0219479
        k(   64) = (   0.3333333   0.3333333   0.3318235), wk =   0.0219479
        k(   65) = (   0.3333333   0.3333333   0.4424314), wk =   0.0219479
        k(   66) = (   0.3333333   0.4444444   0.0000000), wk =   0.0219479
        k(   67) = (   0.3333333   0.4444444   0.1106078), wk =   0.0438957
        k(   68) = (   0.3333333   0.4444444   0.2212157), wk =   0.0438957
        k(   69) = (   0.3333333   0.4444444   0.3318235), wk =   0.0438957
        k(   70) = (   0.3333333   0.4444444   0.4424314), wk =   0.0438957
        k(   71) = (   0.4444444   0.4444444   0.0000000), wk =   0.0109739
        k(   72) = (   0.4444444   0.4444444   0.1106078), wk =   0.0219479
        k(   73) = (   0.4444444   0.4444444   0.2212157), wk =   0.0219479
        k(   74) = (   0.4444444   0.4444444   0.3318235), wk =   0.0219479
        k(   75) = (   0.4444444   0.4444444   0.4424314), wk =   0.0219479

                       cryst. coord.
        k(    1) = (   0.0000000   0.0000000   0.0000000), wk =   0.0027435
        k(    2) = (   0.0000000   0.0000000   0.1111111), wk =   0.0054870
        k(    3) = (   0.0000000   0.0000000   0.2222222), wk =   0.0054870
        k(    4) = (   0.0000000   0.0000000   0.3333333), wk =   0.0054870
        k(    5) = (   0.0000000   0.0000000   0.4444444), wk =   0.0054870
        k(    6) = (   0.0000000   0.1111111   0.0000000), wk =   0.0109739
        k(    7) = (   0.0000000   0.1111111   0.1111111), wk =   0.0219479
        k(    8) = (   0.0000000   0.1111111   0.2222222), wk =   0.0219479
        k(    9) = (   0.0000000   0.1111111   0.3333333), wk =   0.0219479
        k(   10) = (   0.0000000   0.1111111   0.4444444), wk =   0.0219479
        k(   11) = (   0.0000000   0.2222222   0.0000000), wk =   0.0109739
        k(   12) = (   0.0000000   0.2222222   0.1111111), wk =   0.0219479
        k(   13) = (   0.0000000   0.2222222   0.2222222), wk =   0.0219479
        k(   14) = (   0.0000000   0.2222222   0.3333333), wk =   0.0219479
        k(   15) = (   0.0000000   0.2222222   0.4444444), wk =   0.0219479
        k(   16) = (   0.0000000   0.3333333   0.0000000), wk =   0.0109739
        k(   17) = (   0.0000000   0.3333333   0.1111111), wk =   0.0219479
        k(   18) = (   0.0000000   0.3333333   0.2222222), wk =   0.0219479
        k(   19) = (   0.0000000   0.3333333   0.3333333), wk =   0.0219479
        k(   20) = (   0.0000000   0.3333333   0.4444444), wk =   0.0219479
        k(   21) = (   0.0000000   0.4444444   0.0000000), wk =   0.0109739
        k(   22) = (   0.0000000   0.4444444   0.1111111), wk =   0.0219479
        k(   23) = (   0.0000000   0.4444444   0.2222222), wk =   0.0219479
        k(   24) = (   0.0000000   0.4444444   0.3333333), wk =   0.0219479
        k(   25) = (   0.0000000   0.4444444   0.4444444), wk =   0.0219479
        k(   26) = (   0.1111111   0.1111111   0.0000000), wk =   0.0109739
        k(   27) = (   0.1111111   0.1111111   0.1111111), wk =   0.0219479
        k(   28) = (   0.1111111   0.1111111   0.2222222), wk =   0.0219479
        k(   29) = (   0.1111111   0.1111111   0.3333333), wk =   0.0219479
        k(   30) = (   0.1111111   0.1111111   0.4444444), wk =   0.0219479
        k(   31) = (   0.1111111   0.2222222   0.0000000), wk =   0.0219479
        k(   32) = (   0.1111111   0.2222222   0.1111111), wk =   0.0438957
        k(   33) = (   0.1111111   0.2222222   0.2222222), wk =   0.0438957
        k(   34) = (   0.1111111   0.2222222   0.3333333), wk =   0.0438957
        k(   35) = (   0.1111111   0.2222222   0.4444444), wk =   0.0438957
        k(   36) = (   0.1111111   0.3333333   0.0000000), wk =   0.0219479
        k(   37) = (   0.1111111   0.3333333   0.1111111), wk =   0.0438957
        k(   38) = (   0.1111111   0.3333333   0.2222222), wk =   0.0438957
        k(   39) = (   0.1111111   0.3333333   0.3333333), wk =   0.0438957
        k(   40) = (   0.1111111   0.3333333   0.4444444), wk =   0.0438957
        k(   41) = (   0.1111111   0.4444444   0.0000000), wk =   0.0219479
        k(   42) = (   0.1111111   0.4444444   0.1111111), wk =   0.0438957
        k(   43) = (   0.1111111   0.4444444   0.2222222), wk =   0.0438957
        k(   44) = (   0.1111111   0.4444444   0.3333333), wk =   0.0438957
        k(   45) = (   0.1111111   0.4444444   0.4444444), wk =   0.0438957
        k(   46) = (   0.2222222   0.2222222   0.0000000), wk =   0.0109739
        k(   47) = (   0.2222222   0.2222222   0.1111111), wk =   0.0219479
        k(   48) = (   0.2222222   0.2222222   0.2222222), wk =   0.0219479
        k(   49) = (   0.2222222   0.2222222   0.3333333), wk =   0.0219479
        k(   50) = (   0.2222222   0.2222222   0.4444444), wk =   0.0219479
        k(   51) = (   0.2222222   0.3333333   0.0000000), wk =   0.0219479
        k(   52) = (   0.2222222   0.3333333   0.1111111), wk =   0.0438957
        k(   53) = (   0.2222222   0.3333333   0.2222222), wk =   0.0438957
        k(   54) = (   0.2222222   0.3333333   0.3333333), wk =   0.0438957
        k(   55) = (   0.2222222   0.3333333   0.4444444), wk =   0.0438957
        k(   56) = (   0.2222222   0.4444444   0.0000000), wk =   0.0219479
        k(   57) = (   0.2222222   0.4444444   0.1111111), wk =   0.0438957
        k(   58) = (   0.2222222   0.4444444   0.2222222), wk =   0.0438957
        k(   59) = (   0.2222222   0.4444444   0.3333333), wk =   0.0438957
        k(   60) = (   0.2222222   0.4444444   0.4444444), wk =   0.0438957
        k(   61) = (   0.3333333   0.3333333   0.0000000), wk =   0.0109739
        k(   62) = (   0.3333333   0.3333333   0.1111111), wk =   0.0219479
        k(   63) = (   0.3333333   0.3333333   0.2222222), wk =   0.0219479
        k(   64) = (   0.3333333   0.3333333   0.3333333), wk =   0.0219479
        k(   65) = (   0.3333333   0.3333333   0.4444444), wk =   0.0219479
        k(   66) = (   0.3333333   0.4444444   0.0000000), wk =   0.0219479
        k(   67) = (   0.3333333   0.4444444   0.1111111), wk =   0.0438957
        k(   68) = (   0.3333333   0.4444444   0.2222222), wk =   0.0438957
        k(   69) = (   0.3333333   0.4444444   0.3333333), wk =   0.0438957
        k(   70) = (   0.3333333   0.4444444   0.4444444), wk =   0.0438957
        k(   71) = (   0.4444444   0.4444444   0.0000000), wk =   0.0109739
        k(   72) = (   0.4444444   0.4444444   0.1111111), wk =   0.0219479
        k(   73) = (   0.4444444   0.4444444   0.2222222), wk =   0.0219479
        k(   74) = (   0.4444444   0.4444444   0.3333333), wk =   0.0219479
        k(   75) = (   0.4444444   0.4444444   0.4444444), wk =   0.0219479

     Dense  grid:   154051 G-vectors     FFT dimensions: (  72,  72,  72)

     Dynamical RAM for                 wfc:       0.38 MB

     Dynamical RAM for     wfc (w. buffer):      29.04 MB

     Dynamical RAM for           str. fact:       0.35 MB

     Dynamical RAM for           local pot:       0.00 MB

     Dynamical RAM for          nlocal pot:       1.20 MB

     Dynamical RAM for                qrad:      14.92 MB

     Dynamical RAM for          rho,v,vnew:       0.83 MB

     Dynamical RAM for               rhoin:       0.28 MB

     Dynamical RAM for            rho*nmix:       1.88 MB

     Dynamical RAM for           G-vectors:       0.50 MB

     Dynamical RAM for          h,s,v(r/c):       0.05 MB

     Dynamical RAM for          <psi|beta>:       0.03 MB

     Dynamical RAM for                 psi:       1.53 MB

     Dynamical RAM for                hpsi:       1.53 MB

     Dynamical RAM for                spsi:       1.53 MB

     Dynamical RAM for      wfcinit/wfcrot:       1.12 MB

     Dynamical RAM for           addusdens:      41.71 MB

     Dynamical RAM for          addusforce:      42.98 MB

     Estimated static dynamical RAM per process >      50.25 MB

     Estimated max dynamical RAM per process >      93.23 MB

     Estimated total dynamical RAM >       1.82 GB

     Check: negative/imaginary core charge=   -0.000001    0.000000

     Initial potential from superposition of free atoms
     Check: negative starting charge=   -0.170522

     starting charge   43.48499, renormalised to   44.00000

     negative rho (up, down):  1.725E-01 0.000E+00
     Starting wfcs are   37 randomized atomic wfcs

     total cpu time spent up to now is        3.4 secs

     Self-consistent Calculation

     iteration #  1     ecut=    50.00 Ry     beta= 0.70
     Davidson diagonalization with overlap
     ethr =  1.00E-02,  avg # of iterations =  2.0

     negative rho (up, down):  1.636E-01 0.000E+00

     total cpu time spent up to now is        8.6 secs

     total energy              =    -356.35204060 Ry
     Harris-Foulkes estimate   =    -365.88379399 Ry
     estimated scf accuracy    <      11.12547319 Ry

     iteration #  2     ecut=    50.00 Ry     beta= 0.70
     Davidson diagonalization with overlap
     ethr =  1.00E-02,  avg # of iterations =  6.8

     negative rho (up, down):  1.637E-01 0.000E+00

     total cpu time spent up to now is       20.0 secs

     total energy              =    -360.99538456 Ry
     Harris-Foulkes estimate   =    -387.38976280 Ry
     estimated scf accuracy    <      83.43814988 Ry

     iteration #  3     ecut=    50.00 Ry     beta= 0.70
     Davidson diagonalization with overlap
     ethr =  1.00E-02,  avg # of iterations =  6.0

     negative rho (up, down):  1.649E-01 0.000E+00

     total cpu time spent up to now is       30.8 secs

     total energy              =    -365.14087785 Ry
     Harris-Foulkes estimate   =    -365.96704538 Ry
     estimated scf accuracy    <       5.74262609 Ry

     iteration #  4     ecut=    50.00 Ry     beta= 0.70
     Davidson diagonalization with overlap
     ethr =  1.00E-02,  avg # of iterations =  1.0

     negative rho (up, down):  1.650E-01 0.000E+00

     total cpu time spent up to now is       35.8 secs

     total energy              =    -365.14370726 Ry
     Harris-Foulkes estimate   =    -365.36584167 Ry
     estimated scf accuracy    <       6.53694124 Ry

     iteration #  5     ecut=    50.00 Ry     beta= 0.70
     Davidson diagonalization with overlap
     ethr =  1.00E-02,  avg # of iterations =  1.0

     negative rho (up, down):  1.655E-01 0.000E+00

     total cpu time spent up to now is       40.8 secs

     total energy              =    -364.96547490 Ry
     Harris-Foulkes estimate   =    -365.18790835 Ry
     estimated scf accuracy    <       3.44861685 Ry

     iteration #  6     ecut=    50.00 Ry     beta= 0.70
     Davidson diagonalization with overlap
     ethr =  7.84E-03,  avg # of iterations =  1.1

     negative rho (up, down):  1.675E-01 0.000E+00

     total cpu time spent up to now is       45.7 secs

     total energy              =    -364.25285049 Ry
     Harris-Foulkes estimate   =    -364.98232831 Ry
     estimated scf accuracy    <       2.48037199 Ry

     iteration #  7     ecut=    50.00 Ry     beta= 0.70
     Davidson diagonalization with overlap
     ethr =  5.64E-03,  avg # of iterations =  4.5

     negative rho (up, down):  1.674E-01 0.000E+00

     total cpu time spent up to now is       52.8 secs

     total energy              =    -364.41820017 Ry
     Harris-Foulkes estimate   =    -364.48154306 Ry
     estimated scf accuracy    <       0.30144022 Ry

     iteration #  8     ecut=    50.00 Ry     beta= 0.70
     Davidson diagonalization with overlap
     ethr =  6.85E-04,  avg # of iterations =  8.6

     negative rho (up, down):  1.675E-01 0.000E+00

     total cpu time spent up to now is       63.2 secs

     total energy              =    -364.79039655 Ry
     Harris-Foulkes estimate   =    -364.72102944 Ry
     estimated scf accuracy    <      46.04733125 Ry

     iteration #  9     ecut=    50.00 Ry     beta= 0.70
     Davidson diagonalization with overlap
     ethr =  6.85E-04,  avg # of iterations =  1.2

     negative rho (up, down):  1.677E-01 0.000E+00

     total cpu time spent up to now is       68.3 secs

     total energy              =    -364.72616341 Ry
     Harris-Foulkes estimate   =    -364.79502671 Ry
     estimated scf accuracy    <      46.41486347 Ry

     iteration # 10     ecut=    50.00 Ry     beta= 0.70
     Davidson diagonalization with overlap
     ethr =  6.85E-04,  avg # of iterations =  1.0

     negative rho (up, down):  1.710E-01 0.000E+00

     total cpu time spent up to now is       73.2 secs

     total energy              =    -364.19520746 Ry
     Harris-Foulkes estimate   =    -364.72681190 Ry
     estimated scf accuracy    <      46.13853274 Ry

     iteration # 11     ecut=    50.00 Ry     beta= 0.70
     Davidson diagonalization with overlap
     ethr =  6.85E-04,  avg # of iterations =  1.0

     negative rho (up, down):  1.689E-01 0.000E+00

     total cpu time spent up to now is       78.1 secs

     total energy              =    -364.17350664 Ry
     Harris-Foulkes estimate   =    -364.47160891 Ry
     estimated scf accuracy    <       5.02130803 Ry

     iteration # 12     ecut=    50.00 Ry     beta= 0.70
     Davidson diagonalization with overlap
     ethr =  6.85E-04,  avg # of iterations =  4.1

     negative rho (up, down):  1.684E-01 0.000E+00

     total cpu time spent up to now is       85.6 secs

     total energy              =    -364.58633337 Ry
     Harris-Foulkes estimate   =    -364.52362561 Ry
     estimated scf accuracy    <       0.98597983 Ry

     iteration # 13     ecut=    50.00 Ry     beta= 0.70
     Davidson diagonalization with overlap
     ethr =  6.85E-04,  avg # of iterations =  1.5

     negative rho (up, down):  1.671E-01 0.000E+00

     total cpu time spent up to now is       90.8 secs

     total energy              =    -364.53264065 Ry
     Harris-Foulkes estimate   =    -364.61861515 Ry
     estimated scf accuracy    <       1.81657160 Ry

     iteration # 14     ecut=    50.00 Ry     beta= 0.70
     Davidson diagonalization with overlap
     ethr =  6.85E-04,  avg # of iterations =  1.0

     negative rho (up, down):  1.681E-01 0.000E+00

     total cpu time spent up to now is       95.7 secs

     total energy              =    -364.57072957 Ry
     Harris-Foulkes estimate   =    -364.56254210 Ry
     estimated scf accuracy    <       1.36254482 Ry

     iteration # 15     ecut=    50.00 Ry     beta= 0.70
     Davidson diagonalization with overlap
     ethr =  6.85E-04,  avg # of iterations =  1.0

     negative rho (up, down):  1.663E-01 0.000E+00

     total cpu time spent up to now is      100.7 secs

     total energy              =    -364.51103386 Ry
     Harris-Foulkes estimate   =    -364.57285030 Ry
     estimated scf accuracy    <       0.88941225 Ry

     iteration # 16     ecut=    50.00 Ry     beta= 0.70
     Davidson diagonalization with overlap
     ethr =  6.85E-04,  avg # of iterations =  1.0

     negative rho (up, down):  1.641E-01 0.000E+00

     total cpu time spent up to now is      105.6 secs

     total energy              =    -364.50718489 Ry
     Harris-Foulkes estimate   =    -364.51842525 Ry
     estimated scf accuracy    <       0.91902293 Ry

     iteration # 17     ecut=    50.00 Ry     beta= 0.70
     Davidson diagonalization with overlap
     ethr =  6.85E-04,  avg # of iterations =  1.0

     negative rho (up, down):  1.646E-01 0.000E+00

     total cpu time spent up to now is      110.6 secs

     total energy              =    -364.49610468 Ry
     Harris-Foulkes estimate   =    -364.51214165 Ry
     estimated scf accuracy    <       0.34686429 Ry

     iteration # 18     ecut=    50.00 Ry     beta= 0.70
     Davidson diagonalization with overlap
     ethr =  6.85E-04,  avg # of iterations =  1.0

     negative rho (up, down):  1.655E-01 0.000E+00

     total cpu time spent up to now is      115.5 secs

     total energy              =    -364.47855181 Ry
     Harris-Foulkes estimate   =    -364.50092933 Ry
     estimated scf accuracy    <       0.45117783 Ry

     iteration # 19     ecut=    50.00 Ry     beta= 0.70
     Davidson diagonalization with overlap
     ethr =  6.85E-04,  avg # of iterations =  1.1

     negative rho (up, down):  1.659E-01 0.000E+00

     total cpu time spent up to now is      120.5 secs

     total energy              =    -364.47722809 Ry
     Harris-Foulkes estimate   =    -364.48361461 Ry
     estimated scf accuracy    <       0.27413764 Ry

     iteration # 20     ecut=    50.00 Ry     beta= 0.70
     Davidson diagonalization with overlap
     ethr =  6.23E-04,  avg # of iterations =  1.1

     negative rho (up, down):  1.663E-01 0.000E+00

     total cpu time spent up to now is      125.5 secs

     total energy              =    -364.49133569 Ry
     Harris-Foulkes estimate   =    -364.48865587 Ry
     estimated scf accuracy    <       0.46802635 Ry

     iteration # 21     ecut=    50.00 Ry     beta= 0.70
     Davidson diagonalization with overlap
     ethr =  6.23E-04,  avg # of iterations =  1.0

     negative rho (up, down):  1.661E-01 0.000E+00

     total cpu time spent up to now is      130.5 secs

     total energy              =    -364.47094370 Ry
     Harris-Foulkes estimate   =    -364.49235881 Ry
     estimated scf accuracy    <       0.63640702 Ry

     iteration # 22     ecut=    50.00 Ry     beta= 0.70
     Davidson diagonalization with overlap
     ethr =  6.23E-04,  avg # of iterations =  1.0

     negative rho (up, down):  1.664E-01 0.000E+00

     total cpu time spent up to now is      135.4 secs

     total energy              =    -364.48055915 Ry
     Harris-Foulkes estimate   =    -364.48251295 Ry
     estimated scf accuracy    <       0.20270824 Ry

     iteration # 23     ecut=    50.00 Ry     beta= 0.70
     Davidson diagonalization with overlap
     ethr =  4.61E-04,  avg # of iterations =  1.1

     negative rho (up, down):  1.665E-01 0.000E+00

     total cpu time spent up to now is      140.4 secs

     total energy              =    -364.47210213 Ry
     Harris-Foulkes estimate   =    -364.48658354 Ry
     estimated scf accuracy    <       0.38448020 Ry

     iteration # 24     ecut=    50.00 Ry     beta= 0.70
     Davidson diagonalization with overlap
     ethr =  4.61E-04,  avg # of iterations =  1.0

     negative rho (up, down):  1.666E-01 0.000E+00

     total cpu time spent up to now is      145.4 secs

     total energy              =    -364.48008172 Ry
     Harris-Foulkes estimate   =    -364.48083391 Ry
     estimated scf accuracy    <       0.18497431 Ry

     iteration # 25     ecut=    50.00 Ry     beta= 0.70
     Davidson diagonalization with overlap
     ethr =  4.20E-04,  avg # of iterations =  1.0

     negative rho (up, down):  1.665E-01 0.000E+00

     total cpu time spent up to now is      150.3 secs

     total energy              =    -364.47956296 Ry
     Harris-Foulkes estimate   =    -364.48034813 Ry
     estimated scf accuracy    <       0.14569295 Ry

     iteration # 26     ecut=    50.00 Ry     beta= 0.70
     Davidson diagonalization with overlap
     ethr =  3.31E-04,  avg # of iterations =  1.1

     negative rho (up, down):  1.667E-01 0.000E+00

     total cpu time spent up to now is      155.3 secs

     total energy              =    -364.47040300 Ry
     Harris-Foulkes estimate   =    -364.47989556 Ry
     estimated scf accuracy    <       0.15991190 Ry

     iteration # 27     ecut=    50.00 Ry     beta= 0.70
     Davidson diagonalization with overlap
     ethr =  3.31E-04,  avg # of iterations =  2.0

     negative rho (up, down):  1.666E-01 0.000E+00

     total cpu time spent up to now is      160.9 secs

     total energy              =    -364.45700125 Ry
     Harris-Foulkes estimate   =    -364.52274003 Ry
     estimated scf accuracy    <       4.48339047 Ry

     iteration # 28     ecut=    50.00 Ry     beta= 0.70
     Davidson diagonalization with overlap
     ethr =  3.31E-04,  avg # of iterations =  1.0

     negative rho (up, down):  1.666E-01 0.000E+00

     total cpu time spent up to now is      165.9 secs

     total energy              =    -364.47923428 Ry
     Harris-Foulkes estimate   =    -364.47915840 Ry
     estimated scf accuracy    <       0.03143983 Ry

     iteration # 29     ecut=    50.00 Ry     beta= 0.70
     Davidson diagonalization with overlap
     ethr =  7.15E-05,  avg # of iterations =  1.8

     negative rho (up, down):  1.666E-01 0.000E+00

     total cpu time spent up to now is      171.3 secs

     total energy              =    -364.47957234 Ry
     Harris-Foulkes estimate   =    -364.47950355 Ry
     estimated scf accuracy    <       0.03914662 Ry

     iteration # 30     ecut=    50.00 Ry     beta= 0.70
     Davidson diagonalization with overlap
     ethr =  7.15E-05,  avg # of iterations =  1.0

     negative rho (up, down):  1.665E-01 0.000E+00

     total cpu time spent up to now is      176.2 secs

     total energy              =    -364.47970970 Ry
     Harris-Foulkes estimate   =    -364.47963239 Ry
     estimated scf accuracy    <       0.04553524 Ry

     iteration # 31     ecut=    50.00 Ry     beta= 0.70
     Davidson diagonalization with overlap
     ethr =  7.15E-05,  avg # of iterations =  1.0

     negative rho (up, down):  1.665E-01 0.000E+00

     total cpu time spent up to now is      181.2 secs

     total energy              =    -364.47908895 Ry
     Harris-Foulkes estimate   =    -364.47976560 Ry
     estimated scf accuracy    <       0.05698896 Ry

     iteration # 32     ecut=    50.00 Ry     beta= 0.70
     Davidson diagonalization with overlap
     ethr =  7.15E-05,  avg # of iterations =  1.1

     negative rho (up, down):  1.667E-01 0.000E+00

     total cpu time spent up to now is      186.1 secs

     total energy              =    -364.48025041 Ry
     Harris-Foulkes estimate   =    -364.47930528 Ry
     estimated scf accuracy    <       0.00592388 Ry

     iteration # 33     ecut=    50.00 Ry     beta= 0.70
     Davidson diagonalization with overlap
     ethr =  1.35E-05,  avg # of iterations =  6.0

     negative rho (up, down):  1.668E-01 0.000E+00

     total cpu time spent up to now is      194.2 secs

     total energy              =    -364.48029530 Ry
     Harris-Foulkes estimate   =    -364.48456433 Ry
     estimated scf accuracy    <       0.28718621 Ry

     iteration # 34     ecut=    50.00 Ry     beta= 0.70
     Davidson diagonalization with overlap
     ethr =  1.35E-05,  avg # of iterations =  1.5

     negative rho (up, down):  1.668E-01 0.000E+00

     total cpu time spent up to now is      199.3 secs

     total energy              =    -364.47769503 Ry
     Harris-Foulkes estimate   =    -364.48083999 Ry
     estimated scf accuracy    <       0.19851847 Ry

     iteration # 35     ecut=    50.00 Ry     beta= 0.70
     Davidson diagonalization with overlap
     ethr =  1.35E-05,  avg # of iterations =  3.1

     negative rho (up, down):  1.668E-01 0.000E+00

     total cpu time spent up to now is      205.4 secs

     total energy              =    -364.47910679 Ry
     Harris-Foulkes estimate   =    -364.47922105 Ry
     estimated scf accuracy    <       0.02682432 Ry

     iteration # 36     ecut=    50.00 Ry     beta= 0.70
     Davidson diagonalization with overlap
     ethr =  1.35E-05,  avg # of iterations =  1.0

     negative rho (up, down):  1.667E-01 0.000E+00

     total cpu time spent up to now is      210.4 secs

     total energy              =    -364.47922169 Ry
     Harris-Foulkes estimate   =    -364.47920473 Ry
     estimated scf accuracy    <       0.00168277 Ry

     iteration # 37     ecut=    50.00 Ry     beta= 0.70
     Davidson diagonalization with overlap
     ethr =  3.82E-06,  avg # of iterations =  2.6

     negative rho (up, down):  1.664E-01 0.000E+00

     total cpu time spent up to now is      216.2 secs

     total energy              =    -364.47908409 Ry
     Harris-Foulkes estimate   =    -364.47931670 Ry
     estimated scf accuracy    <       0.01009474 Ry

     iteration # 38     ecut=    50.00 Ry     beta= 0.70
     Davidson diagonalization with overlap
     ethr =  3.82E-06,  avg # of iterations =  2.1

     negative rho (up, down):  1.663E-01 0.000E+00

     total cpu time spent up to now is      221.7 secs

     total energy              =    -364.47919244 Ry
     Harris-Foulkes estimate   =    -364.47938554 Ry
     estimated scf accuracy    <       0.03226882 Ry

     iteration # 39     ecut=    50.00 Ry     beta= 0.70
     Davidson diagonalization with overlap
     ethr =  3.82E-06,  avg # of iterations =  1.5

     negative rho (up, down):  1.663E-01 0.000E+00

     total cpu time spent up to now is      226.9 secs

     total energy              =    -364.47927693 Ry
     Harris-Foulkes estimate   =    -364.47934400 Ry
     estimated scf accuracy    <       0.01205724 Ry

     iteration # 40     ecut=    50.00 Ry     beta= 0.70
     Davidson diagonalization with overlap
     ethr =  3.82E-06,  avg # of iterations =  1.0

     negative rho (up, down):  1.663E-01 0.000E+00

     total cpu time spent up to now is      231.9 secs

     total energy              =    -364.47927887 Ry
     Harris-Foulkes estimate   =    -364.47932225 Ry
     estimated scf accuracy    <       0.00191045 Ry

     iteration # 41     ecut=    50.00 Ry     beta= 0.70
     Davidson diagonalization with overlap
     ethr =  3.82E-06,  avg # of iterations =  1.0

     negative rho (up, down):  1.663E-01 0.000E+00

     total cpu time spent up to now is      236.8 secs

     total energy              =    -364.47893543 Ry
     Harris-Foulkes estimate   =    -364.47934513 Ry
     estimated scf accuracy    <       0.04555469 Ry

     iteration # 42     ecut=    50.00 Ry     beta= 0.70
     Davidson diagonalization with overlap
     ethr =  3.82E-06,  avg # of iterations =  1.9

     negative rho (up, down):  1.662E-01 0.000E+00

     total cpu time spent up to now is      242.3 secs

     total energy              =    -364.47900167 Ry
     Harris-Foulkes estimate   =    -364.47920640 Ry
     estimated scf accuracy    <       0.00593477 Ry

     iteration # 43     ecut=    50.00 Ry     beta= 0.70
     Davidson diagonalization with overlap
     ethr =  3.82E-06,  avg # of iterations =  1.0

     negative rho (up, down):  1.662E-01 0.000E+00

     total cpu time spent up to now is      247.2 secs

     total energy              =    -364.47893157 Ry
     Harris-Foulkes estimate   =    -364.47932372 Ry
     estimated scf accuracy    <       0.07009695 Ry

     iteration # 44     ecut=    50.00 Ry     beta= 0.70
     Davidson diagonalization with overlap
     ethr =  3.82E-06,  avg # of iterations =  1.2

     negative rho (up, down):  1.662E-01 0.000E+00

     total cpu time spent up to now is      252.3 secs

     total energy              =    -364.47915459 Ry
     Harris-Foulkes estimate   =    -364.47916449 Ry
     estimated scf accuracy    <       0.00210267 Ry

     iteration # 45     ecut=    50.00 Ry     beta= 0.70
     Davidson diagonalization with overlap
     ethr =  3.82E-06,  avg # of iterations =  1.0

     negative rho (up, down):  1.661E-01 0.000E+00

     total cpu time spent up to now is      257.2 secs

     total energy              =    -364.47916957 Ry
     Harris-Foulkes estimate   =    -364.47916981 Ry
     estimated scf accuracy    <       0.00001591 Ry

     iteration # 46     ecut=    50.00 Ry     beta= 0.70
     Davidson diagonalization with overlap
     ethr =  3.62E-08,  avg # of iterations =  6.2

     negative rho (up, down):  1.662E-01 0.000E+00

     total cpu time spent up to now is      267.5 secs

     total energy              =    -364.47921274 Ry
     Harris-Foulkes estimate   =    -364.47922183 Ry
     estimated scf accuracy    <       0.00021060 Ry

     iteration # 47     ecut=    50.00 Ry     beta= 0.70
     Davidson diagonalization with overlap
     ethr =  3.62E-08,  avg # of iterations =  1.7

     negative rho (up, down):  1.662E-01 0.000E+00

     total cpu time spent up to now is      272.8 secs

     total energy              =    -364.47920752 Ry
     Harris-Foulkes estimate   =    -364.47921339 Ry
     estimated scf accuracy    <       0.00011555 Ry

     iteration # 48     ecut=    50.00 Ry     beta= 0.70
     Davidson diagonalization with overlap
     ethr =  3.62E-08,  avg # of iterations =  1.9

     negative rho (up, down):  1.662E-01 0.000E+00

     total cpu time spent up to now is      278.2 secs

     total energy              =    -364.47920716 Ry
     Harris-Foulkes estimate   =    -364.47920804 Ry
     estimated scf accuracy    <       0.00009921 Ry

     iteration # 49     ecut=    50.00 Ry     beta= 0.70
     Davidson diagonalization with overlap
     ethr =  3.62E-08,  avg # of iterations =  1.0

     negative rho (up, down):  1.662E-01 0.000E+00

     total cpu time spent up to now is      283.2 secs

     total energy              =    -364.47918378 Ry
     Harris-Foulkes estimate   =    -364.47920739 Ry
     estimated scf accuracy    <       0.00011069 Ry

     iteration # 50     ecut=    50.00 Ry     beta= 0.70
     Davidson diagonalization with overlap
     ethr =  3.62E-08,  avg # of iterations =  5.3

     negative rho (up, down):  1.662E-01 0.000E+00

     total cpu time spent up to now is      292.4 secs

     total energy              =    -364.47920530 Ry
     Harris-Foulkes estimate   =    -364.47920448 Ry
     estimated scf accuracy    <       0.00002443 Ry

     iteration # 51     ecut=    50.00 Ry     beta= 0.70
     Davidson diagonalization with overlap
     ethr =  3.62E-08,  avg # of iterations =  1.0

     negative rho (up, down):  1.662E-01 0.000E+00

     total cpu time spent up to now is      297.3 secs

     total energy              =    -364.47920294 Ry
     Harris-Foulkes estimate   =    -364.47920538 Ry
     estimated scf accuracy    <       0.00003109 Ry

     iteration # 52     ecut=    50.00 Ry     beta= 0.70
     Davidson diagonalization with overlap
     ethr =  3.62E-08,  avg # of iterations =  1.0

     negative rho (up, down):  1.662E-01 0.000E+00

     total cpu time spent up to now is      302.3 secs

     total energy              =    -364.47919908 Ry
     Harris-Foulkes estimate   =    -364.47920312 Ry
     estimated scf accuracy    <       0.00001942 Ry

     iteration # 53     ecut=    50.00 Ry     beta= 0.70
     Davidson diagonalization with overlap
     ethr =  3.62E-08,  avg # of iterations =  3.4

     negative rho (up, down):  1.662E-01 0.000E+00

     total cpu time spent up to now is      308.7 secs

     total energy              =    -364.47920157 Ry
     Harris-Foulkes estimate   =    -364.47920158 Ry
     estimated scf accuracy    <       0.00000300 Ry

     iteration # 54     ecut=    50.00 Ry     beta= 0.70
     Davidson diagonalization with overlap
     ethr =  6.82E-09,  avg # of iterations =  3.4

     negative rho (up, down):  1.662E-01 0.000E+00

     total cpu time spent up to now is      315.1 secs

     total energy              =    -364.47920169 Ry
     Harris-Foulkes estimate   =    -364.47920178 Ry
     estimated scf accuracy    <       0.00000069 Ry

     iteration # 55     ecut=    50.00 Ry     beta= 0.70
     Davidson diagonalization with overlap
     ethr =  1.56E-09,  avg # of iterations =  3.1

     negative rho (up, down):  1.662E-01 0.000E+00

     total cpu time spent up to now is      321.2 secs

     total energy              =    -364.47920169 Ry
     Harris-Foulkes estimate   =    -364.47920174 Ry
     estimated scf accuracy    <       0.00000028 Ry

     iteration # 56     ecut=    50.00 Ry     beta= 0.70
     Davidson diagonalization with overlap
     ethr =  6.29E-10,  avg # of iterations =  4.2

     negative rho (up, down):  1.662E-01 0.000E+00

     total cpu time spent up to now is      328.1 secs

     End of self-consistent calculation

          k = 0.0000 0.0000 0.0000 ( 19285 PWs)   bands (ev):

   -49.9890 -49.9682 -49.9682 -34.1609 -19.1374 -19.1373 -19.1373 -16.7482
   -16.7447 -16.7435  -2.4827  -2.4410  -2.4275  -2.4275  -2.4092  -2.2722
    -2.2712  -2.2712  -2.1381  -2.1381  -2.1349  -2.1323  -2.1316  -2.1316
    -1.6729  -1.5188

     occupation numbers 
     1.0000   1.0000   1.0000   1.0000   1.0000   1.0000   1.0000   1.0000
     1.0000   1.0000   1.0000   1.0000   1.0000   1.0000   1.0000   1.0000
     1.0000   1.0000   1.0660   1.0660   1.0062   0.9198   0.8921   0.8921
     0.0000   0.0000

          k = 0.0000 0.0000 0.1106 ( 19293 PWs)   bands (ev):

   -49.9890 -49.9682 -49.9682 -34.1609 -19.1374 -19.1373 -19.1373 -16.7482
   -16.7447 -16.7435  -2.5022  -2.4410  -2.4296  -2.4296  -2.4091  -2.2700
    -2.2700  -2.2590  -2.1462  -2.1389  -2.1389  -2.1353  -2.1318  -2.1318
    -1.6414  -1.5149

     occupation numbers 
     1.0000   1.0000   1.0000   1.0000   1.0000   1.0000   1.0000   1.0000
     1.0000   1.0000   1.0000   1.0000   1.0000   1.0000   1.0000   1.0000
     1.0000   1.0000   1.0629   1.0738   1.0738   1.0164   0.8971   0.8971
     0.0000   0.0000

          k = 0.0000 0.0000 0.2212 ( 19317 PWs)   bands (ev):

   -49.9890 -49.9682 -49.9682 -34.1610 -19.1374 -19.1373 -19.1373 -16.7481
   -16.7448 -16.7435  -2.5427  -2.4410  -2.4347  -2.4347  -2.4090  -2.2672
    -2.2672  -2.2393  -2.1642  -2.1428  -2.1421  -2.1421  -2.1308  -2.1308
    -1.5719  -1.5053

     occupation numbers 
     1.0000   1.0000   1.0000   1.0000   1.0000   1.0000   1.0000   1.0000
     1.0000   1.0000   1.0000   1.0000   1.0000   1.0000   1.0000   1.0000
     1.0000   1.0000   1.0010   1.0812   1.0827   1.0827   0.8539   0.8539
     0.0000   0.0000

          k = 0.0000 0.0000 0.3318 ( 19270 PWs)   bands (ev):

   -49.9890 -49.9682 -49.9682 -34.1609 -19.1374 -19.1373 -19.1373 -16.7479
   -16.7449 -16.7435  -2.5806  -2.4410  -2.4401  -2.4401  -2.4089  -2.2646
    -2.2646  -2.2393  -2.1639  -2.1509  -2.1462  -2.1462  -2.1288  -2.1288
    -1.5258  -1.4945

     occupation numbers 
     1.0000   1.0000   1.0000   1.0000   1.0000   1.0000   1.0000   1.0000
     1.0000   1.0000   1.0000   1.0000   1.0000   1.0000   1.0000   1.0000
     1.0000   1.0000   1.0011   1.0321   1.0629   1.0629   0.7578   0.7578
     0.0000   0.0000

          k = 0.0000 0.0000 0.4424 ( 19274 PWs)   bands (ev):

   -49.9890 -49.9682 -49.9682 -34.1609 -19.1374 -19.1373 -19.1373 -16.7478
   -16.7449 -16.7435  -2.6024  -2.4435  -2.4435  -2.4410  -2.4088  -2.2631
    -2.2631  -2.2475  -2.1561  -2.1560  -2.1489  -2.1489  -2.1274  -2.1274
    -1.5112  -1.4876

     occupation numbers 
     1.0000   1.0000   1.0000   1.0000   1.0000   1.0000   1.0000   1.0000
     1.0000   1.0000   1.0000   1.0000   1.0000   1.0000   1.0000   1.0000
     1.0000   1.0000   1.0107   1.0110   1.0445   1.0445   0.6813   0.6813
     0.0000   0.0000

          k = 0.0000 0.1111 0.0000 ( 19293 PWs)   bands (ev):

   -49.9890 -49.9682 -49.9682 -34.1609 -19.1374 -19.1373 -19.1373 -16.7482
   -16.7446 -16.7436  -2.4890  -2.4580  -2.4274  -2.4266  -2.4114  -2.2791
    -2.2703  -2.2489  -2.1534  -2.1380  -2.1359  -2.1348  -2.1324  -2.1286
    -1.6406  -1.5135

     occupation numbers 
     1.0000   1.0000   1.0000   1.0000   1.0000   1.0000   1.0000   1.0000
     1.0000   1.0000   1.0000   1.0000   1.0000   1.0000   1.0000   1.0000
     1.0000   1.0000   1.0198   1.0640   1.0299   1.0028   0.9250   0.7482
     0.0000   0.0000

          k = 0.0000 0.1111 0.1106 ( 19293 PWs)   bands (ev):

   -49.9890 -49.9682 -49.9682 -34.1609 -19.1374 -19.1373 -19.1373 -16.7481
   -16.7447 -16.7436  -2.5059  -2.4598  -2.4295  -2.4288  -2.4114  -2.2779
    -2.2689  -2.2366  -2.1635  -2.1399  -2.1384  -2.1336  -2.1330  -2.1267
    -1.6129  -1.5099

     occupation numbers 
     1.0000   1.0000   1.0000   1.0000   1.0000   1.0000   1.0000   1.0000
     1.0000   1.0000   1.0000   1.0000   1.0000   1.0000   1.0000   1.0000
     1.0000   1.0000   1.0013   1.0800   1.0686   0.9650   0.9463   0.6455
     0.0000   0.0000

          k = 0.0000 0.1111 0.2212 ( 19302 PWs)   bands (ev):

   -49.9890 -49.9682 -49.9682 -34.1609 -19.1374 -19.1373 -19.1373 -16.7480
   -16.7447 -16.7436  -2.5442  -2.4616  -2.4347  -2.4341  -2.4114  -2.2754
    -2.2658  -2.2208  -2.1752  -2.1466  -2.1412  -2.1344  -2.1325  -2.1236
    -1.5511  -1.5011

     occupation numbers 
     1.0000   1.0000   1.0000   1.0000   1.0000   1.0000   1.0000   1.0000
     1.0000   1.0000   1.0000   1.0000   1.0000   1.0000   1.0000   1.0000
     1.0000   1.0000   1.0000   1.0603   1.0833   0.9904   0.9258   0.4737
     0.0000   0.0000

          k = 0.0000 0.1111 0.3318 ( 19296 PWs)   bands (ev):

   -49.9890 -49.9682 -49.9682 -34.1609 -19.1374 -19.1373 -19.1373 -16.7479
   -16.7448 -16.7436  -2.5812  -2.4628  -2.4403  -2.4395  -2.4113  -2.2726
    -2.2627  -2.2293  -2.1671  -2.1530  -2.1454  -2.1334  -2.1306  -2.1212
    -1.5127  -1.4909

     occupation numbers 
     1.0000   1.0000   1.0000   1.0000   1.0000   1.0000   1.0000   1.0000
     1.0000   1.0000   1.0000   1.0000   1.0000   1.0000   1.0000   1.0000
     1.0000   1.0000   1.0004   1.0216   1.0682   0.9597   0.8476   0.3539
     0.0000   0.0000

          k = 0.0000 0.1111 0.4424 ( 19253 PWs)   bands (ev):

   -49.9890 -49.9682 -49.9682 -34.1609 -19.1374 -19.1373 -19.1373 -16.7478
   -16.7449 -16.7436  -2.6027  -2.4637  -2.4437  -2.4427  -2.4113  -2.2705
    -2.2610  -2.2403  -2.1617  -2.1566  -2.1481  -2.1292  -2.1275  -2.1214
    -1.5006  -1.4840

     occupation numbers 
     1.0000   1.0000   1.0000   1.0000   1.0000   1.0000   1.0000   1.0000
     1.0000   1.0000   1.0000   1.0000   1.0000   1.0000   1.0000   1.0000
     1.0000   1.0000   1.0023   1.0094   1.0497   0.7793   0.6890   0.3637
     0.0000   0.0000

          k = 0.0000 0.2222 0.0000 ( 19295 PWs)   bands (ev):

   -49.9890 -49.9682 -49.9682 -34.1609 -19.1374 -19.1373 -19.1373 -16.7481
   -16.7446 -16.7437  -2.5199  -2.4700  -2.4306  -2.4273  -2.4167  -2.2797
    -2.2681  -2.2246  -2.1736  -2.1436  -2.1399  -2.1384  -2.1319  -2.1255
    -1.5684  -1.5032

     occupation numbers 
     1.0000   1.0000   1.0000   1.0000   1.0000   1.0000   1.0000   1.0000
     1.0000   1.0000   1.0000   1.0000   1.0000   1.0000   1.0000   1.0000
     1.0000   1.0000   1.0000   1.0782   1.0801   1.0689   0.9041   0.5786
     0.0000   0.0000

          k = 0.0000 0.2222 0.1106 ( 19308 PWs)   bands (ev):

   -49.9890 -49.9682 -49.9682 -34.1609 -19.1374 -19.1373 -19.1373 -16.7481
   -16.7446 -16.7437  -2.5261  -2.4815  -2.4337  -2.4295  -2.4168  -2.2807
    -2.2664  -2.2132  -2.1804  -2.1470  -2.1394  -2.1344  -2.1336  -2.1196
    -1.5485  -1.4990

     occupation numbers 
     1.0000   1.0000   1.0000   1.0000   1.0000   1.0000   1.0000   1.0000
     1.0000   1.0000   1.0000   1.0000   1.0000   1.0000   1.0000   1.0000
     1.0000   1.0000   1.0000   1.0575   1.0773   0.9900   0.9653   0.2823
     0.0000   0.0000

          k = 0.0000 0.2222 0.2212 ( 19300 PWs)   bands (ev):

   -49.9890 -49.9682 -49.9682 -34.1609 -19.1374 -19.1373 -19.1373 -16.7480
   -16.7446 -16.7437  -2.5510  -2.4954  -2.4412  -2.4349  -2.4170  -2.2808
    -2.2624  -2.2085  -2.1774  -2.1525  -2.1393  -2.1363  -2.1303  -2.1060
    -1.5081  -1.4825

     occupation numbers 
     1.0000   1.0000   1.0000   1.0000   1.0000   1.0000   1.0000   1.0000
     1.0000   1.0000   1.0000   1.0000   1.0000   1.0000   1.0000   1.0000
     1.0000   1.0000   1.0000   1.0239   1.0767   1.0381   0.8303   0.0147
     0.0000   0.0000

          k = 0.0000 0.2222 0.3318 ( 19274 PWs)   bands (ev):

   -49.9890 -49.9682 -49.9682 -34.1609 -19.1374 -19.1373 -19.1373 -16.7479
   -16.7447 -16.7437  -2.5836  -2.5002  -2.4492  -2.4406  -2.4172  -2.2796
    -2.2583  -2.2202  -2.1652  -2.1564  -2.1433  -2.1351  -2.1259  -2.0917
    -1.4912  -1.4735

     occupation numbers 
     1.0000   1.0000   1.0000   1.0000   1.0000   1.0000   1.0000   1.0000
     1.0000   1.0000   1.0000   1.0000   1.0000   1.0000   1.0000   1.0000
     1.0000   1.0000   1.0007   1.0098   1.0795   1.0109   0.5983   0.0001
     0.0000   0.0000

          k = 0.0000 0.2222 0.4424 ( 19257 PWs)   bands (ev):

   -49.9890 -49.9682 -49.9682 -34.1609 -19.1374 -19.1373 -19.1373 -16.7478
   -16.7448 -16.7437  -2.6040  -2.5017  -2.4542  -2.4442  -2.4174  -2.2784
    -2.2559  -2.2281  -2.1618  -2.1577  -2.1461  -2.1339  -2.1219  -2.0824
    -1.4843  -1.4664

     occupation numbers 
     1.0000   1.0000   1.0000   1.0000   1.0000   1.0000   1.0000   1.0000
     1.0000   1.0000   1.0000   1.0000   1.0000   1.0000   1.0000   1.0000
     1.0000   1.0000   1.0022   1.0071   1.0634   0.9749   0.3869   0.0000
     0.0000   0.0000

          k = 0.0000 0.3333 0.0000 ( 19271 PWs)   bands (ev):

   -49.9890 -49.9682 -49.9682 -34.1609 -19.1373 -19.1373 -19.1373 -16.7481
   -16.7444 -16.7439  -2.5564  -2.4721  -2.4360  -2.4272  -2.4223  -2.2790
    -2.2663  -2.2293  -2.1669  -2.1519  -2.1438  -2.1413  -2.1294  -2.1244
    -1.5220  -1.4922

     occupation numbers 
     1.0000   1.0000   1.0000   1.0000   1.0000   1.0000   1.0000   1.0000
     1.0000   1.0000   1.0000   1.0000   1.0000   1.0000   1.0000   1.0000
     1.0000   1.0000   1.0004   1.0266   1.0771   1.0833   0.7887   0.5187
     0.0000   0.0000

          k = 0.0000 0.3333 0.1106 ( 19297 PWs)   bands (ev):

   -49.9890 -49.9682 -49.9682 -34.1609 -19.1374 -19.1373 -19.1373 -16.7480
   -16.7445 -16.7439  -2.5585  -2.4874  -2.4401  -2.4295  -2.4225  -2.2806
    -2.2642  -2.2241  -2.1676  -2.1541  -2.1433  -2.1340  -2.1312  -2.1155
    -1.5101  -1.4884

     occupation numbers 
     1.0000   1.0000   1.0000   1.0000   1.0000   1.0000   1.0000   1.0000
     1.0000   1.0000   1.0000   1.0000   1.0000   1.0000   1.0000   1.0000
     1.0000   1.0000   1.0003   1.0171   1.0794   0.9778   0.8734   0.1393
     0.0000   0.0000

          k = 0.0000 0.3333 0.2212 ( 19258 PWs)   bands (ev):

   -49.9890 -49.9682 -49.9682 -34.1609 -19.1374 -19.1373 -19.1373 -16.7480
   -16.7445 -16.7439  -2.5680  -2.5164  -2.4500  -2.4351  -2.4230  -2.2820
    -2.2591  -2.2185  -2.1647  -2.1573  -2.1419  -2.1356  -2.1263  -2.0897
    -1.4909  -1.4713

     occupation numbers 
     1.0000   1.0000   1.0000   1.0000   1.0000   1.0000   1.0000   1.0000
     1.0000   1.0000   1.0000   1.0000   1.0000   1.0000   1.0000   1.0000
     1.0000   1.0000   1.0009   1.0078   1.0830   1.0230   0.6219   0.0000
     0.0000   0.0000

          k = 0.0000 0.3333 0.3318 ( 19254 PWs)   bands (ev):

   -49.9890 -49.9682 -49.9682 -34.1609 -19.1374 -19.1373 -19.1373 -16.7479
   -16.7445 -16.7439  -2.5893  -2.5326  -2.4604  -2.4410  -2.4235  -2.2823
    -2.2539  -2.2177  -2.1612  -2.1582  -2.1411  -2.1397  -2.1202  -2.0637
    -1.4817  -1.4569

     occupation numbers 
     1.0000   1.0000   1.0000   1.0000   1.0000   1.0000   1.0000   1.0000
     1.0000   1.0000   1.0000   1.0000   1.0000   1.0000   1.0000   1.0000
     1.0000   1.0000   1.0026   1.0061   1.0831   1.0792   0.3056   0.0000
     0.0000   0.0000

          k = 0.0000 0.3333 0.4424 ( 19256 PWs)   bands (ev):

   -49.9890 -49.9682 -49.9682 -34.1609 -19.1374 -19.1373 -19.1373 -16.7478
   -16.7446 -16.7439  -2.6067  -2.5371  -2.4668  -2.4447  -2.4238  -2.2822
    -2.2507  -2.2185  -2.1602  -2.1575  -2.1438  -2.1390  -2.1163  -2.0487
    -1.4765  -1.4597

     occupation numbers 
     1.0000   1.0000   1.0000   1.0000   1.0000   1.0000   1.0000   1.0000
     1.0000   1.0000   1.0000   1.0000   1.0000   1.0000   1.0000   1.0000
     1.0000   1.0000   1.0036   1.0076   1.0771   1.0746   0.1635   0.0000
     0.0000   0.0000

          k = 0.0000 0.4444 0.0000 ( 19280 PWs)   bands (ev):

   -49.9890 -49.9682 -49.9682 -34.1609 -19.1374 -19.1373 -19.1373 -16.7480
   -16.7443 -16.7441  -2.5780  -2.4726  -2.4395  -2.4271  -2.4260  -2.2785
    -2.2654  -2.2411  -2.1583  -2.1547  -2.1464  -2.1385  -2.1275  -2.1273
    -1.5080  -1.4852

     occupation numbers 
     1.0000   1.0000   1.0000   1.0000   1.0000   1.0000   1.0000   1.0000
     1.0000   1.0000   1.0000   1.0000   1.0000   1.0000   1.0000   1.0000
     1.0000   1.0000   1.0060   1.0149   1.0616   1.0702   0.6896   0.6749
     0.0000   0.0000

          k = 0.0000 0.4444 0.1106 ( 19261 PWs)   bands (ev):

   -49.9890 -49.9682 -49.9682 -34.1609 -19.1374 -19.1374 -19.1373 -16.7480
   -16.7443 -16.7441  -2.5791  -2.4887  -2.4443  -2.4294  -2.4262  -2.2800
    -2.2630  -2.2362  -2.1595  -2.1580  -2.1459  -2.1293  -2.1284  -2.1152
    -1.4985  -1.4814

     occupation numbers 
     1.0000   1.0000   1.0000   1.0000   1.0000   1.0000   1.0000   1.0000
     1.0000   1.0000   1.0000   1.0000   1.0000   1.0000   1.0000   1.0000
     1.0000   1.0000   1.0044   1.0066   1.0647   0.7848   0.7350   0.1321
     0.0000   0.0000

          k = 0.0000 0.4444 0.2212 ( 19270 PWs)   bands (ev):

   -49.9890 -49.9682 -49.9682 -34.1609 -19.1374 -19.1373 -19.1373 -16.7479
   -16.7443 -16.7441  -2.5840  -2.5224  -2.4556  -2.4351  -2.4267  -2.2820
    -2.2573  -2.2261  -2.1605  -2.1589  -2.1448  -2.1339  -2.1224  -2.0799
    -1.4839  -1.4641

     occupation numbers 
     1.0000   1.0000   1.0000   1.0000   1.0000   1.0000   1.0000   1.0000
     1.0000   1.0000   1.0000   1.0000   1.0000   1.0000   1.0000   1.0000
     1.0000   1.0000   1.0032   1.0052   1.0721   0.9748   0.4128   0.0000
     0.0000   0.0000

          k = 0.0000 0.4444 0.3318 ( 19242 PWs)   bands (ev):

   -49.9890 -49.9682 -49.9682 -34.1609 -19.1374 -19.1373 -19.1373 -16.7479
   -16.7443 -16.7441  -2.5965  -2.5475  -2.4673  -2.4412  -2.4273  -2.2831
    -2.2513  -2.2178  -2.1602  -2.1575  -2.1434  -2.1389  -2.1165  -2.0481
    -1.4763  -1.4597

     occupation numbers 
     1.0000   1.0000   1.0000   1.0000   1.0000   1.0000   1.0000   1.0000
     1.0000   1.0000   1.0000   1.0000   1.0000   1.0000   1.0000   1.0000
     1.0000   1.0000   1.0036   1.0075   1.0790   1.0735   0.1671   0.0000
     0.0000   0.0000

          k = 0.0000 0.4444 0.4424 ( 19260 PWs)   bands (ev):

   -49.9890 -49.9682 -49.9682 -34.1609 -19.1374 -19.1373 -19.1373 -16.7478
   -16.7443 -16.7441  -2.6101  -2.5561  -2.4744  -2.4450  -2.4277  -2.2835
    -2.2477  -2.2144  -2.1585  -2.1563  -2.1425  -2.1420  -2.1126  -2.0304
    -1.4723  -1.4689

     occupation numbers 
     1.0000   1.0000   1.0000   1.0000   1.0000   1.0000   1.0000   1.0000
     1.0000   1.0000   1.0000   1.0000   1.0000   1.0000   1.0000   1.0000
     1.0000   1.0000   1.0058   1.0100   1.0818   1.0829   0.0782   0.0000
     0.0000   0.0000

          k = 0.1111 0.1111 0.0000 ( 19291 PWs)   bands (ev):

   -49.9890 -49.9682 -49.9682 -34.1609 -19.1374 -19.1373 -19.1373 -16.7481
   -16.7446 -16.7436  -2.4913  -2.4747  -2.4290  -2.4259  -2.4139  -2.2940
    -2.2539  -2.2361  -2.1666  -2.1400  -2.1399  -2.1313  -2.1312  -2.1265
    -1.6121  -1.5081

     occupation numbers 
     1.0000   1.0000   1.0000   1.0000   1.0000   1.0000   1.0000   1.0000
     1.0000   1.0000   1.0000   1.0000   1.0000   1.0000   1.0000   1.0000
     1.0000   1.0000   1.0004   1.0802   1.0798   0.8783   0.8748   0.6331
     0.0000   0.0000

          k = 0.1111 0.1111 0.1106 ( 19294 PWs)   bands (ev):

   -49.9890 -49.9682 -49.9682 -34.1609 -19.1374 -19.1373 -19.1373 -16.7481
   -16.7446 -16.7436  -2.5081  -2.4748  -2.4319  -2.4279  -2.4139  -2.3005
    -2.2355  -2.2348  -2.1751  -2.1427  -2.1400  -2.1320  -2.1279  -2.1261
    -1.5878  -1.5051

     occupation numbers 
     1.0000   1.0000   1.0000   1.0000   1.0000   1.0000   1.0000   1.0000
     1.0000   1.0000   1.0000   1.0000   1.0000   1.0000   1.0000   1.0000
     1.0000   1.0000   1.0000   1.0814   1.0805   0.9059   0.7076   0.6127
     0.0000   0.0000

          k = 0.1111 0.1111 0.2212 ( 19274 PWs)   bands (ev):

   -49.9890 -49.9682 -49.9682 -34.1609 -19.1374 -19.1373 -19.1373 -16.7480
   -16.7447 -16.7436  -2.5454  -2.4751  -2.4387  -2.4328  -2.4139  -2.3051
    -2.2317  -2.2176  -2.1803  -2.1488  -2.1409  -2.1339  -2.1257  -2.1218
    -1.5337  -1.4974

     occupation numbers 
     1.0000   1.0000   1.0000   1.0000   1.0000   1.0000   1.0000   1.0000
     1.0000   1.0000   1.0000   1.0000   1.0000   1.0000   1.0000   1.0000
     1.0000   1.0000   1.0000   1.0454   1.0829   0.9768   0.5876   0.3818
     0.0000   0.0000

          k = 0.1111 0.1111 0.3318 ( 19275 PWs)   bands (ev):

   -49.9890 -49.9682 -49.9682 -34.1609 -19.1374 -19.1373 -19.1373 -16.7479
   -16.7448 -16.7436  -2.5818  -2.4755  -2.4458  -2.4380  -2.4139  -2.3059
    -2.2290  -2.2268  -2.1674  -2.1545  -2.1382  -2.1372  -2.1248  -2.1163
    -1.5024  -1.4879

     occupation numbers 
     1.0000   1.0000   1.0000   1.0000   1.0000   1.0000   1.0000   1.0000
     1.0000   1.0000   1.0000   1.0000   1.0000   1.0000   1.0000   1.0000
     1.0000   1.0000   1.0003   1.0157   1.0669   1.0530   0.5378   0.1616
     0.0000   0.0000

          k = 0.1111 0.1111 0.4424 ( 19282 PWs)   bands (ev):

   -49.9890 -49.9682 -49.9682 -34.1609 -19.1374 -19.1373 -19.1373 -16.7478
   -16.7449 -16.7436  -2.6031  -2.4758  -2.4502  -2.4411  -2.4139  -2.3056
    -2.2359  -2.2276  -2.1628  -2.1577  -2.1397  -2.1317  -2.1239  -2.1127
    -1.4921  -1.4813

     occupation numbers 
     1.0000   1.0000   1.0000   1.0000   1.0000   1.0000   1.0000   1.0000
     1.0000   1.0000   1.0000   1.0000   1.0000   1.0000   1.0000   1.0000
     1.0000   1.0000   1.0016   1.0072   1.0790   0.8955   0.4927   0.0787
     0.0000   0.0000

          k = 0.1111 0.2222 0.0000 ( 19307 PWs)   bands (ev):

   -49.9890 -49.9682 -49.9682 -34.1609 -19.1374 -19.1373 -19.1373 -16.7481
   -16.7445 -16.7437  -2.5201  -2.4854  -2.4316  -2.4276  -2.4201  -2.3015
    -2.2489  -2.2120  -2.1824  -2.1472  -2.1424  -2.1328  -2.1296  -2.1209
    -1.5477  -1.4994

     occupation numbers 
     1.0000   1.0000   1.0000   1.0000   1.0000   1.0000   1.0000   1.0000
     1.0000   1.0000   1.0000   1.0000   1.0000   1.0000   1.0000   1.0000
     1.0000   1.0000   1.0000   1.0559   1.0821   0.9379   0.7969   0.3375
     0.0000   0.0000

          k = 0.1111 0.2222 0.1106 ( 19296 PWs)   bands (ev):

   -49.9890 -49.9682 -49.9682 -34.1609 -19.1374 -19.1373 -19.1373 -16.7481
   -16.7446 -16.7437  -2.5260  -2.4944  -2.4351  -2.4300  -2.4201  -2.3128
    -2.2325  -2.2083  -2.1855  -2.1487  -2.1430  -2.1306  -2.1276  -2.1180
    -1.5312  -1.4957

     occupation numbers 
     1.0000   1.0000   1.0000   1.0000   1.0000   1.0000   1.0000   1.0000
     1.0000   1.0000   1.0000   1.0000   1.0000   1.0000   1.0000   1.0000
     1.0000   1.0000   1.0000   1.0455   1.0806   0.8468   0.6938   0.2190
     0.0000   0.0000

          k = 0.1111 0.2222 0.2212 ( 19281 PWs)   bands (ev):

   -49.9890 -49.9682 -49.9682 -34.1609 -19.1374 -19.1373 -19.1373 -16.7480
   -16.7446 -16.7437  -2.5514  -2.5040  -2.4432  -2.4356  -2.4200  -2.3239
    -2.2204  -2.2053  -2.1768  -2.1532  -2.1430  -2.1302  -2.1246  -2.1063
    -1.4989  -1.4812

     occupation numbers 
     1.0000   1.0000   1.0000   1.0000   1.0000   1.0000   1.0000   1.0000
     1.0000   1.0000   1.0000   1.0000   1.0000   1.0000   1.0000   1.0000
     1.0000   1.0000   1.0000   1.0207   1.0805   0.8293   0.5275   0.0159
     0.0000   0.0000

          k = 0.1111 0.2222 0.3318 ( 19276 PWs)   bands (ev):

   -49.9890 -49.9682 -49.9682 -34.1609 -19.1374 -19.1373 -19.1373 -16.7479
   -16.7447 -16.7437  -2.5840  -2.5069  -2.4515  -2.4415  -2.4200  -2.3287
    -2.2217  -2.2059  -2.1644  -2.1564  -2.1401  -2.1316  -2.1224  -2.0912
    -1.4855  -1.4733

     occupation numbers 
     1.0000   1.0000   1.0000   1.0000   1.0000   1.0000   1.0000   1.0000
     1.0000   1.0000   1.0000   1.0000   1.0000   1.0000   1.0000   1.0000
     1.0000   1.0000   1.0009   1.0098   1.0810   0.8893   0.4108   0.0001
     0.0000   0.0000

          k = 0.1111 0.2222 0.4424 ( 19283 PWs)   bands (ev):

   -49.9890 -49.9682 -49.9682 -34.1609 -19.1374 -19.1373 -19.1373 -16.7478
   -16.7447 -16.7437  -2.6043  -2.5077  -2.4566  -2.4451  -2.4201  -2.3303
    -2.2250  -2.2052  -2.1624  -2.1575  -2.1364  -2.1328  -2.1202  -2.0810
    -1.4791  -1.4668

     occupation numbers 
     1.0000   1.0000   1.0000   1.0000   1.0000   1.0000   1.0000   1.0000
     1.0000   1.0000   1.0000   1.0000   1.0000   1.0000   1.0000   1.0000
     1.0000   1.0000   1.0018   1.0074   1.0389   0.9395   0.3086   0.0000
     0.0000   0.0000

          k = 0.1111 0.3333 0.0000 ( 19287 PWs)   bands (ev):

   -49.9890 -49.9682 -49.9682 -34.1609 -19.1373 -19.1373 -19.1373 -16.7480
   -16.7444 -16.7439  -2.5567  -2.4861  -2.4363  -2.4284  -2.4267  -2.3038
    -2.2457  -2.2234  -2.1685  -2.1544  -2.1430  -2.1348  -2.1276  -2.1172
    -1.5090  -1.4891

     occupation numbers 
     1.0000   1.0000   1.0000   1.0000   1.0000   1.0000   1.0000   1.0000
     1.0000   1.0000   1.0000   1.0000   1.0000   1.0000   1.0000   1.0000
     1.0000   1.0000   1.0002   1.0158   1.0804   1.0016   0.6953   0.1892
     0.0000   0.0000

          k = 0.1111 0.3333 0.1106 ( 19273 PWs)   bands (ev):

   -49.9890 -49.9682 -49.9682 -34.1609 -19.1374 -19.1373 -19.1373 -16.7480
   -16.7444 -16.7439  -2.5586  -2.4982  -2.4405  -2.4310  -2.4266  -2.3173
    -2.2301  -2.2204  -2.1678  -2.1555  -2.1405  -2.1330  -2.1259  -2.1112
    -1.4998  -1.4859

     occupation numbers 
     1.0000   1.0000   1.0000   1.0000   1.0000   1.0000   1.0000   1.0000
     1.0000   1.0000   1.0000   1.0000   1.0000   1.0000   1.0000   1.0000
     1.0000   1.0000   1.0003   1.0123   1.0820   0.9440   0.5998   0.0568
     0.0000   0.0000

          k = 0.1111 0.3333 0.2212 ( 19266 PWs)   bands (ev):

   -49.9890 -49.9682 -49.9682 -34.1609 -19.1374 -19.1373 -19.1373 -16.7480
   -16.7445 -16.7439  -2.5680  -2.5229  -2.4501  -2.4372  -2.4265  -2.3318
    -2.2201  -2.2069  -2.1637  -2.1579  -2.1397  -2.1305  -2.1228  -2.0892
    -1.4852  -1.4712

     occupation numbers 
     1.0000   1.0000   1.0000   1.0000   1.0000   1.0000   1.0000   1.0000
     1.0000   1.0000   1.0000   1.0000   1.0000   1.0000   1.0000   1.0000
     1.0000   1.0000   1.0012   1.0067   1.0790   0.8432   0.4337   0.0000
     0.0000   0.0000

          k = 0.1111 0.3333 0.3318 ( 19282 PWs)   bands (ev):

   -49.9890 -49.9682 -49.9682 -34.1609 -19.1374 -19.1373 -19.1373 -16.7479
   -16.7445 -16.7439  -2.5894  -2.5366  -2.4600  -2.4434  -2.4265  -2.3387
    -2.2164  -2.1976  -2.1610  -2.1572  -2.1388  -2.1318  -2.1186  -2.0639
    -1.4774  -1.4577

     occupation numbers 
     1.0000   1.0000   1.0000   1.0000   1.0000   1.0000   1.0000   1.0000
     1.0000   1.0000   1.0000   1.0000   1.0000   1.0000   1.0000   1.0000
     1.0000   1.0000   1.0028   1.0080   1.0730   0.8998   0.2391   0.0000
     0.0000   0.0000

          k = 0.1111 0.3333 0.4424 ( 19263 PWs)   bands (ev):

   -49.9890 -49.9682 -49.9682 -34.1609 -19.1374 -19.1373 -19.1373 -16.7478
   -16.7446 -16.7439  -2.6069  -2.5403  -2.4661  -2.4473  -2.4265  -2.3412
    -2.2147  -2.1941  -2.1609  -2.1554  -2.1369  -2.1343  -2.1154  -2.0487
    -1.4723  -1.4599

     occupation numbers 
     1.0000   1.0000   1.0000   1.0000   1.0000   1.0000   1.0000   1.0000
     1.0000   1.0000   1.0000   1.0000   1.0000   1.0000   1.0000   1.0000
     1.0000   1.0000   1.0029   1.0126   1.0478   0.9877   0.1366   0.0000
     0.0000   0.0000

          k = 0.1111 0.4444 0.0000 ( 19268 PWs)   bands (ev):

   -49.9890 -49.9682 -49.9682 -34.1609 -19.1374 -19.1373 -19.1373 -16.7480
   -16.7443 -16.7441  -2.5782  -2.4861  -2.4397  -2.4312  -2.4282  -2.3045
    -2.2437  -2.2356  -2.1616  -2.1590  -2.1408  -2.1318  -2.1257  -2.1171
    -1.4973  -1.4822

     occupation numbers 
     1.0000   1.0000   1.0000   1.0000   1.0000   1.0000   1.0000   1.0000
     1.0000   1.0000   1.0000   1.0000   1.0000   1.0000   1.0000   1.0000
     1.0000   1.0000   1.0023   1.0050   1.0828   0.9001   0.5876   0.1889
     0.0000   0.0000

          k = 0.1111 0.4444 0.1106 ( 19272 PWs)   bands (ev):

   -49.9890 -49.9682 -49.9682 -34.1609 -19.1374 -19.1374 -19.1373 -16.7480
   -16.7443 -16.7441  -2.5793  -2.4989  -2.4445  -2.4312  -2.4306  -2.3188
    -2.2317  -2.2275  -2.1623  -2.1595  -2.1354  -2.1323  -2.1242  -2.1079
    -1.4899  -1.4791

     occupation numbers 
     1.0000   1.0000   1.0000   1.0000   1.0000   1.0000   1.0000   1.0000
     1.0000   1.0000   1.0000   1.0000   1.0000   1.0000   1.0000   1.0000
     1.0000   1.0000   1.0019   1.0043   1.0183   0.9184   0.5094   0.0246
     0.0000   0.0000

          k = 0.1111 0.4444 0.2212 ( 19265 PWs)   bands (ev):

   -49.9890 -49.9682 -49.9682 -34.1609 -19.1374 -19.1373 -19.1373 -16.7479
   -16.7443 -16.7441  -2.5840  -2.5280  -2.4552  -2.4375  -2.4305  -2.3346
    -2.2220  -2.2078  -2.1608  -2.1604  -2.1345  -2.1320  -2.1206  -2.0786
    -1.4786  -1.4645

     occupation numbers 
     1.0000   1.0000   1.0000   1.0000   1.0000   1.0000   1.0000   1.0000
     1.0000   1.0000   1.0000   1.0000   1.0000   1.0000   1.0000   1.0000
     1.0000   1.0000   1.0029   1.0034   0.9949   0.9060   0.3232   0.0000
     0.0000   0.0000

          k = 0.1111 0.4444 0.3318 ( 19257 PWs)   bands (ev):

   -49.9890 -49.9682 -49.9682 -34.1609 -19.1374 -19.1373 -19.1373 -16.7479
   -16.7443 -16.7441  -2.5965  -2.5508  -2.4661  -2.4439  -2.4305  -2.3422
    -2.2133  -2.1955  -2.1607  -2.1565  -2.1361  -2.1336  -2.1155  -2.0481
    -1.4720  -1.4600

     occupation numbers 
     1.0000   1.0000   1.0000   1.0000   1.0000   1.0000   1.0000   1.0000
     1.0000   1.0000   1.0000   1.0000   1.0000   1.0000   1.0000   1.0000
     1.0000   1.0000   1.0031   1.0097   1.0335   0.9659   0.1392   0.0000
     0.0000   0.0000

          k = 0.1111 0.4444 0.4424 ( 19261 PWs)   bands (ev):

   -49.9890 -49.9682 -49.9682 -34.1609 -19.1374 -19.1373 -19.1373 -16.7478
   -16.7443 -16.7441  -2.6102  -2.5584  -2.4727  -2.4478  -2.4305  -2.3450
    -2.2092  -2.1898  -2.1598  -2.1525  -2.1371  -2.1357  -2.1119  -2.0304
    -1.4698  -1.4675

     occupation numbers 
     1.0000   1.0000   1.0000   1.0000   1.0000   1.0000   1.0000   1.0000
     1.0000   1.0000   1.0000   1.0000   1.0000   1.0000   1.0000   1.0000
     1.0000   1.0000   1.0039   1.0235   1.0519   1.0259   0.0668   0.0000
     0.0000   0.0000

          k = 0.2222 0.2222 0.0000 ( 19297 PWs)   bands (ev):

   -49.9890 -49.9682 -49.9682 -34.1609 -19.1373 -19.1373 -19.1373 -16.7480
   -16.7445 -16.7438  -2.5264  -2.5147  -2.4330  -2.4304  -2.4286  -2.3170
    -2.2380  -2.2019  -2.1813  -2.1539  -2.1441  -2.1323  -2.1268  -2.1052
    -1.5037  -1.4809

     occupation numbers 
     1.0000   1.0000   1.0000   1.0000   1.0000   1.0000   1.0000   1.0000
     1.0000   1.0000   1.0000   1.0000   1.0000   1.0000   1.0000   1.0000
     1.0000   1.0000   1.0000   1.0175   1.0759   0.9195   0.6524   0.0116
     0.0000   0.0000

          k = 0.2222 0.2222 0.1106 ( 19284 PWs)   bands (ev):

   -49.9890 -49.9682 -49.9682 -34.1609 -19.1374 -19.1373 -19.1373 -16.7480
   -16.7445 -16.7438  -2.5264  -2.5256  -2.4375  -2.4327  -2.4279  -2.3364
    -2.2174  -2.1993  -2.1793  -2.1531  -2.1470  -2.1253  -2.1249  -2.1056
    -1.4951  -1.4818

     occupation numbers 
     1.0000   1.0000   1.0000   1.0000   1.0000   1.0000   1.0000   1.0000
     1.0000   1.0000   1.0000   1.0000   1.0000   1.0000   1.0000   1.0000
     1.0000   1.0000   1.0000   1.0209   1.0577   0.5680   0.5456   0.0131
     0.0000   0.0000

          k = 0.2222 0.2222 0.2212 ( 19283 PWs)   bands (ev):

   -49.9890 -49.9682 -49.9682 -34.1609 -19.1374 -19.1373 -19.1373 -16.7480
   -16.7445 -16.7438  -2.5541  -2.5264  -2.4469  -2.4383  -2.4273  -2.3592
    -2.2120  -2.1753  -2.1740  -2.1513  -2.1504  -2.1221  -2.1072  -2.1070
    -1.4776  -1.4776

     occupation numbers 
     1.0000   1.0000   1.0000   1.0000   1.0000   1.0000   1.0000   1.0000
     1.0000   1.0000   1.0000   1.0000   1.0000   1.0000   1.0000   1.0000
     1.0000   1.0000   1.0000   1.0299   1.0347   0.3946   0.0206   0.0193
     0.0000   0.0000

          k = 0.2222 0.2222 0.3318 ( 19255 PWs)   bands (ev):

   -49.9890 -49.9682 -49.9682 -34.1609 -19.1374 -19.1373 -19.1373 -16.7479
   -16.7446 -16.7438  -2.5856  -2.5265  -2.4559  -2.4444  -2.4268  -2.3710
    -2.2133  -2.1731  -2.1627  -2.1524  -2.1402  -2.1198  -2.1093  -2.0859
    -1.4721  -1.4707

     occupation numbers 
     1.0000   1.0000   1.0000   1.0000   1.0000   1.0000   1.0000   1.0000
     1.0000   1.0000   1.0000   1.0000   1.0000   1.0000   1.0000   1.0000
     1.0000   1.0000   1.0017   1.0243   1.0812   0.2916   0.0358   0.0000
     0.0000   0.0000

          k = 0.2222 0.2222 0.4424 ( 19273 PWs)   bands (ev):

   -49.9890 -49.9682 -49.9682 -34.1609 -19.1374 -19.1373 -19.1373 -16.7478
   -16.7446 -16.7438  -2.6053  -2.5265  -2.4612  -2.4482  -2.4266  -2.3757
    -2.2137  -2.1731  -2.1626  -2.1513  -2.1316  -2.1178  -2.1120  -2.0720
    -1.4658  -1.4483

     occupation numbers 
     1.0000   1.0000   1.0000   1.0000   1.0000   1.0000   1.0000   1.0000
     1.0000   1.0000   1.0000   1.0000   1.0000   1.0000   1.0000   1.0000
     1.0000   1.0000   1.0017   1.0297   0.8907   0.2120   0.0675   0.0000
     0.0000   0.0000

          k = 0.2222 0.3333 0.0000 ( 19278 PWs)   bands (ev):

   -49.9890 -49.9682 -49.9682 -34.1609 -19.1373 -19.1373 -19.1373 -16.7480
   -16.7444 -16.7439  -2.5584  -2.5181  -2.4376  -2.4367  -2.4319  -2.3241
    -2.2316  -2.2140  -2.1659  -2.1591  -2.1439  -2.1339  -2.1233  -2.0894
    -1.4875  -1.4733

     occupation numbers 
     1.0000   1.0000   1.0000   1.0000   1.0000   1.0000   1.0000   1.0000
     1.0000   1.0000   1.0000   1.0000   1.0000   1.0000   1.0000   1.0000
     1.0000   1.0000   1.0005   1.0048   1.0768   0.9746   0.4580   0.0000
     0.0000   0.0000

          k = 0.2222 0.3333 0.1106 ( 19269 PWs)   bands (ev):

   -49.9890 -49.9682 -49.9682 -34.1609 -19.1374 -19.1373 -19.1373 -16.7480
   -16.7444 -16.7439  -2.5597  -2.5257  -2.4419  -2.4360  -2.4345  -2.3477
    -2.2180  -2.2000  -2.1650  -2.1586  -2.1429  -2.1271  -2.1215  -2.0890
    -1.4823  -1.4731

     occupation numbers 
     1.0000   1.0000   1.0000   1.0000   1.0000   1.0000   1.0000   1.0000
     1.0000   1.0000   1.0000   1.0000   1.0000   1.0000   1.0000   1.0000
     1.0000   1.0000   1.0007   1.0056   1.0807   0.6679   0.3677   0.0000
     0.0000   0.0000

          k = 0.2222 0.3333 0.2212 ( 19267 PWs)   bands (ev):

   -49.9890 -49.9682 -49.9682 -34.1609 -19.1374 -19.1373 -19.1373 -16.7479
   -16.7444 -16.7439  -2.5679  -2.5422  -2.4510  -2.4415  -2.4346  -2.3770
    -2.2115  -2.1721  -2.1624  -2.1559  -2.1400  -2.1187  -2.1087  -2.0841
    -1.4716  -1.4692

     occupation numbers 
     1.0000   1.0000   1.0000   1.0000   1.0000   1.0000   1.0000   1.0000
     1.0000   1.0000   1.0000   1.0000   1.0000   1.0000   1.0000   1.0000
     1.0000   1.0000   1.0018   1.0112   1.0804   0.2457   0.0303   0.0000
     0.0000   0.0000

          k = 0.2222 0.3333 0.3318 ( 19261 PWs)   bands (ev):

   -49.9890 -49.9682 -49.9682 -34.1609 -19.1374 -19.1373 -19.1373 -16.7479
   -16.7445 -16.7439  -2.5900  -2.5494  -2.4600  -2.4483  -2.4338  -2.3927
    -2.2060  -2.1669  -2.1613  -2.1439  -2.1342  -2.1156  -2.1018  -2.0645
    -1.4672  -1.4600

     occupation numbers 
     1.0000   1.0000   1.0000   1.0000   1.0000   1.0000   1.0000   1.0000
     1.0000   1.0000   1.0000   1.0000   1.0000   1.0000   1.0000   1.0000
     1.0000   1.0004   1.0025   1.0766   0.9851   0.1440   0.0040   0.0000
     0.0000   0.0000

          k = 0.2222 0.3333 0.4424 ( 19267 PWs)   bands (ev):

   -49.9890 -49.9682 -49.9682 -34.1609 -19.1374 -19.1373 -19.1373 -16.7478
   -16.7445 -16.7439  -2.6075  -2.5509  -2.4654  -2.4525  -2.4333  -2.3989
    -2.2023  -2.1670  -2.1618  -2.1373  -2.1287  -2.1134  -2.1027  -2.0484
    -1.4630  -1.4601

     occupation numbers 
     1.0000   1.0000   1.0000   1.0000   1.0000   1.0000   1.0000   1.0000
     1.0000   1.0000   1.0000   1.0000   1.0000   1.0000   1.0000   1.0000
     1.0000   1.0004   1.0022   1.0543   0.7499   0.0916   0.0054   0.0000
     0.0000   0.0000

          k = 0.2222 0.4444 0.0000 ( 19261 PWs)   bands (ev):

   -49.9890 -49.9682 -49.9682 -34.1609 -19.1373 -19.1373 -19.1373 -16.7480
   -16.7443 -16.7441  -2.5792  -2.5182  -2.4432  -2.4399  -2.4322  -2.3268
    -2.2272  -2.2224  -2.1631  -2.1613  -2.1414  -2.1349  -2.1201  -2.0796
    -1.4808  -1.4660

     occupation numbers 
     1.0000   1.0000   1.0000   1.0000   1.0000   1.0000   1.0000   1.0000
     1.0000   1.0000   1.0000   1.0000   1.0000   1.0000   1.0000   1.0000
     1.0000   1.0000   1.0015   1.0025   1.0833   1.0056   0.3025   0.0000
     0.0000   0.0000

          k = 0.2222 0.4444 0.1106 ( 19257 PWs)   bands (ev):

   -49.9890 -49.9682 -49.9682 -34.1609 -19.1374 -19.1373 -19.1373 -16.7479
   -16.7443 -16.7441  -2.5800  -2.5256  -2.4460  -2.4402  -2.4353  -2.3520
    -2.2207  -2.1992  -2.1633  -2.1613  -2.1355  -2.1301  -2.1190  -2.0783
    -1.4759  -1.4663

     occupation numbers 
     1.0000   1.0000   1.0000   1.0000   1.0000   1.0000   1.0000   1.0000
     1.0000   1.0000   1.0000   1.0000   1.0000   1.0000   1.0000   1.0000
     1.0000   1.0000   1.0013   1.0025   1.0197   0.8205   0.2549   0.0000
     0.0000   0.0000

          k = 0.2222 0.4444 0.2212 ( 19264 PWs)   bands (ev):

   -49.9890 -49.9682 -49.9682 -34.1609 -19.1374 -19.1373 -19.1373 -16.7479
   -16.7443 -16.7441  -2.5841  -2.5450  -2.4542  -2.4429  -2.4392  -2.3837
    -2.2109  -2.1720  -2.1617  -2.1575  -2.1311  -2.1164  -2.1104  -2.0697
    -1.4654  -1.4639

     occupation numbers 
     1.0000   1.0000   1.0000   1.0000   1.0000   1.0000   1.0000   1.0000
[...]
    -2.2062  -2.1672  -2.1614  -2.1439  -2.1342  -2.1157  -2.1019  -2.0648
    -1.4669  -1.4597

     occupation numbers 
     1.0000   1.0000   1.0000   1.0000   1.0000   1.0000   1.0000   1.0000
     1.0000   1.0000   1.0000   1.0000   1.0000   1.0000   1.0000   1.0000
     1.0000   1.0003   1.0024   1.0764   0.9872   0.1464   0.0041   0.0000
     0.0000   0.0000

          k = 0.2222 0.3333 0.4424 ( 19267 PWs)   bands (ev):

   -49.9914 -49.9690 -49.9690 -34.1605 -19.1370 -19.1369 -19.1369 -16.7483
   -16.7445 -16.7439  -2.6098  -2.5512  -2.4667  -2.4538  -2.4336  -2.3990
    -2.2025  -2.1672  -2.1619  -2.1372  -2.1287  -2.1134  -2.1028  -2.0488
    -1.4626  -1.4597

     occupation numbers 
     1.0000   1.0000   1.0000   1.0000   1.0000   1.0000   1.0000   1.0000
     1.0000   1.0000   1.0000   1.0000   1.0000   1.0000   1.0000   1.0000
     1.0000   1.0003   1.0021   1.0540   0.7540   0.0938   0.0057   0.0000
     0.0000   0.0000

          k = 0.2222 0.4444 0.0000 ( 19261 PWs)   bands (ev):

   -49.9914 -49.9690 -49.9690 -34.1605 -19.1370 -19.1369 -19.1369 -16.7484
   -16.7442 -16.7441  -2.5796  -2.5199  -2.4436  -2.4412  -2.4337  -2.3289
    -2.2269  -2.2220  -2.1631  -2.1614  -2.1412  -2.1349  -2.1201  -2.0798
    -1.4804  -1.4656

     occupation numbers 
     1.0000   1.0000   1.0000   1.0000   1.0000   1.0000   1.0000   1.0000
     1.0000   1.0000   1.0000   1.0000   1.0000   1.0000   1.0000   1.0000
     1.0000   1.0000   1.0014   1.0025   1.0833   1.0062   0.3029   0.0000
     0.0000   0.0000

          k = 0.2222 0.4444 0.1106 ( 19257 PWs)   bands (ev):

   -49.9914 -49.9690 -49.9690 -34.1605 -19.1370 -19.1369 -19.1369 -16.7484
   -16.7443 -16.7441  -2.5805  -2.5273  -2.4470  -2.4408  -2.4368  -2.3533
    -2.2208  -2.1992  -2.1633  -2.1614  -2.1355  -2.1298  -2.1189  -2.0784
    -1.4756  -1.4659

     occupation numbers 
     1.0000   1.0000   1.0000   1.0000   1.0000   1.0000   1.0000   1.0000
     1.0000   1.0000   1.0000   1.0000   1.0000   1.0000   1.0000   1.0000
     1.0000   1.0000   1.0013   1.0025   1.0212   0.8087   0.2557   0.0000
     0.0000   0.0000

          k = 0.2222 0.4444 0.2212 ( 19264 PWs)   bands (ev):

   -49.9914 -49.9690 -49.9690 -34.1605 -19.1370 -19.1370 -19.1369 -16.7483
   -16.7443 -16.7441  -2.5850  -2.5464  -2.4554  -2.4443  -2.4396  -2.3843
    -2.2110  -2.1723  -2.1617  -2.1574  -2.1311  -2.1164  -2.1102  -2.0699
    -1.4650  -1.4635

     occupation numbers 
     1.0000   1.0000   1.0000   1.0000   1.0000   1.0000   1.0000   1.0000
     1.0000   1.0000   1.0000   1.0000   1.0000   1.0000   1.0000   1.0000
     1.0000   1.0000   1.0022   1.0076   0.8725   0.1681   0.0454   0.0000
     0.0000   0.0000

          k = 0.2222 0.4444 0.3318 ( 19262 PWs)   bands (ev):

   -49.9914 -49.9690 -49.9690 -34.1605 -19.1370 -19.1370 -19.1369 -16.7483
   -16.7443 -16.7441  -2.5983  -2.5619  -2.4644  -2.4519  -2.4384  -2.4009
    -2.2012  -2.1675  -2.1616  -2.1407  -2.1272  -2.1130  -2.1021  -2.0479
    -1.4623  -1.4599

     occupation numbers 
     1.0000   1.0000   1.0000   1.0000   1.0000   1.0000   1.0000   1.0000
     1.0000   1.0000   1.0000   1.0000   1.0000   1.0000   1.0000   1.0000
     1.0000   1.0003   1.0023   1.0827   0.6762   0.0854   0.0045   0.0000
     0.0000   0.0000

          k = 0.2222 0.4444 0.4424 ( 19277 PWs)   bands (ev):

   -49.9914 -49.9690 -49.9690 -34.1605 -19.1370 -19.1370 -19.1369 -16.7483
   -16.7443 -16.7441  -2.6126  -2.5665  -2.4699  -2.4562  -2.4376  -2.4073
    -2.1955  -2.1665  -2.1613  -2.1289  -2.1254  -2.1103  -2.1031  -2.0309
    -1.4701  -1.4570

     occupation numbers 
     1.0000   1.0000   1.0000   1.0000   1.0000   1.0000   1.0000   1.0000
     1.0000   1.0000   1.0000   1.0000   1.0000   1.0000   1.0000   1.0000
     1.0000   1.0004   1.0025   0.7626   0.5742   0.0459   0.0062   0.0000
     0.0000   0.0000

          k = 0.3333 0.3333 0.0000 ( 19266 PWs)   bands (ev):

   -49.9914 -49.9690 -49.9690 -34.1605 -19.1369 -19.1369 -19.1369 -16.7484
   -16.7443 -16.7440  -2.5674  -2.5455  -2.4489  -2.4391  -2.4379  -2.3367
    -2.2216  -2.2101  -2.1626  -2.1621  -2.1441  -2.1364  -2.1176  -2.0621
    -1.4786  -1.4570

     occupation numbers 
     1.0000   1.0000   1.0000   1.0000   1.0000   1.0000   1.0000   1.0000
     1.0000   1.0000   1.0000   1.0000   1.0000   1.0000   1.0000   1.0000
     1.0000   1.0000   1.0017   1.0020   1.0756   1.0396   0.2046   0.0000
     0.0000   0.0000

          k = 0.3333 0.3333 0.1106 ( 19272 PWs)   bands (ev):

   -49.9914 -49.9690 -49.9690 -34.1605 -19.1369 -19.1369 -19.1369 -16.7484
   -16.7443 -16.7440  -2.5674  -2.5517  -2.4489  -2.4417  -2.4404  -2.3648
    -2.2133  -2.1862  -2.1622  -2.1618  -2.1416  -2.1284  -2.1165  -2.0624
    -1.4747  -1.4576

     occupation numbers 
     1.0000   1.0000   1.0000   1.0000   1.0000   1.0000   1.0000   1.0000
     1.0000   1.0000   1.0000   1.0000   1.0000   1.0000   1.0000   1.0000
     1.0000   1.0000   1.0019   1.0021   1.0833   0.7387   0.1696   0.0000
     0.0000   0.0000

          k = 0.3333 0.3333 0.2212 ( 19281 PWs)   bands (ev):

   -49.9914 -49.9690 -49.9690 -34.1605 -19.1370 -19.1369 -19.1369 -16.7483
   -16.7443 -16.7440  -2.5701  -2.5674  -2.4539  -2.4465  -2.4434  -2.4031
    -2.2046  -2.1634  -2.1630  -2.1470  -2.1349  -2.1141  -2.1013  -2.0631
    -1.4660  -1.4594

     occupation numbers 
     1.0000   1.0000   1.0000   1.0000   1.0000   1.0000   1.0000   1.0000
     1.0000   1.0000   1.0000   1.0000   1.0000   1.0000   1.0000   1.0000
     1.0000   1.0013   1.0015   1.0570   1.0054   0.1081   0.0034   0.0000
     0.0000   0.0000

          k = 0.3333 0.3333 0.3318 ( 19287 PWs)   bands (ev):

   -49.9914 -49.9690 -49.9690 -34.1605 -19.1370 -19.1369 -19.1369 -16.7483
   -16.7444 -16.7440  -2.5944  -2.5673  -2.4626  -2.4531  -2.4419  -2.4249
    -2.1951  -2.1639  -2.1619  -2.1290  -2.1269  -2.1119  -2.0662  -2.0643
    -1.4629  -1.4594

     occupation numbers 
     1.0000   1.0000   1.0000   1.0000   1.0000   1.0000   1.0000   1.0000
     1.0000   1.0000   1.0000   1.0000   1.0000   1.0000   1.0000   1.0000
     1.0000   1.0011   1.0021   0.7689   0.6597   0.0668   0.0000   0.0000
     0.0000   0.0000

          k = 0.3333 0.3333 0.4424 ( 19243 PWs)   bands (ev):

   -49.9914 -49.9690 -49.9690 -34.1605 -19.1370 -19.1369 -19.1369 -16.7483
   -16.7444 -16.7440  -2.6113  -2.5673  -2.4678  -2.4572  -2.4411  -2.4332
    -2.1885  -2.1643  -2.1619  -2.1218  -2.1205  -2.1105  -2.0652  -2.0450
    -1.4626  -1.4602

     occupation numbers 
     1.0000   1.0000   1.0000   1.0000   1.0000   1.0000   1.0000   1.0000
     1.0000   1.0000   1.0000   1.0000   1.0000   1.0000   1.0000   1.0000
     1.0000   1.0009   1.0021   0.3831   0.3235   0.0483   0.0000   0.0000
     0.0000   0.0000

          k = 0.3333 0.4444 0.0000 ( 19246 PWs)   bands (ev):

   -49.9914 -49.9690 -49.9690 -34.1605 -19.1370 -19.1369 -19.1369 -16.7483
   -16.7442 -16.7441  -2.5826  -2.5510  -2.4556  -2.4418  -2.4387  -2.3409
    -2.2160  -2.2101  -2.1629  -2.1616  -2.1425  -2.1391  -2.1138  -2.0467
    -1.4733  -1.4601

     occupation numbers 
     1.0000   1.0000   1.0000   1.0000   1.0000   1.0000   1.0000   1.0000
     1.0000   1.0000   1.0000   1.0000   1.0000   1.0000   1.0000   1.0000
     1.0000   1.0000   1.0015   1.0023   1.0818   1.0758   0.1006   0.0000
     0.0000   0.0000

          k = 0.3333 0.4444 0.1106 ( 19260 PWs)   bands (ev):

   -49.9914 -49.9690 -49.9690 -34.1605 -19.1370 -19.1369 -19.1369 -16.7483
   -16.7442 -16.7441  -2.5829  -2.5558  -2.4547  -2.4444  -2.4415  -2.3711
    -2.2109  -2.1803  -2.1629  -2.1622  -2.1376  -2.1320  -2.1130  -2.0467
    -1.4694  -1.4603

     occupation numbers 
     1.0000   1.0000   1.0000   1.0000   1.0000   1.0000   1.0000   1.0000
     1.0000   1.0000   1.0000   1.0000   1.0000   1.0000   1.0000   1.0000
     1.0000   1.0000   1.0015   1.0019   1.0600   0.9109   0.0853   0.0000
     0.0000   0.0000

          k = 0.3333 0.4444 0.2212 ( 19276 PWs)   bands (ev):

   -49.9914 -49.9690 -49.9690 -34.1605 -19.1370 -19.1370 -19.1369 -16.7483
   -16.7442 -16.7441  -2.5854  -2.5690  -2.4553  -2.4488  -2.4481  -2.4133
    -2.1997  -2.1647  -2.1627  -2.1419  -2.1286  -2.1111  -2.1022  -2.0464
    -1.4624  -1.4592

     occupation numbers 
     1.0000   1.0000   1.0000   1.0000   1.0000   1.0000   1.0000   1.0000
     1.0000   1.0000   1.0000   1.0000   1.0000   1.0000   1.0000   1.0000
     1.0000   1.0008   1.0016   1.0830   0.7516   0.0563   0.0046   0.0000
     0.0000   0.0000

          k = 0.3333 0.4444 0.3318 ( 19252 PWs)   bands (ev):

   -49.9914 -49.9690 -49.9690 -34.1605 -19.1370 -19.1370 -19.1369 -16.7483
   -16.7442 -16.7441  -2.5989  -2.5777  -2.4621  -2.4573  -2.4466  -2.4371
    -2.1871  -2.1643  -2.1622  -2.1248  -2.1193  -2.1092  -2.0665  -2.0428
    -1.4637  -1.4599

     occupation numbers 
     1.0000   1.0000   1.0000   1.0000   1.0000   1.0000   1.0000   1.0000
     1.0000   1.0000   1.0000   1.0000   1.0000   1.0000   1.0000   1.0000
     1.0000   1.0010   1.0019   0.5406   0.2718   0.0351   0.0000   0.0000
     0.0000   0.0000

          k = 0.3333 0.4444 0.4424 ( 19272 PWs)   bands (ev):

   -49.9914 -49.9690 -49.9690 -34.1605 -19.1370 -19.1369 -19.1369 -16.7483
   -16.7443 -16.7441  -2.6135  -2.5791  -2.4674  -2.4625  -2.4463  -2.4445
    -2.1790  -2.1640  -2.1616  -2.1161  -2.1136  -2.1080  -2.0557  -2.0310
    -1.4712  -1.4616

     occupation numbers 
     1.0000   1.0000   1.0000   1.0000   1.0000   1.0000   1.0000   1.0000
     1.0000   1.0000   1.0000   1.0000   1.0000   1.0000   1.0000   1.0000
     1.0000   1.0011   1.0023   0.1593   0.0969   0.0258   0.0000   0.0000
     0.0000   0.0000

          k = 0.4444 0.4444 0.0000 ( 19242 PWs)   bands (ev):

   -49.9914 -49.9690 -49.9690 -34.1605 -19.1370 -19.1370 -19.1369 -16.7483
   -16.7442 -16.7442  -2.5891  -2.5652  -2.4629  -2.4421  -2.4420  -2.3457
    -2.2111  -2.2036  -2.1619  -2.1611  -2.1431  -2.1420  -2.1098  -2.0285
    -1.4703  -1.4685

     occupation numbers 
     1.0000   1.0000   1.0000   1.0000   1.0000   1.0000   1.0000   1.0000
     1.0000   1.0000   1.0000   1.0000   1.0000   1.0000   1.0000   1.0000
     1.0000   1.0000   1.0021   1.0026   1.0798   1.0828   0.0405   0.0000
     0.0000   0.0000

          k = 0.4444 0.4444 0.1106 ( 19244 PWs)   bands (ev):

   -49.9914 -49.9690 -49.9690 -34.1605 -19.1370 -19.1370 -19.1369 -16.7483
   -16.7442 -16.7442  -2.5891  -2.5691  -2.4612  -2.4448  -2.4445  -2.3781
    -2.2059  -2.1691  -2.1623  -2.1622  -2.1380  -2.1358  -2.1091  -2.0285
    -1.4703  -1.4650

     occupation numbers 
     1.0000   1.0000   1.0000   1.0000   1.0000   1.0000   1.0000   1.0000
     1.0000   1.0000   1.0000   1.0000   1.0000   1.0000   1.0000   1.0000
     1.0000   1.0002   1.0018   1.0019   1.0655   1.0289   0.0342   0.0000
     0.0000   0.0000

          k = 0.4444 0.4444 0.2212 ( 19258 PWs)   bands (ev):

   -49.9914 -49.9690 -49.9690 -34.1605 -19.1370 -19.1370 -19.1370 -16.7483
   -16.7442 -16.7442  -2.5891  -2.5817  -2.4573  -2.4513  -2.4509  -2.4258
    -2.1928  -2.1635  -2.1632  -2.1298  -2.1269  -2.1074  -2.1038  -2.0286
    -1.4711  -1.4555

     occupation numbers 
     1.0000   1.0000   1.0000   1.0000   1.0000   1.0000   1.0000   1.0000
     1.0000   1.0000   1.0000   1.0000   1.0000   1.0000   1.0000   1.0000
     1.0000   1.0012   1.0013   0.8118   0.6606   0.0221   0.0077   0.0000
     0.0000   0.0000

          k = 0.4444 0.4444 0.3318 ( 19274 PWs)   bands (ev):

   -49.9914 -49.9690 -49.9690 -34.1605 -19.1370 -19.1369 -19.1369 -16.7483
   -16.7442 -16.7442  -2.6005  -2.5890  -2.4619  -2.4577  -2.4540  -2.4517
    -2.1774  -2.1633  -2.1630  -2.1164  -2.1155  -2.1057  -2.0575  -2.0287
    -1.4722  -1.4617

     occupation numbers 
     1.0000   1.0000   1.0000   1.0000   1.0000   1.0000   1.0000   1.0000
     1.0000   1.0000   1.0000   1.0000   1.0000   1.0000   1.0000   1.0000
     1.0000   1.0013   1.0015   0.1679   0.1408   0.0134   0.0000   0.0000
     0.0000   0.0000

          k = 0.4444 0.4444 0.4424 ( 19306 PWs)   bands (ev):

   -49.9914 -49.9690 -49.9690 -34.1605 -19.1370 -19.1369 -19.1369 -16.7483
   -16.7442 -16.7442  -2.6149  -2.5890  -2.4715  -2.4620  -2.4610  -2.4495
    -2.1675  -2.1631  -2.1618  -2.1089  -2.1080  -2.1049  -2.0320  -2.0288
    -1.4726  -1.4713

     occupation numbers 
     1.0000   1.0000   1.0000   1.0000   1.0000   1.0000   1.0000   1.0000
     1.0000   1.0000   1.0000   1.0000   1.0000   1.0000   1.0000   1.0000
     1.0003   1.0014   1.0021   0.0328   0.0254   0.0108   0.0000   0.0000
     0.0000   0.0000

     the Fermi energy is    -2.1221 ev

!    total energy              =    -364.47940582 Ry
     Harris-Foulkes estimate   =    -364.47940582 Ry
     estimated scf accuracy    <          6.1E-11 Ry

     The total energy is the sum of the following terms:

     one-electron contribution =    -323.25407888 Ry
     hartree contribution      =     171.04189653 Ry
     xc contribution           =     -79.52054559 Ry
     ewald contribution        =    -132.74670900 Ry
     smearing contrib. (-TS)   =       0.00003112 Ry

     convergence has been achieved in  18 iterations

     negative rho (up, down):  1.667E-01 0.000E+00

     Forces acting on atoms (cartesian axes, Ry/au):

     atom    1 type  1   force =     0.00000000    0.00000000   -0.00339379
     atom    2 type  3   force =     0.00000000    0.00000000   -0.00865021
     atom    3 type  2   force =     0.00000000    0.00000000    0.01064615
     atom    4 type  2   force =     0.00000000    0.00000000    0.00069892
     atom    5 type  2   force =     0.00000000    0.00000000    0.00069892
     The non-local contrib.  to forces
     atom    1 type  1   force =     0.00000000    0.00000000    0.00348575
     atom    2 type  3   force =     0.00000000    0.00000000    0.03057667
     atom    3 type  2   force =     0.00000000    0.00000000    0.05806696
     atom    4 type  2   force =     0.00000000    0.00000000    0.00177262
     atom    5 type  2   force =     0.00000000    0.00000000    0.00177262
     The ionic contribution  to forces
     atom    1 type  1   force =     0.00000000    0.00000000   -0.00456070
     atom    2 type  3   force =    -0.00000000   -0.00000000    0.53057548
     atom    3 type  2   force =     0.00000000    0.00000000   -1.02872168
     atom    4 type  2   force =     0.00000000   -0.00000000    0.25135345
     atom    5 type  2   force =    -0.00000000    0.00000000    0.25135345
     The local contribution  to forces
     atom    1 type  1   force =    -0.00000000   -0.00000000   -0.00233546
     atom    2 type  3   force =     0.00000000    0.00000000   -0.56939435
     atom    3 type  2   force =     0.00000000    0.00000000    0.98184144
     atom    4 type  2   force =     0.00000000    0.00000000   -0.25242040
     atom    5 type  2   force =     0.00000000    0.00000000   -0.25242040
     The core correction contribution to forces
     atom    1 type  1   force =     0.00000000    0.00000000    0.00001539
     atom    2 type  3   force =     0.00000000    0.00000000   -0.00041318
     atom    3 type  2   force =     0.00000000    0.00000000   -0.00054189
     atom    4 type  2   force =     0.00000000    0.00000000   -0.00000815
     atom    5 type  2   force =     0.00000000    0.00000000   -0.00000815
     The Hubbard contrib.    to forces
     atom    1 type  1   force =     0.00000000    0.00000000    0.00000000
     atom    2 type  3   force =     0.00000000    0.00000000    0.00000000
     atom    3 type  2   force =     0.00000000    0.00000000    0.00000000
     atom    4 type  2   force =     0.00000000    0.00000000    0.00000000
     atom    5 type  2   force =     0.00000000    0.00000000    0.00000000
     The SCF correction term to forces
     atom    1 type  1   force =    -0.00000000   -0.00000000   -0.00000031
     atom    2 type  3   force =     0.00000000   -0.00000000    0.00000364
     atom    3 type  2   force =     0.00000000    0.00000000   -0.00000022
     atom    4 type  2   force =    -0.00000000   -0.00000000   -0.00000013
     atom    5 type  2   force =    -0.00000000    0.00000000   -0.00000013

     Total force =     0.014165     Total SCF correction =     0.000004

     bfgs converged in   8 scf cycles and   4 bfgs steps
     (criteria: energy <  1.0E-04 Ry, force <  1.0E-03 Ry/Bohr)

     End of BFGS Geometry Optimization

     Final energy   =    -364.4794058227 Ry
Begin final coordinates

ATOMIC_POSITIONS (crystal)
Ba       0.000000000   0.000000000  -0.000646954
Pd       0.500000000   0.500000000   0.481530580
O        0.500000000   0.500000000   0.016703890
O        0.500000000   0.000000000   0.515206242
O        0.000000000   0.500000000   0.515206242
End final coordinates


 
     init_run     :      3.01s CPU      3.22s WALL (       1 calls)
     electrons    :    490.39s CPU    511.69s WALL (       3 calls)
     update_pot   :      0.77s CPU      0.77s WALL (       2 calls)
     forces       :      2.49s CPU      2.57s WALL (       3 calls)

     Called by init_run:
     wfcinit      :      2.36s CPU      2.44s WALL (       1 calls)
     wfcinit:atom :      0.03s CPU      0.03s WALL (      75 calls)
     wfcinit:wfcr :      2.15s CPU      2.22s WALL (      75 calls)
     potinit      :      0.12s CPU      0.12s WALL (       1 calls)
     hinit0       :      0.38s CPU      0.47s WALL (       1 calls)

     Called by electrons:
     c_bands      :    411.57s CPU    428.10s WALL (      85 calls)
     sum_band     :     70.24s CPU     73.35s WALL (      85 calls)
     v_of_rho     :      1.00s CPU      1.02s WALL (      87 calls)
     v_h          :      0.06s CPU      0.06s WALL (      87 calls)
     v_xc         :      0.97s CPU      0.99s WALL (      90 calls)
     newd         :      7.41s CPU      9.05s WALL (      87 calls)
     mix_rho      :      0.38s CPU      0.39s WALL (      85 calls)

     Called by c_bands:
     init_us_2    :     11.54s CPU     11.73s WALL (   13050 calls)
     cegterg      :    372.43s CPU    388.68s WALL (    6375 calls)

     Called by sum_band:
     sum_band:bec :      0.30s CPU      0.30s WALL (    6375 calls)
     addusdens    :      7.17s CPU      9.05s WALL (      85 calls)

     Called by *egterg:
     h_psi        :    242.24s CPU    247.18s WALL (   20929 calls)
     s_psi        :     10.24s CPU     10.34s WALL (   20929 calls)
     g_psi        :      1.83s CPU      1.85s WALL (   14479 calls)
     cdiaghg      :     74.23s CPU     81.28s WALL (   20629 calls)
     cegterg:over :     17.84s CPU     21.87s WALL (   14479 calls)
     cegterg:upda :     12.21s CPU     12.32s WALL (   14479 calls)
     cegterg:last :      5.15s CPU      5.19s WALL (    6403 calls)
     cdiaghg:chol :      3.35s CPU      3.44s WALL (   20629 calls)
     cdiaghg:inve :      2.23s CPU      2.26s WALL (   20629 calls)
     cdiaghg:para :      4.29s CPU      4.34s WALL (   41258 calls)

     Called by h_psi:
     h_psi:pot    :    240.72s CPU    245.63s WALL (   20929 calls)
     h_psi:calbec :     12.83s CPU     13.03s WALL (   20929 calls)
     vloc_psi     :    217.22s CPU    221.83s WALL (   20929 calls)
     add_vuspsi   :     10.54s CPU     10.67s WALL (   20929 calls)

     General routines
     calbec       :     17.98s CPU     18.29s WALL (   28204 calls)
     fft          :      0.71s CPU      0.76s WALL (     996 calls)
     ffts         :      0.05s CPU      0.05s WALL (      85 calls)
     fftw         :    239.27s CPU    244.27s WALL (  919992 calls)
 
     Parallel routines
     fft_scatt_xy :     25.27s CPU     25.84s WALL (  921073 calls)
     fft_scatt_yz :     96.39s CPU     98.70s WALL (  921073 calls)
 
     PWSCF        :  8m16.89s CPU     8m38.68s WALL

 
   This run was terminated on:   2: 4:27  21Mar2019            

=------------------------------------------------------------------------------=
   JOB DONE.
=------------------------------------------------------------------------------=
