
     Program PWSCF v.6.3MaX starts on  8Mar2019 at  6:41:32 

     This program is part of the open-source Quantum ESPRESSO suite
     for quantum simulation of materials; please cite
         "P. Giannozzi et al., J. Phys.:Condens. Matter 21 395502 (2009);
         "P. Giannozzi et al., J. Phys.:Condens. Matter 29 465901 (2017);
          URL http://www.quantum-espresso.org", 
     in publications or presentations arising from this work. More details at
     http://www.quantum-espresso.org/quote

     Parallel version (MPI & OpenMP), running on      20 processor cores
     Number of MPI processes:                20
     Threads/MPI process:                     1

     MPI processes distributed on     1 nodes
     R & G space division:  proc/nbgrp/npool/nimage =      20
     Reading input from /home/azadoks/dftman/projects/ABO3 Tetragonal/PBSJobs/SrCuO3221_03dc09ae3521/pwscf.in
Warning: card &CELL ignored
Warning: card / ignored

     Current dimensions of program PWSCF are:
     Max number of different atomic species (ntypx) = 10
     Max number of k-points (npk) =  40000
     Max angular momentum in pseudopotentials (lmaxx) =  3
     Message from routine iosys:
     minimal I/O required, wf_collect reset to FALSE

     Subspace diagonalization in iterative solution of the eigenvalue problem:
     one sub-group per band group will be used
     scalapack distributed-memory algorithm (size of sub-group:  3*  3 procs)

 
     Parallelization info
     --------------------
     sticks:   dense  smooth     PW     G-vecs:    dense   smooth      PW
     Min          43      43     13                  953      953     155
     Max          44      44     14                  956      956     157
     Sum         861     861    261                19069    19069    3127
 


     bravais-lattice index     =            0
     lattice parameter (alat)  =       7.3476  a.u.
     unit-cell volume          =     398.4875 (a.u.)^3
     number of atoms/cell      =            5
     number of atomic types    =            3
     number of electrons       =        47.00
     number of Kohn-Sham states=           29
     kinetic-energy cutoff     =      50.0000  Ry
     charge density cutoff     =     200.0000  Ry
     convergence threshold     =      1.0E-08
     mixing beta               =       0.7000
     number of iterations used =            8  plain     mixing
     Exchange-correlation      = SLA  PW   PBE  PBE ( 1  4  3  4 0 0)
     nstep                     =           50


     celldm(1)=   7.347637  celldm(2)=   0.000000  celldm(3)=   0.000000
     celldm(4)=   0.000000  celldm(5)=   0.000000  celldm(6)=   0.000000

     crystal axes: (cart. coord. in units of alat)
               a(1) = (   1.000000   0.000000   0.000000 )  
               a(2) = (   0.000000   1.000000   0.000000 )  
               a(3) = (   0.000000   0.000000   1.004550 )  

     reciprocal axes: (cart. coord. in units 2 pi/alat)
               b(1) = (  1.000000  0.000000  0.000000 )  
               b(2) = (  0.000000  1.000000  0.000000 )  
               b(3) = (  0.000000  0.000000  0.995470 )  


     PseudoPot. # 1 for Cu read from file:
     /home/azadoks/.local/share/pseudo/GBRV_PBE_US/cu_pbe_v1.2.uspp.F.UPF
     MD5 check sum: 6e991ff952a84172a2a52a1c1e996048
     Pseudo is Ultrasoft + core correction, Zval = 19.0
     Generated by new atomic code, or converted to UPF format
     Using radial grid of  867 points,  6 beta functions with: 
                l(1) =   0
                l(2) =   0
                l(3) =   1
                l(4) =   1
                l(5) =   2
                l(6) =   2
     Q(r) pseudized with  8 coefficients,  rinner =    1.150   1.150   1.150
                                                       1.150   1.150

     PseudoPot. # 2 for O  read from file:
     /home/azadoks/.local/share/pseudo/GBRV_PBE_US/o_pbe_v1.2.uspp.F.UPF
     MD5 check sum: 734c27235a0248c51dbae37a1fbe46ec
     Pseudo is Ultrasoft + core correction, Zval =  6.0
     Generated by new atomic code, or converted to UPF format
     Using radial grid of  737 points,  5 beta functions with: 
                l(1) =   0
                l(2) =   0
                l(3) =   1
                l(4) =   1
                l(5) =   2
     Q(r) pseudized with  8 coefficients,  rinner =    0.900   0.900   0.900
                                                       0.900   0.900

     PseudoPot. # 3 for Sr read from file:
     /home/azadoks/.local/share/pseudo/GBRV_PBE_US/sr_pbe_v1.uspp.F.UPF
     MD5 check sum: 6b418c05fbe9db5448babca5e47b7a5b
     Pseudo is Ultrasoft + core correction, Zval = 10.0
     Generated by new atomic code, or converted to UPF format
     Using radial grid of  883 points,  6 beta functions with: 
                l(1) =   0
                l(2) =   0
                l(3) =   1
                l(4) =   1
                l(5) =   2
                l(6) =   2
     Q(r) pseudized with  6 coefficients,  rinner =    1.400   1.400   1.400
                                                       1.400   1.400

     atomic species   valence    mass     pseudopotential
        Cu            19.00    63.54600     Cu( 1.00)
        O              6.00    15.99940     O ( 1.00)
        Sr            10.00    87.62000     Sr( 1.00)

      8 Sym. Ops. (no inversion) found


                                    s                        frac. trans.

      isym =  1     identity                                     

 cryst.   s( 1) = (     1          0          0      )
                  (     0          1          0      )
                  (     0          0          1      )

 cart.    s( 1) = (  1.0000000  0.0000000  0.0000000 )
                  (  0.0000000  1.0000000  0.0000000 )
                  (  0.0000000  0.0000000  1.0000000 )


      isym =  2     180 deg rotation - cart. axis [0,0,1]        

 cryst.   s( 2) = (    -1          0          0      )
                  (     0         -1          0      )
                  (     0          0          1      )

 cart.    s( 2) = ( -1.0000000  0.0000000  0.0000000 )
                  (  0.0000000 -1.0000000  0.0000000 )
                  (  0.0000000  0.0000000  1.0000000 )


      isym =  3      90 deg rotation - cart. axis [0,0,-1]       

 cryst.   s( 3) = (     0         -1          0      )
                  (     1          0          0      )
                  (     0          0          1      )

 cart.    s( 3) = (  0.0000000  1.0000000  0.0000000 )
                  ( -1.0000000  0.0000000  0.0000000 )
                  (  0.0000000  0.0000000  1.0000000 )


      isym =  4      90 deg rotation - cart. axis [0,0,1]        

 cryst.   s( 4) = (     0          1          0      )
                  (    -1          0          0      )
                  (     0          0          1      )

 cart.    s( 4) = (  0.0000000 -1.0000000  0.0000000 )
                  (  1.0000000  0.0000000  0.0000000 )
                  (  0.0000000  0.0000000  1.0000000 )


      isym =  5     inv. 180 deg rotation - cart. axis [0,1,0]   

 cryst.   s( 5) = (     1          0          0      )
                  (     0         -1          0      )
                  (     0          0          1      )

 cart.    s( 5) = (  1.0000000  0.0000000  0.0000000 )
                  (  0.0000000 -1.0000000  0.0000000 )
                  (  0.0000000  0.0000000  1.0000000 )


      isym =  6     inv. 180 deg rotation - cart. axis [1,0,0]   

 cryst.   s( 6) = (    -1          0          0      )
                  (     0          1          0      )
                  (     0          0          1      )

 cart.    s( 6) = ( -1.0000000  0.0000000  0.0000000 )
                  (  0.0000000  1.0000000  0.0000000 )
                  (  0.0000000  0.0000000  1.0000000 )


      isym =  7     inv. 180 deg rotation - cart. axis [1,1,0]   

 cryst.   s( 7) = (     0         -1          0      )
                  (    -1          0          0      )
                  (     0          0          1      )

 cart.    s( 7) = (  0.0000000 -1.0000000  0.0000000 )
                  ( -1.0000000  0.0000000  0.0000000 )
                  (  0.0000000  0.0000000  1.0000000 )


      isym =  8     inv. 180 deg rotation - cart. axis [1,-1,0]  

 cryst.   s( 8) = (     0          1          0      )
                  (     1          0          0      )
                  (     0          0          1      )

 cart.    s( 8) = (  0.0000000  1.0000000  0.0000000 )
                  (  1.0000000  0.0000000  0.0000000 )
                  (  0.0000000  0.0000000  1.0000000 )


   Cartesian axes

     site n.     atom                  positions (alat units)
         1           Sr  tau(   1) = (   0.0000000   0.0000000   0.0000000  )
         2           Cu  tau(   2) = (   0.5000000   0.5000000   0.4841932  )
         3           O   tau(   3) = (   0.5000000   0.5000000   0.0160728  )
         4           O   tau(   4) = (   0.5000000   0.0000000   0.5173433  )
         5           O   tau(   5) = (   0.0000000   0.5000000   0.5173433  )

   Crystallographic axes

     site n.     atom                  positions (cryst. coord.)
         1           Sr  tau(   1) = (  0.0000000  0.0000000  0.0000000  )
         2           Cu  tau(   2) = (  0.5000000  0.5000000  0.4820000  )
         3           O   tau(   3) = (  0.5000000  0.5000000  0.0160000  )
         4           O   tau(   4) = (  0.5000000  0.0000000  0.5150000  )
         5           O   tau(   5) = (  0.0000000  0.5000000  0.5150000  )

     number of k points=   405  Marzari-Vanderbilt smearing, width (Ry)=  0.0010
                       cart. coord. in units 2pi/alat
        k(    1) = (   0.0000000   0.0000000   0.0000000), wk =   0.0004071
        k(    2) = (   0.0000000   0.0000000   0.0585571), wk =   0.0008142
        k(    3) = (   0.0000000   0.0000000   0.1171142), wk =   0.0008142
        k(    4) = (   0.0000000   0.0000000   0.1756713), wk =   0.0008142
        k(    5) = (   0.0000000   0.0000000   0.2342283), wk =   0.0008142
        k(    6) = (   0.0000000   0.0000000   0.2927854), wk =   0.0008142
        k(    7) = (   0.0000000   0.0000000   0.3513425), wk =   0.0008142
        k(    8) = (   0.0000000   0.0000000   0.4098996), wk =   0.0008142
        k(    9) = (   0.0000000   0.0000000   0.4684567), wk =   0.0008142
        k(   10) = (   0.0000000   0.0588235   0.0000000), wk =   0.0016283
        k(   11) = (   0.0000000   0.0588235   0.0585571), wk =   0.0032567
        k(   12) = (   0.0000000   0.0588235   0.1171142), wk =   0.0032567
        k(   13) = (   0.0000000   0.0588235   0.1756713), wk =   0.0032567
        k(   14) = (   0.0000000   0.0588235   0.2342283), wk =   0.0032567
        k(   15) = (   0.0000000   0.0588235   0.2927854), wk =   0.0032567
        k(   16) = (   0.0000000   0.0588235   0.3513425), wk =   0.0032567
        k(   17) = (   0.0000000   0.0588235   0.4098996), wk =   0.0032567
        k(   18) = (   0.0000000   0.0588235   0.4684567), wk =   0.0032567
        k(   19) = (   0.0000000   0.1176471   0.0000000), wk =   0.0016283
        k(   20) = (   0.0000000   0.1176471   0.0585571), wk =   0.0032567
        k(   21) = (   0.0000000   0.1176471   0.1171142), wk =   0.0032567
        k(   22) = (   0.0000000   0.1176471   0.1756713), wk =   0.0032567
        k(   23) = (   0.0000000   0.1176471   0.2342283), wk =   0.0032567
        k(   24) = (   0.0000000   0.1176471   0.2927854), wk =   0.0032567
        k(   25) = (   0.0000000   0.1176471   0.3513425), wk =   0.0032567
        k(   26) = (   0.0000000   0.1176471   0.4098996), wk =   0.0032567
        k(   27) = (   0.0000000   0.1176471   0.4684567), wk =   0.0032567
        k(   28) = (   0.0000000   0.1764706   0.0000000), wk =   0.0016283
        k(   29) = (   0.0000000   0.1764706   0.0585571), wk =   0.0032567
        k(   30) = (   0.0000000   0.1764706   0.1171142), wk =   0.0032567
        k(   31) = (   0.0000000   0.1764706   0.1756713), wk =   0.0032567
        k(   32) = (   0.0000000   0.1764706   0.2342283), wk =   0.0032567
        k(   33) = (   0.0000000   0.1764706   0.2927854), wk =   0.0032567
        k(   34) = (   0.0000000   0.1764706   0.3513425), wk =   0.0032567
        k(   35) = (   0.0000000   0.1764706   0.4098996), wk =   0.0032567
        k(   36) = (   0.0000000   0.1764706   0.4684567), wk =   0.0032567
        k(   37) = (   0.0000000   0.2352941   0.0000000), wk =   0.0016283
        k(   38) = (   0.0000000   0.2352941   0.0585571), wk =   0.0032567
        k(   39) = (   0.0000000   0.2352941   0.1171142), wk =   0.0032567
        k(   40) = (   0.0000000   0.2352941   0.1756713), wk =   0.0032567
        k(   41) = (   0.0000000   0.2352941   0.2342283), wk =   0.0032567
        k(   42) = (   0.0000000   0.2352941   0.2927854), wk =   0.0032567
        k(   43) = (   0.0000000   0.2352941   0.3513425), wk =   0.0032567
        k(   44) = (   0.0000000   0.2352941   0.4098996), wk =   0.0032567
        k(   45) = (   0.0000000   0.2352941   0.4684567), wk =   0.0032567
        k(   46) = (   0.0000000   0.2941176   0.0000000), wk =   0.0016283
        k(   47) = (   0.0000000   0.2941176   0.0585571), wk =   0.0032567
        k(   48) = (   0.0000000   0.2941176   0.1171142), wk =   0.0032567
        k(   49) = (   0.0000000   0.2941176   0.1756713), wk =   0.0032567
        k(   50) = (   0.0000000   0.2941176   0.2342283), wk =   0.0032567
        k(   51) = (   0.0000000   0.2941176   0.2927854), wk =   0.0032567
        k(   52) = (   0.0000000   0.2941176   0.3513425), wk =   0.0032567
        k(   53) = (   0.0000000   0.2941176   0.4098996), wk =   0.0032567
        k(   54) = (   0.0000000   0.2941176   0.4684567), wk =   0.0032567
        k(   55) = (   0.0000000   0.3529412   0.0000000), wk =   0.0016283
        k(   56) = (   0.0000000   0.3529412   0.0585571), wk =   0.0032567
        k(   57) = (   0.0000000   0.3529412   0.1171142), wk =   0.0032567
        k(   58) = (   0.0000000   0.3529412   0.1756713), wk =   0.0032567
        k(   59) = (   0.0000000   0.3529412   0.2342283), wk =   0.0032567
        k(   60) = (   0.0000000   0.3529412   0.2927854), wk =   0.0032567
        k(   61) = (   0.0000000   0.3529412   0.3513425), wk =   0.0032567
        k(   62) = (   0.0000000   0.3529412   0.4098996), wk =   0.0032567
        k(   63) = (   0.0000000   0.3529412   0.4684567), wk =   0.0032567
        k(   64) = (   0.0000000   0.4117647   0.0000000), wk =   0.0016283
        k(   65) = (   0.0000000   0.4117647   0.0585571), wk =   0.0032567
        k(   66) = (   0.0000000   0.4117647   0.1171142), wk =   0.0032567
        k(   67) = (   0.0000000   0.4117647   0.1756713), wk =   0.0032567
        k(   68) = (   0.0000000   0.4117647   0.2342283), wk =   0.0032567
        k(   69) = (   0.0000000   0.4117647   0.2927854), wk =   0.0032567
        k(   70) = (   0.0000000   0.4117647   0.3513425), wk =   0.0032567
        k(   71) = (   0.0000000   0.4117647   0.4098996), wk =   0.0032567
        k(   72) = (   0.0000000   0.4117647   0.4684567), wk =   0.0032567
        k(   73) = (   0.0000000   0.4705882   0.0000000), wk =   0.0016283
        k(   74) = (   0.0000000   0.4705882   0.0585571), wk =   0.0032567
        k(   75) = (   0.0000000   0.4705882   0.1171142), wk =   0.0032567
        k(   76) = (   0.0000000   0.4705882   0.1756713), wk =   0.0032567
        k(   77) = (   0.0000000   0.4705882   0.2342283), wk =   0.0032567
        k(   78) = (   0.0000000   0.4705882   0.2927854), wk =   0.0032567
        k(   79) = (   0.0000000   0.4705882   0.3513425), wk =   0.0032567
        k(   80) = (   0.0000000   0.4705882   0.4098996), wk =   0.0032567
        k(   81) = (   0.0000000   0.4705882   0.4684567), wk =   0.0032567
        k(   82) = (   0.0588235   0.0588235   0.0000000), wk =   0.0016283
        k(   83) = (   0.0588235   0.0588235   0.0585571), wk =   0.0032567
        k(   84) = (   0.0588235   0.0588235   0.1171142), wk =   0.0032567
        k(   85) = (   0.0588235   0.0588235   0.1756713), wk =   0.0032567
        k(   86) = (   0.0588235   0.0588235   0.2342283), wk =   0.0032567
        k(   87) = (   0.0588235   0.0588235   0.2927854), wk =   0.0032567
        k(   88) = (   0.0588235   0.0588235   0.3513425), wk =   0.0032567
        k(   89) = (   0.0588235   0.0588235   0.4098996), wk =   0.0032567
        k(   90) = (   0.0588235   0.0588235   0.4684567), wk =   0.0032567
        k(   91) = (   0.0588235   0.1176471   0.0000000), wk =   0.0032567
        k(   92) = (   0.0588235   0.1176471   0.0585571), wk =   0.0065133
        k(   93) = (   0.0588235   0.1176471   0.1171142), wk =   0.0065133
        k(   94) = (   0.0588235   0.1176471   0.1756713), wk =   0.0065133
        k(   95) = (   0.0588235   0.1176471   0.2342283), wk =   0.0065133
        k(   96) = (   0.0588235   0.1176471   0.2927854), wk =   0.0065133
        k(   97) = (   0.0588235   0.1176471   0.3513425), wk =   0.0065133
        k(   98) = (   0.0588235   0.1176471   0.4098996), wk =   0.0065133
        k(   99) = (   0.0588235   0.1176471   0.4684567), wk =   0.0065133
        k(  100) = (   0.0588235   0.1764706   0.0000000), wk =   0.0032567
        k(  101) = (   0.0588235   0.1764706   0.0585571), wk =   0.0065133
        k(  102) = (   0.0588235   0.1764706   0.1171142), wk =   0.0065133
        k(  103) = (   0.0588235   0.1764706   0.1756713), wk =   0.0065133
        k(  104) = (   0.0588235   0.1764706   0.2342283), wk =   0.0065133
        k(  105) = (   0.0588235   0.1764706   0.2927854), wk =   0.0065133
        k(  106) = (   0.0588235   0.1764706   0.3513425), wk =   0.0065133
        k(  107) = (   0.0588235   0.1764706   0.4098996), wk =   0.0065133
        k(  108) = (   0.0588235   0.1764706   0.4684567), wk =   0.0065133
        k(  109) = (   0.0588235   0.2352941   0.0000000), wk =   0.0032567
        k(  110) = (   0.0588235   0.2352941   0.0585571), wk =   0.0065133
        k(  111) = (   0.0588235   0.2352941   0.1171142), wk =   0.0065133
        k(  112) = (   0.0588235   0.2352941   0.1756713), wk =   0.0065133
        k(  113) = (   0.0588235   0.2352941   0.2342283), wk =   0.0065133
        k(  114) = (   0.0588235   0.2352941   0.2927854), wk =   0.0065133
        k(  115) = (   0.0588235   0.2352941   0.3513425), wk =   0.0065133
        k(  116) = (   0.0588235   0.2352941   0.4098996), wk =   0.0065133
        k(  117) = (   0.0588235   0.2352941   0.4684567), wk =   0.0065133
        k(  118) = (   0.0588235   0.2941176   0.0000000), wk =   0.0032567
        k(  119) = (   0.0588235   0.2941176   0.0585571), wk =   0.0065133
        k(  120) = (   0.0588235   0.2941176   0.1171142), wk =   0.0065133
        k(  121) = (   0.0588235   0.2941176   0.1756713), wk =   0.0065133
        k(  122) = (   0.0588235   0.2941176   0.2342283), wk =   0.0065133
        k(  123) = (   0.0588235   0.2941176   0.2927854), wk =   0.0065133
        k(  124) = (   0.0588235   0.2941176   0.3513425), wk =   0.0065133
        k(  125) = (   0.0588235   0.2941176   0.4098996), wk =   0.0065133
        k(  126) = (   0.0588235   0.2941176   0.4684567), wk =   0.0065133
        k(  127) = (   0.0588235   0.3529412   0.0000000), wk =   0.0032567
        k(  128) = (   0.0588235   0.3529412   0.0585571), wk =   0.0065133
        k(  129) = (   0.0588235   0.3529412   0.1171142), wk =   0.0065133
        k(  130) = (   0.0588235   0.3529412   0.1756713), wk =   0.0065133
        k(  131) = (   0.0588235   0.3529412   0.2342283), wk =   0.0065133
        k(  132) = (   0.0588235   0.3529412   0.2927854), wk =   0.0065133
        k(  133) = (   0.0588235   0.3529412   0.3513425), wk =   0.0065133
        k(  134) = (   0.0588235   0.3529412   0.4098996), wk =   0.0065133
        k(  135) = (   0.0588235   0.3529412   0.4684567), wk =   0.0065133
        k(  136) = (   0.0588235   0.4117647   0.0000000), wk =   0.0032567
        k(  137) = (   0.0588235   0.4117647   0.0585571), wk =   0.0065133
        k(  138) = (   0.0588235   0.4117647   0.1171142), wk =   0.0065133
        k(  139) = (   0.0588235   0.4117647   0.1756713), wk =   0.0065133
        k(  140) = (   0.0588235   0.4117647   0.2342283), wk =   0.0065133
        k(  141) = (   0.0588235   0.4117647   0.2927854), wk =   0.0065133
        k(  142) = (   0.0588235   0.4117647   0.3513425), wk =   0.0065133
        k(  143) = (   0.0588235   0.4117647   0.4098996), wk =   0.0065133
        k(  144) = (   0.0588235   0.4117647   0.4684567), wk =   0.0065133
        k(  145) = (   0.0588235   0.4705882   0.0000000), wk =   0.0032567
        k(  146) = (   0.0588235   0.4705882   0.0585571), wk =   0.0065133
        k(  147) = (   0.0588235   0.4705882   0.1171142), wk =   0.0065133
        k(  148) = (   0.0588235   0.4705882   0.1756713), wk =   0.0065133
        k(  149) = (   0.0588235   0.4705882   0.2342283), wk =   0.0065133
        k(  150) = (   0.0588235   0.4705882   0.2927854), wk =   0.0065133
        k(  151) = (   0.0588235   0.4705882   0.3513425), wk =   0.0065133
        k(  152) = (   0.0588235   0.4705882   0.4098996), wk =   0.0065133
        k(  153) = (   0.0588235   0.4705882   0.4684567), wk =   0.0065133
        k(  154) = (   0.1176471   0.1176471   0.0000000), wk =   0.0016283
        k(  155) = (   0.1176471   0.1176471   0.0585571), wk =   0.0032567
        k(  156) = (   0.1176471   0.1176471   0.1171142), wk =   0.0032567
        k(  157) = (   0.1176471   0.1176471   0.1756713), wk =   0.0032567
        k(  158) = (   0.1176471   0.1176471   0.2342283), wk =   0.0032567
        k(  159) = (   0.1176471   0.1176471   0.2927854), wk =   0.0032567
        k(  160) = (   0.1176471   0.1176471   0.3513425), wk =   0.0032567
        k(  161) = (   0.1176471   0.1176471   0.4098996), wk =   0.0032567
        k(  162) = (   0.1176471   0.1176471   0.4684567), wk =   0.0032567
        k(  163) = (   0.1176471   0.1764706   0.0000000), wk =   0.0032567
        k(  164) = (   0.1176471   0.1764706   0.0585571), wk =   0.0065133
        k(  165) = (   0.1176471   0.1764706   0.1171142), wk =   0.0065133
        k(  166) = (   0.1176471   0.1764706   0.1756713), wk =   0.0065133
        k(  167) = (   0.1176471   0.1764706   0.2342283), wk =   0.0065133
        k(  168) = (   0.1176471   0.1764706   0.2927854), wk =   0.0065133
        k(  169) = (   0.1176471   0.1764706   0.3513425), wk =   0.0065133
        k(  170) = (   0.1176471   0.1764706   0.4098996), wk =   0.0065133
        k(  171) = (   0.1176471   0.1764706   0.4684567), wk =   0.0065133
        k(  172) = (   0.1176471   0.2352941   0.0000000), wk =   0.0032567
        k(  173) = (   0.1176471   0.2352941   0.0585571), wk =   0.0065133
        k(  174) = (   0.1176471   0.2352941   0.1171142), wk =   0.0065133
        k(  175) = (   0.1176471   0.2352941   0.1756713), wk =   0.0065133
        k(  176) = (   0.1176471   0.2352941   0.2342283), wk =   0.0065133
        k(  177) = (   0.1176471   0.2352941   0.2927854), wk =   0.0065133
        k(  178) = (   0.1176471   0.2352941   0.3513425), wk =   0.0065133
        k(  179) = (   0.1176471   0.2352941   0.4098996), wk =   0.0065133
        k(  180) = (   0.1176471   0.2352941   0.4684567), wk =   0.0065133
        k(  181) = (   0.1176471   0.2941176   0.0000000), wk =   0.0032567
        k(  182) = (   0.1176471   0.2941176   0.0585571), wk =   0.0065133
        k(  183) = (   0.1176471   0.2941176   0.1171142), wk =   0.0065133
        k(  184) = (   0.1176471   0.2941176   0.1756713), wk =   0.0065133
        k(  185) = (   0.1176471   0.2941176   0.2342283), wk =   0.0065133
        k(  186) = (   0.1176471   0.2941176   0.2927854), wk =   0.0065133
        k(  187) = (   0.1176471   0.2941176   0.3513425), wk =   0.0065133
        k(  188) = (   0.1176471   0.2941176   0.4098996), wk =   0.0065133
        k(  189) = (   0.1176471   0.2941176   0.4684567), wk =   0.0065133
        k(  190) = (   0.1176471   0.3529412   0.0000000), wk =   0.0032567
        k(  191) = (   0.1176471   0.3529412   0.0585571), wk =   0.0065133
        k(  192) = (   0.1176471   0.3529412   0.1171142), wk =   0.0065133
        k(  193) = (   0.1176471   0.3529412   0.1756713), wk =   0.0065133
        k(  194) = (   0.1176471   0.3529412   0.2342283), wk =   0.0065133
        k(  195) = (   0.1176471   0.3529412   0.2927854), wk =   0.0065133
        k(  196) = (   0.1176471   0.3529412   0.3513425), wk =   0.0065133
        k(  197) = (   0.1176471   0.3529412   0.4098996), wk =   0.0065133
        k(  198) = (   0.1176471   0.3529412   0.4684567), wk =   0.0065133
        k(  199) = (   0.1176471   0.4117647   0.0000000), wk =   0.0032567
        k(  200) = (   0.1176471   0.4117647   0.0585571), wk =   0.0065133
        k(  201) = (   0.1176471   0.4117647   0.1171142), wk =   0.0065133
        k(  202) = (   0.1176471   0.4117647   0.1756713), wk =   0.0065133
        k(  203) = (   0.1176471   0.4117647   0.2342283), wk =   0.0065133
        k(  204) = (   0.1176471   0.4117647   0.2927854), wk =   0.0065133
        k(  205) = (   0.1176471   0.4117647   0.3513425), wk =   0.0065133
        k(  206) = (   0.1176471   0.4117647   0.4098996), wk =   0.0065133
        k(  207) = (   0.1176471   0.4117647   0.4684567), wk =   0.0065133
        k(  208) = (   0.1176471   0.4705882   0.0000000), wk =   0.0032567
        k(  209) = (   0.1176471   0.4705882   0.0585571), wk =   0.0065133
        k(  210) = (   0.1176471   0.4705882   0.1171142), wk =   0.0065133
        k(  211) = (   0.1176471   0.4705882   0.1756713), wk =   0.0065133
        k(  212) = (   0.1176471   0.4705882   0.2342283), wk =   0.0065133
        k(  213) = (   0.1176471   0.4705882   0.2927854), wk =   0.0065133
        k(  214) = (   0.1176471   0.4705882   0.3513425), wk =   0.0065133
        k(  215) = (   0.1176471   0.4705882   0.4098996), wk =   0.0065133
        k(  216) = (   0.1176471   0.4705882   0.4684567), wk =   0.0065133
        k(  217) = (   0.1764706   0.1764706   0.0000000), wk =   0.0016283
        k(  218) = (   0.1764706   0.1764706   0.0585571), wk =   0.0032567
        k(  219) = (   0.1764706   0.1764706   0.1171142), wk =   0.0032567
        k(  220) = (   0.1764706   0.1764706   0.1756713), wk =   0.0032567
        k(  221) = (   0.1764706   0.1764706   0.2342283), wk =   0.0032567
        k(  222) = (   0.1764706   0.1764706   0.2927854), wk =   0.0032567
        k(  223) = (   0.1764706   0.1764706   0.3513425), wk =   0.0032567
        k(  224) = (   0.1764706   0.1764706   0.4098996), wk =   0.0032567
        k(  225) = (   0.1764706   0.1764706   0.4684567), wk =   0.0032567
        k(  226) = (   0.1764706   0.2352941   0.0000000), wk =   0.0032567
        k(  227) = (   0.1764706   0.2352941   0.0585571), wk =   0.0065133
        k(  228) = (   0.1764706   0.2352941   0.1171142), wk =   0.0065133
        k(  229) = (   0.1764706   0.2352941   0.1756713), wk =   0.0065133
        k(  230) = (   0.1764706   0.2352941   0.2342283), wk =   0.0065133
        k(  231) = (   0.1764706   0.2352941   0.2927854), wk =   0.0065133
        k(  232) = (   0.1764706   0.2352941   0.3513425), wk =   0.0065133
        k(  233) = (   0.1764706   0.2352941   0.4098996), wk =   0.0065133
        k(  234) = (   0.1764706   0.2352941   0.4684567), wk =   0.0065133
        k(  235) = (   0.1764706   0.2941176   0.0000000), wk =   0.0032567
        k(  236) = (   0.1764706   0.2941176   0.0585571), wk =   0.0065133
        k(  237) = (   0.1764706   0.2941176   0.1171142), wk =   0.0065133
        k(  238) = (   0.1764706   0.2941176   0.1756713), wk =   0.0065133
        k(  239) = (   0.1764706   0.2941176   0.2342283), wk =   0.0065133
        k(  240) = (   0.1764706   0.2941176   0.2927854), wk =   0.0065133
        k(  241) = (   0.1764706   0.2941176   0.3513425), wk =   0.0065133
        k(  242) = (   0.1764706   0.2941176   0.4098996), wk =   0.0065133
        k(  243) = (   0.1764706   0.2941176   0.4684567), wk =   0.0065133
        k(  244) = (   0.1764706   0.3529412   0.0000000), wk =   0.0032567
        k(  245) = (   0.1764706   0.3529412   0.0585571), wk =   0.0065133
        k(  246) = (   0.1764706   0.3529412   0.1171142), wk =   0.0065133
        k(  247) = (   0.1764706   0.3529412   0.1756713), wk =   0.0065133
        k(  248) = (   0.1764706   0.3529412   0.2342283), wk =   0.0065133
        k(  249) = (   0.1764706   0.3529412   0.2927854), wk =   0.0065133
        k(  250) = (   0.1764706   0.3529412   0.3513425), wk =   0.0065133
        k(  251) = (   0.1764706   0.3529412   0.4098996), wk =   0.0065133
        k(  252) = (   0.1764706   0.3529412   0.4684567), wk =   0.0065133
        k(  253) = (   0.1764706   0.4117647   0.0000000), wk =   0.0032567
        k(  254) = (   0.1764706   0.4117647   0.0585571), wk =   0.0065133
        k(  255) = (   0.1764706   0.4117647   0.1171142), wk =   0.0065133
        k(  256) = (   0.1764706   0.4117647   0.1756713), wk =   0.0065133
        k(  257) = (   0.1764706   0.4117647   0.2342283), wk =   0.0065133
        k(  258) = (   0.1764706   0.4117647   0.2927854), wk =   0.0065133
        k(  259) = (   0.1764706   0.4117647   0.3513425), wk =   0.0065133
        k(  260) = (   0.1764706   0.4117647   0.4098996), wk =   0.0065133
        k(  261) = (   0.1764706   0.4117647   0.4684567), wk =   0.0065133
        k(  262) = (   0.1764706   0.4705882   0.0000000), wk =   0.0032567
        k(  263) = (   0.1764706   0.4705882   0.0585571), wk =   0.0065133
        k(  264) = (   0.1764706   0.4705882   0.1171142), wk =   0.0065133
        k(  265) = (   0.1764706   0.4705882   0.1756713), wk =   0.0065133
        k(  266) = (   0.1764706   0.4705882   0.2342283), wk =   0.0065133
        k(  267) = (   0.1764706   0.4705882   0.2927854), wk =   0.0065133
        k(  268) = (   0.1764706   0.4705882   0.3513425), wk =   0.0065133
        k(  269) = (   0.1764706   0.4705882   0.4098996), wk =   0.0065133
        k(  270) = (   0.1764706   0.4705882   0.4684567), wk =   0.0065133
        k(  271) = (   0.2352941   0.2352941   0.0000000), wk =   0.0016283
        k(  272) = (   0.2352941   0.2352941   0.0585571), wk =   0.0032567
        k(  273) = (   0.2352941   0.2352941   0.1171142), wk =   0.0032567
        k(  274) = (   0.2352941   0.2352941   0.1756713), wk =   0.0032567
        k(  275) = (   0.2352941   0.2352941   0.2342283), wk =   0.0032567
        k(  276) = (   0.2352941   0.2352941   0.2927854), wk =   0.0032567
        k(  277) = (   0.2352941   0.2352941   0.3513425), wk =   0.0032567
        k(  278) = (   0.2352941   0.2352941   0.4098996), wk =   0.0032567
        k(  279) = (   0.2352941   0.2352941   0.4684567), wk =   0.0032567
        k(  280) = (   0.2352941   0.2941176   0.0000000), wk =   0.0032567
        k(  281) = (   0.2352941   0.2941176   0.0585571), wk =   0.0065133
        k(  282) = (   0.2352941   0.2941176   0.1171142), wk =   0.0065133
        k(  283) = (   0.2352941   0.2941176   0.1756713), wk =   0.0065133
        k(  284) = (   0.2352941   0.2941176   0.2342283), wk =   0.0065133
        k(  285) = (   0.2352941   0.2941176   0.2927854), wk =   0.0065133
        k(  286) = (   0.2352941   0.2941176   0.3513425), wk =   0.0065133
        k(  287) = (   0.2352941   0.2941176   0.4098996), wk =   0.0065133
        k(  288) = (   0.2352941   0.2941176   0.4684567), wk =   0.0065133
        k(  289) = (   0.2352941   0.3529412   0.0000000), wk =   0.0032567
        k(  290) = (   0.2352941   0.3529412   0.0585571), wk =   0.0065133
        k(  291) = (   0.2352941   0.3529412   0.1171142), wk =   0.0065133
        k(  292) = (   0.2352941   0.3529412   0.1756713), wk =   0.0065133
        k(  293) = (   0.2352941   0.3529412   0.2342283), wk =   0.0065133
        k(  294) = (   0.2352941   0.3529412   0.2927854), wk =   0.0065133
        k(  295) = (   0.2352941   0.3529412   0.3513425), wk =   0.0065133
        k(  296) = (   0.2352941   0.3529412   0.4098996), wk =   0.0065133
        k(  297) = (   0.2352941   0.3529412   0.4684567), wk =   0.0065133
        k(  298) = (   0.2352941   0.4117647   0.0000000), wk =   0.0032567
        k(  299) = (   0.2352941   0.4117647   0.0585571), wk =   0.0065133
        k(  300) = (   0.2352941   0.4117647   0.1171142), wk =   0.0065133
        k(  301) = (   0.2352941   0.4117647   0.1756713), wk =   0.0065133
        k(  302) = (   0.2352941   0.4117647   0.2342283), wk =   0.0065133
        k(  303) = (   0.2352941   0.4117647   0.2927854), wk =   0.0065133
        k(  304) = (   0.2352941   0.4117647   0.3513425), wk =   0.0065133
        k(  305) = (   0.2352941   0.4117647   0.4098996), wk =   0.0065133
        k(  306) = (   0.2352941   0.4117647   0.4684567), wk =   0.0065133
        k(  307) = (   0.2352941   0.4705882   0.0000000), wk =   0.0032567
        k(  308) = (   0.2352941   0.4705882   0.0585571), wk =   0.0065133
        k(  309) = (   0.2352941   0.4705882   0.1171142), wk =   0.0065133
        k(  310) = (   0.2352941   0.4705882   0.1756713), wk =   0.0065133
        k(  311) = (   0.2352941   0.4705882   0.2342283), wk =   0.0065133
        k(  312) = (   0.2352941   0.4705882   0.2927854), wk =   0.0065133
        k(  313) = (   0.2352941   0.4705882   0.3513425), wk =   0.0065133
        k(  314) = (   0.2352941   0.4705882   0.4098996), wk =   0.0065133
        k(  315) = (   0.2352941   0.4705882   0.4684567), wk =   0.0065133
        k(  316) = (   0.2941176   0.2941176   0.0000000), wk =   0.0016283
        k(  317) = (   0.2941176   0.2941176   0.0585571), wk =   0.0032567
        k(  318) = (   0.2941176   0.2941176   0.1171142), wk =   0.0032567
        k(  319) = (   0.2941176   0.2941176   0.1756713), wk =   0.0032567
        k(  320) = (   0.2941176   0.2941176   0.2342283), wk =   0.0032567
        k(  321) = (   0.2941176   0.2941176   0.2927854), wk =   0.0032567
        k(  322) = (   0.2941176   0.2941176   0.3513425), wk =   0.0032567
        k(  323) = (   0.2941176   0.2941176   0.4098996), wk =   0.0032567
        k(  324) = (   0.2941176   0.2941176   0.4684567), wk =   0.0032567
        k(  325) = (   0.2941176   0.3529412   0.0000000), wk =   0.0032567
        k(  326) = (   0.2941176   0.3529412   0.0585571), wk =   0.0065133
        k(  327) = (   0.2941176   0.3529412   0.1171142), wk =   0.0065133
        k(  328) = (   0.2941176   0.3529412   0.1756713), wk =   0.0065133
        k(  329) = (   0.2941176   0.3529412   0.2342283), wk =   0.0065133
        k(  330) = (   0.2941176   0.3529412   0.2927854), wk =   0.0065133
        k(  331) = (   0.2941176   0.3529412   0.3513425), wk =   0.0065133
        k(  332) = (   0.2941176   0.3529412   0.4098996), wk =   0.0065133
        k(  333) = (   0.2941176   0.3529412   0.4684567), wk =   0.0065133
        k(  334) = (   0.2941176   0.4117647   0.0000000), wk =   0.0032567
        k(  335) = (   0.2941176   0.4117647   0.0585571), wk =   0.0065133
        k(  336) = (   0.2941176   0.4117647   0.1171142), wk =   0.0065133
        k(  337) = (   0.2941176   0.4117647   0.1756713), wk =   0.0065133
        k(  338) = (   0.2941176   0.4117647   0.2342283), wk =   0.0065133
        k(  339) = (   0.2941176   0.4117647   0.2927854), wk =   0.0065133
        k(  340) = (   0.2941176   0.4117647   0.3513425), wk =   0.0065133
        k(  341) = (   0.2941176   0.4117647   0.4098996), wk =   0.0065133
        k(  342) = (   0.2941176   0.4117647   0.4684567), wk =   0.0065133
        k(  343) = (   0.2941176   0.4705882   0.0000000), wk =   0.0032567
        k(  344) = (   0.2941176   0.4705882   0.0585571), wk =   0.0065133
        k(  345) = (   0.2941176   0.4705882   0.1171142), wk =   0.0065133
        k(  346) = (   0.2941176   0.4705882   0.1756713), wk =   0.0065133
        k(  347) = (   0.2941176   0.4705882   0.2342283), wk =   0.0065133
        k(  348) = (   0.2941176   0.4705882   0.2927854), wk =   0.0065133
        k(  349) = (   0.2941176   0.4705882   0.3513425), wk =   0.0065133
        k(  350) = (   0.2941176   0.4705882   0.4098996), wk =   0.0065133
        k(  351) = (   0.2941176   0.4705882   0.4684567), wk =   0.0065133
        k(  352) = (   0.3529412   0.3529412   0.0000000), wk =   0.0016283
        k(  353) = (   0.3529412   0.3529412   0.0585571), wk =   0.0032567
        k(  354) = (   0.3529412   0.3529412   0.1171142), wk =   0.0032567
        k(  355) = (   0.3529412   0.3529412   0.1756713), wk =   0.0032567
        k(  356) = (   0.3529412   0.3529412   0.2342283), wk =   0.0032567
        k(  357) = (   0.3529412   0.3529412   0.2927854), wk =   0.0032567
        k(  358) = (   0.3529412   0.3529412   0.3513425), wk =   0.0032567
        k(  359) = (   0.3529412   0.3529412   0.4098996), wk =   0.0032567
        k(  360) = (   0.3529412   0.3529412   0.4684567), wk =   0.0032567
        k(  361) = (   0.3529412   0.4117647   0.0000000), wk =   0.0032567
        k(  362) = (   0.3529412   0.4117647   0.0585571), wk =   0.0065133
        k(  363) = (   0.3529412   0.4117647   0.1171142), wk =   0.0065133
        k(  364) = (   0.3529412   0.4117647   0.1756713), wk =   0.0065133
        k(  365) = (   0.3529412   0.4117647   0.2342283), wk =   0.0065133
        k(  366) = (   0.3529412   0.4117647   0.2927854), wk =   0.0065133
        k(  367) = (   0.3529412   0.4117647   0.3513425), wk =   0.0065133
        k(  368) = (   0.3529412   0.4117647   0.4098996), wk =   0.0065133
        k(  369) = (   0.3529412   0.4117647   0.4684567), wk =   0.0065133
        k(  370) = (   0.3529412   0.4705882   0.0000000), wk =   0.0032567
        k(  371) = (   0.3529412   0.4705882   0.0585571), wk =   0.0065133
        k(  372) = (   0.3529412   0.4705882   0.1171142), wk =   0.0065133
        k(  373) = (   0.3529412   0.4705882   0.1756713), wk =   0.0065133
        k(  374) = (   0.3529412   0.4705882   0.2342283), wk =   0.0065133
        k(  375) = (   0.3529412   0.4705882   0.2927854), wk =   0.0065133
        k(  376) = (   0.3529412   0.4705882   0.3513425), wk =   0.0065133
        k(  377) = (   0.3529412   0.4705882   0.4098996), wk =   0.0065133
        k(  378) = (   0.3529412   0.4705882   0.4684567), wk =   0.0065133
        k(  379) = (   0.4117647   0.4117647   0.0000000), wk =   0.0016283
        k(  380) = (   0.4117647   0.4117647   0.0585571), wk =   0.0032567
        k(  381) = (   0.4117647   0.4117647   0.1171142), wk =   0.0032567
        k(  382) = (   0.4117647   0.4117647   0.1756713), wk =   0.0032567
        k(  383) = (   0.4117647   0.4117647   0.2342283), wk =   0.0032567
        k(  384) = (   0.4117647   0.4117647   0.2927854), wk =   0.0032567
        k(  385) = (   0.4117647   0.4117647   0.3513425), wk =   0.0032567
        k(  386) = (   0.4117647   0.4117647   0.4098996), wk =   0.0032567
        k(  387) = (   0.4117647   0.4117647   0.4684567), wk =   0.0032567
        k(  388) = (   0.4117647   0.4705882   0.0000000), wk =   0.0032567
        k(  389) = (   0.4117647   0.4705882   0.0585571), wk =   0.0065133
        k(  390) = (   0.4117647   0.4705882   0.1171142), wk =   0.0065133
        k(  391) = (   0.4117647   0.4705882   0.1756713), wk =   0.0065133
        k(  392) = (   0.4117647   0.4705882   0.2342283), wk =   0.0065133
        k(  393) = (   0.4117647   0.4705882   0.2927854), wk =   0.0065133
        k(  394) = (   0.4117647   0.4705882   0.3513425), wk =   0.0065133
        k(  395) = (   0.4117647   0.4705882   0.4098996), wk =   0.0065133
        k(  396) = (   0.4117647   0.4705882   0.4684567), wk =   0.0065133
        k(  397) = (   0.4705882   0.4705882   0.0000000), wk =   0.0016283
        k(  398) = (   0.4705882   0.4705882   0.0585571), wk =   0.0032567
        k(  399) = (   0.4705882   0.4705882   0.1171142), wk =   0.0032567
        k(  400) = (   0.4705882   0.4705882   0.1756713), wk =   0.0032567
        k(  401) = (   0.4705882   0.4705882   0.2342283), wk =   0.0032567
        k(  402) = (   0.4705882   0.4705882   0.2927854), wk =   0.0032567
        k(  403) = (   0.4705882   0.4705882   0.3513425), wk =   0.0032567
        k(  404) = (   0.4705882   0.4705882   0.4098996), wk =   0.0032567
        k(  405) = (   0.4705882   0.4705882   0.4684567), wk =   0.0032567

                       cryst. coord.
        k(    1) = (   0.0000000   0.0000000   0.0000000), wk =   0.0004071
        k(    2) = (   0.0000000   0.0000000   0.0588235), wk =   0.0008142
        k(    3) = (   0.0000000   0.0000000   0.1176471), wk =   0.0008142
        k(    4) = (   0.0000000   0.0000000   0.1764706), wk =   0.0008142
        k(    5) = (   0.0000000   0.0000000   0.2352941), wk =   0.0008142
        k(    6) = (   0.0000000   0.0000000   0.2941176), wk =   0.0008142
        k(    7) = (   0.0000000   0.0000000   0.3529412), wk =   0.0008142
        k(    8) = (   0.0000000   0.0000000   0.4117647), wk =   0.0008142
        k(    9) = (   0.0000000   0.0000000   0.4705882), wk =   0.0008142
        k(   10) = (   0.0000000   0.0588235   0.0000000), wk =   0.0016283
        k(   11) = (   0.0000000   0.0588235   0.0588235), wk =   0.0032567
        k(   12) = (   0.0000000   0.0588235   0.1176471), wk =   0.0032567
        k(   13) = (   0.0000000   0.0588235   0.1764706), wk =   0.0032567
        k(   14) = (   0.0000000   0.0588235   0.2352941), wk =   0.0032567
        k(   15) = (   0.0000000   0.0588235   0.2941176), wk =   0.0032567
        k(   16) = (   0.0000000   0.0588235   0.3529412), wk =   0.0032567
        k(   17) = (   0.0000000   0.0588235   0.4117647), wk =   0.0032567
        k(   18) = (   0.0000000   0.0588235   0.4705882), wk =   0.0032567
        k(   19) = (   0.0000000   0.1176471   0.0000000), wk =   0.0016283
        k(   20) = (   0.0000000   0.1176471   0.0588235), wk =   0.0032567
        k(   21) = (   0.0000000   0.1176471   0.1176471), wk =   0.0032567
        k(   22) = (   0.0000000   0.1176471   0.1764706), wk =   0.0032567
        k(   23) = (   0.0000000   0.1176471   0.2352941), wk =   0.0032567
        k(   24) = (   0.0000000   0.1176471   0.2941176), wk =   0.0032567
        k(   25) = (   0.0000000   0.1176471   0.3529412), wk =   0.0032567
        k(   26) = (   0.0000000   0.1176471   0.4117647), wk =   0.0032567
        k(   27) = (   0.0000000   0.1176471   0.4705882), wk =   0.0032567
        k(   28) = (   0.0000000   0.1764706   0.0000000), wk =   0.0016283
        k(   29) = (   0.0000000   0.1764706   0.0588235), wk =   0.0032567
        k(   30) = (   0.0000000   0.1764706   0.1176471), wk =   0.0032567
        k(   31) = (   0.0000000   0.1764706   0.1764706), wk =   0.0032567
        k(   32) = (   0.0000000   0.1764706   0.2352941), wk =   0.0032567
        k(   33) = (   0.0000000   0.1764706   0.2941176), wk =   0.0032567
        k(   34) = (   0.0000000   0.1764706   0.3529412), wk =   0.0032567
        k(   35) = (   0.0000000   0.1764706   0.4117647), wk =   0.0032567
        k(   36) = (   0.0000000   0.1764706   0.4705882), wk =   0.0032567
        k(   37) = (   0.0000000   0.2352941   0.0000000), wk =   0.0016283
        k(   38) = (   0.0000000   0.2352941   0.0588235), wk =   0.0032567
        k(   39) = (   0.0000000   0.2352941   0.1176471), wk =   0.0032567
        k(   40) = (   0.0000000   0.2352941   0.1764706), wk =   0.0032567
        k(   41) = (   0.0000000   0.2352941   0.2352941), wk =   0.0032567
        k(   42) = (   0.0000000   0.2352941   0.2941176), wk =   0.0032567
        k(   43) = (   0.0000000   0.2352941   0.3529412), wk =   0.0032567
        k(   44) = (   0.0000000   0.2352941   0.4117647), wk =   0.0032567
        k(   45) = (   0.0000000   0.2352941   0.4705882), wk =   0.0032567
        k(   46) = (   0.0000000   0.2941176   0.0000000), wk =   0.0016283
        k(   47) = (   0.0000000   0.2941176   0.0588235), wk =   0.0032567
        k(   48) = (   0.0000000   0.2941176   0.1176471), wk =   0.0032567
        k(   49) = (   0.0000000   0.2941176   0.1764706), wk =   0.0032567
        k(   50) = (   0.0000000   0.2941176   0.2352941), wk =   0.0032567
        k(   51) = (   0.0000000   0.2941176   0.2941176), wk =   0.0032567
        k(   52) = (   0.0000000   0.2941176   0.3529412), wk =   0.0032567
        k(   53) = (   0.0000000   0.2941176   0.4117647), wk =   0.0032567
        k(   54) = (   0.0000000   0.2941176   0.4705882), wk =   0.0032567
        k(   55) = (   0.0000000   0.3529412   0.0000000), wk =   0.0016283
        k(   56) = (   0.0000000   0.3529412   0.0588235), wk =   0.0032567
        k(   57) = (   0.0000000   0.3529412   0.1176471), wk =   0.0032567
        k(   58) = (   0.0000000   0.3529412   0.1764706), wk =   0.0032567
        k(   59) = (   0.0000000   0.3529412   0.2352941), wk =   0.0032567
        k(   60) = (   0.0000000   0.3529412   0.2941176), wk =   0.0032567
        k(   61) = (   0.0000000   0.3529412   0.3529412), wk =   0.0032567
        k(   62) = (   0.0000000   0.3529412   0.4117647), wk =   0.0032567
        k(   63) = (   0.0000000   0.3529412   0.4705882), wk =   0.0032567
        k(   64) = (   0.0000000   0.4117647   0.0000000), wk =   0.0016283
        k(   65) = (   0.0000000   0.4117647   0.0588235), wk =   0.0032567
        k(   66) = (   0.0000000   0.4117647   0.1176471), wk =   0.0032567
        k(   67) = (   0.0000000   0.4117647   0.1764706), wk =   0.0032567
        k(   68) = (   0.0000000   0.4117647   0.2352941), wk =   0.0032567
        k(   69) = (   0.0000000   0.4117647   0.2941176), wk =   0.0032567
        k(   70) = (   0.0000000   0.4117647   0.3529412), wk =   0.0032567
        k(   71) = (   0.0000000   0.4117647   0.4117647), wk =   0.0032567
        k(   72) = (   0.0000000   0.4117647   0.4705882), wk =   0.0032567
        k(   73) = (   0.0000000   0.4705882   0.0000000), wk =   0.0016283
        k(   74) = (   0.0000000   0.4705882   0.0588235), wk =   0.0032567
        k(   75) = (   0.0000000   0.4705882   0.1176471), wk =   0.0032567
        k(   76) = (   0.0000000   0.4705882   0.1764706), wk =   0.0032567
        k(   77) = (   0.0000000   0.4705882   0.2352941), wk =   0.0032567
        k(   78) = (   0.0000000   0.4705882   0.2941176), wk =   0.0032567
        k(   79) = (   0.0000000   0.4705882   0.3529412), wk =   0.0032567
        k(   80) = (   0.0000000   0.4705882   0.4117647), wk =   0.0032567
        k(   81) = (   0.0000000   0.4705882   0.4705882), wk =   0.0032567
        k(   82) = (   0.0588235   0.0588235   0.0000000), wk =   0.0016283
        k(   83) = (   0.0588235   0.0588235   0.0588235), wk =   0.0032567
        k(   84) = (   0.0588235   0.0588235   0.1176471), wk =   0.0032567
        k(   85) = (   0.0588235   0.0588235   0.1764706), wk =   0.0032567
        k(   86) = (   0.0588235   0.0588235   0.2352941), wk =   0.0032567
        k(   87) = (   0.0588235   0.0588235   0.2941176), wk =   0.0032567
        k(   88) = (   0.0588235   0.0588235   0.3529412), wk =   0.0032567
        k(   89) = (   0.0588235   0.0588235   0.4117647), wk =   0.0032567
        k(   90) = (   0.0588235   0.0588235   0.4705882), wk =   0.0032567
        k(   91) = (   0.0588235   0.1176471   0.0000000), wk =   0.0032567
        k(   92) = (   0.0588235   0.1176471   0.0588235), wk =   0.0065133
        k(   93) = (   0.0588235   0.1176471   0.1176471), wk =   0.0065133
        k(   94) = (   0.0588235   0.1176471   0.1764706), wk =   0.0065133
        k(   95) = (   0.0588235   0.1176471   0.2352941), wk =   0.0065133
        k(   96) = (   0.0588235   0.1176471   0.2941176), wk =   0.0065133
        k(   97) = (   0.0588235   0.1176471   0.3529412), wk =   0.0065133
        k(   98) = (   0.0588235   0.1176471   0.4117647), wk =   0.0065133
        k(   99) = (   0.0588235   0.1176471   0.4705882), wk =   0.0065133
        k(  100) = (   0.0588235   0.1764706   0.0000000), wk =   0.0032567
        k(  101) = (   0.0588235   0.1764706   0.0588235), wk =   0.0065133
        k(  102) = (   0.0588235   0.1764706   0.1176471), wk =   0.0065133
        k(  103) = (   0.0588235   0.1764706   0.1764706), wk =   0.0065133
        k(  104) = (   0.0588235   0.1764706   0.2352941), wk =   0.0065133
        k(  105) = (   0.0588235   0.1764706   0.2941176), wk =   0.0065133
        k(  106) = (   0.0588235   0.1764706   0.3529412), wk =   0.0065133
        k(  107) = (   0.0588235   0.1764706   0.4117647), wk =   0.0065133
        k(  108) = (   0.0588235   0.1764706   0.4705882), wk =   0.0065133
        k(  109) = (   0.0588235   0.2352941   0.0000000), wk =   0.0032567
        k(  110) = (   0.0588235   0.2352941   0.0588235), wk =   0.0065133
        k(  111) = (   0.0588235   0.2352941   0.1176471), wk =   0.0065133
        k(  112) = (   0.0588235   0.2352941   0.1764706), wk =   0.0065133
        k(  113) = (   0.0588235   0.2352941   0.2352941), wk =   0.0065133
        k(  114) = (   0.0588235   0.2352941   0.2941176), wk =   0.0065133
        k(  115) = (   0.0588235   0.2352941   0.3529412), wk =   0.0065133
        k(  116) = (   0.0588235   0.2352941   0.4117647), wk =   0.0065133
        k(  117) = (   0.0588235   0.2352941   0.4705882), wk =   0.0065133
        k(  118) = (   0.0588235   0.2941176   0.0000000), wk =   0.0032567
        k(  119) = (   0.0588235   0.2941176   0.0588235), wk =   0.0065133
        k(  120) = (   0.0588235   0.2941176   0.1176471), wk =   0.0065133
        k(  121) = (   0.0588235   0.2941176   0.1764706), wk =   0.0065133
        k(  122) = (   0.0588235   0.2941176   0.2352941), wk =   0.0065133
        k(  123) = (   0.0588235   0.2941176   0.2941176), wk =   0.0065133
        k(  124) = (   0.0588235   0.2941176   0.3529412), wk =   0.0065133
        k(  125) = (   0.0588235   0.2941176   0.4117647), wk =   0.0065133
        k(  126) = (   0.0588235   0.2941176   0.4705882), wk =   0.0065133
        k(  127) = (   0.0588235   0.3529412   0.0000000), wk =   0.0032567
        k(  128) = (   0.0588235   0.3529412   0.0588235), wk =   0.0065133
        k(  129) = (   0.0588235   0.3529412   0.1176471), wk =   0.0065133
        k(  130) = (   0.0588235   0.3529412   0.1764706), wk =   0.0065133
        k(  131) = (   0.0588235   0.3529412   0.2352941), wk =   0.0065133
        k(  132) = (   0.0588235   0.3529412   0.2941176), wk =   0.0065133
        k(  133) = (   0.0588235   0.3529412   0.3529412), wk =   0.0065133
        k(  134) = (   0.0588235   0.3529412   0.4117647), wk =   0.0065133
        k(  135) = (   0.0588235   0.3529412   0.4705882), wk =   0.0065133
        k(  136) = (   0.0588235   0.4117647   0.0000000), wk =   0.0032567
        k(  137) = (   0.0588235   0.4117647   0.0588235), wk =   0.0065133
        k(  138) = (   0.0588235   0.4117647   0.1176471), wk =   0.0065133
        k(  139) = (   0.0588235   0.4117647   0.1764706), wk =   0.0065133
        k(  140) = (   0.0588235   0.4117647   0.2352941), wk =   0.0065133
        k(  141) = (   0.0588235   0.4117647   0.2941176), wk =   0.0065133
        k(  142) = (   0.0588235   0.4117647   0.3529412), wk =   0.0065133
        k(  143) = (   0.0588235   0.4117647   0.4117647), wk =   0.0065133
        k(  144) = (   0.0588235   0.4117647   0.4705882), wk =   0.0065133
        k(  145) = (   0.0588235   0.4705882   0.0000000), wk =   0.0032567
        k(  146) = (   0.0588235   0.4705882   0.0588235), wk =   0.0065133
        k(  147) = (   0.0588235   0.4705882   0.1176471), wk =   0.0065133
        k(  148) = (   0.0588235   0.4705882   0.1764706), wk =   0.0065133
        k(  149) = (   0.0588235   0.4705882   0.2352941), wk =   0.0065133
        k(  150) = (   0.0588235   0.4705882   0.2941176), wk =   0.0065133
        k(  151) = (   0.0588235   0.4705882   0.3529412), wk =   0.0065133
        k(  152) = (   0.0588235   0.4705882   0.4117647), wk =   0.0065133
        k(  153) = (   0.0588235   0.4705882   0.4705882), wk =   0.0065133
        k(  154) = (   0.1176471   0.1176471   0.0000000), wk =   0.0016283
        k(  155) = (   0.1176471   0.1176471   0.0588235), wk =   0.0032567
        k(  156) = (   0.1176471   0.1176471   0.1176471), wk =   0.0032567
        k(  157) = (   0.1176471   0.1176471   0.1764706), wk =   0.0032567
        k(  158) = (   0.1176471   0.1176471   0.2352941), wk =   0.0032567
        k(  159) = (   0.1176471   0.1176471   0.2941176), wk =   0.0032567
        k(  160) = (   0.1176471   0.1176471   0.3529412), wk =   0.0032567
        k(  161) = (   0.1176471   0.1176471   0.4117647), wk =   0.0032567
        k(  162) = (   0.1176471   0.1176471   0.4705882), wk =   0.0032567
        k(  163) = (   0.1176471   0.1764706   0.0000000), wk =   0.0032567
        k(  164) = (   0.1176471   0.1764706   0.0588235), wk =   0.0065133
        k(  165) = (   0.1176471   0.1764706   0.1176471), wk =   0.0065133
        k(  166) = (   0.1176471   0.1764706   0.1764706), wk =   0.0065133
        k(  167) = (   0.1176471   0.1764706   0.2352941), wk =   0.0065133
        k(  168) = (   0.1176471   0.1764706   0.2941176), wk =   0.0065133
        k(  169) = (   0.1176471   0.1764706   0.3529412), wk =   0.0065133
        k(  170) = (   0.1176471   0.1764706   0.4117647), wk =   0.0065133
        k(  171) = (   0.1176471   0.1764706   0.4705882), wk =   0.0065133
        k(  172) = (   0.1176471   0.2352941   0.0000000), wk =   0.0032567
        k(  173) = (   0.1176471   0.2352941   0.0588235), wk =   0.0065133
        k(  174) = (   0.1176471   0.2352941   0.1176471), wk =   0.0065133
        k(  175) = (   0.1176471   0.2352941   0.1764706), wk =   0.0065133
        k(  176) = (   0.1176471   0.2352941   0.2352941), wk =   0.0065133
        k(  177) = (   0.1176471   0.2352941   0.2941176), wk =   0.0065133
        k(  178) = (   0.1176471   0.2352941   0.3529412), wk =   0.0065133
        k(  179) = (   0.1176471   0.2352941   0.4117647), wk =   0.0065133
        k(  180) = (   0.1176471   0.2352941   0.4705882), wk =   0.0065133
        k(  181) = (   0.1176471   0.2941176   0.0000000), wk =   0.0032567
        k(  182) = (   0.1176471   0.2941176   0.0588235), wk =   0.0065133
        k(  183) = (   0.1176471   0.2941176   0.1176471), wk =   0.0065133
        k(  184) = (   0.1176471   0.2941176   0.1764706), wk =   0.0065133
        k(  185) = (   0.1176471   0.2941176   0.2352941), wk =   0.0065133
        k(  186) = (   0.1176471   0.2941176   0.2941176), wk =   0.0065133
        k(  187) = (   0.1176471   0.2941176   0.3529412), wk =   0.0065133
        k(  188) = (   0.1176471   0.2941176   0.4117647), wk =   0.0065133
        k(  189) = (   0.1176471   0.2941176   0.4705882), wk =   0.0065133
        k(  190) = (   0.1176471   0.3529412   0.0000000), wk =   0.0032567
        k(  191) = (   0.1176471   0.3529412   0.0588235), wk =   0.0065133
        k(  192) = (   0.1176471   0.3529412   0.1176471), wk =   0.0065133
        k(  193) = (   0.1176471   0.3529412   0.1764706), wk =   0.0065133
        k(  194) = (   0.1176471   0.3529412   0.2352941), wk =   0.0065133
        k(  195) = (   0.1176471   0.3529412   0.2941176), wk =   0.0065133
        k(  196) = (   0.1176471   0.3529412   0.3529412), wk =   0.0065133
        k(  197) = (   0.1176471   0.3529412   0.4117647), wk =   0.0065133
        k(  198) = (   0.1176471   0.3529412   0.4705882), wk =   0.0065133
        k(  199) = (   0.1176471   0.4117647   0.0000000), wk =   0.0032567
        k(  200) = (   0.1176471   0.4117647   0.0588235), wk =   0.0065133
        k(  201) = (   0.1176471   0.4117647   0.1176471), wk =   0.0065133
        k(  202) = (   0.1176471   0.4117647   0.1764706), wk =   0.0065133
        k(  203) = (   0.1176471   0.4117647   0.2352941), wk =   0.0065133
        k(  204) = (   0.1176471   0.4117647   0.2941176), wk =   0.0065133
        k(  205) = (   0.1176471   0.4117647   0.3529412), wk =   0.0065133
        k(  206) = (   0.1176471   0.4117647   0.4117647), wk =   0.0065133
        k(  207) = (   0.1176471   0.4117647   0.4705882), wk =   0.0065133
        k(  208) = (   0.1176471   0.4705882   0.0000000), wk =   0.0032567
        k(  209) = (   0.1176471   0.4705882   0.0588235), wk =   0.0065133
        k(  210) = (   0.1176471   0.4705882   0.1176471), wk =   0.0065133
        k(  211) = (   0.1176471   0.4705882   0.1764706), wk =   0.0065133
        k(  212) = (   0.1176471   0.4705882   0.2352941), wk =   0.0065133
        k(  213) = (   0.1176471   0.4705882   0.2941176), wk =   0.0065133
        k(  214) = (   0.1176471   0.4705882   0.3529412), wk =   0.0065133
        k(  215) = (   0.1176471   0.4705882   0.4117647), wk =   0.0065133
        k(  216) = (   0.1176471   0.4705882   0.4705882), wk =   0.0065133
        k(  217) = (   0.1764706   0.1764706   0.0000000), wk =   0.0016283
        k(  218) = (   0.1764706   0.1764706   0.0588235), wk =   0.0032567
        k(  219) = (   0.1764706   0.1764706   0.1176471), wk =   0.0032567
        k(  220) = (   0.1764706   0.1764706   0.1764706), wk =   0.0032567
        k(  221) = (   0.1764706   0.1764706   0.2352941), wk =   0.0032567
        k(  222) = (   0.1764706   0.1764706   0.2941176), wk =   0.0032567
        k(  223) = (   0.1764706   0.1764706   0.3529412), wk =   0.0032567
        k(  224) = (   0.1764706   0.1764706   0.4117647), wk =   0.0032567
        k(  225) = (   0.1764706   0.1764706   0.4705882), wk =   0.0032567
        k(  226) = (   0.1764706   0.2352941   0.0000000), wk =   0.0032567
        k(  227) = (   0.1764706   0.2352941   0.0588235), wk =   0.0065133
        k(  228) = (   0.1764706   0.2352941   0.1176471), wk =   0.0065133
        k(  229) = (   0.1764706   0.2352941   0.1764706), wk =   0.0065133
        k(  230) = (   0.1764706   0.2352941   0.2352941), wk =   0.0065133
        k(  231) = (   0.1764706   0.2352941   0.2941176), wk =   0.0065133
        k(  232) = (   0.1764706   0.2352941   0.3529412), wk =   0.0065133
        k(  233) = (   0.1764706   0.2352941   0.4117647), wk =   0.0065133
        k(  234) = (   0.1764706   0.2352941   0.4705882), wk =   0.0065133
        k(  235) = (   0.1764706   0.2941176   0.0000000), wk =   0.0032567
        k(  236) = (   0.1764706   0.2941176   0.0588235), wk =   0.0065133
        k(  237) = (   0.1764706   0.2941176   0.1176471), wk =   0.0065133
        k(  238) = (   0.1764706   0.2941176   0.1764706), wk =   0.0065133
        k(  239) = (   0.1764706   0.2941176   0.2352941), wk =   0.0065133
        k(  240) = (   0.1764706   0.2941176   0.2941176), wk =   0.0065133
        k(  241) = (   0.1764706   0.2941176   0.3529412), wk =   0.0065133
        k(  242) = (   0.1764706   0.2941176   0.4117647), wk =   0.0065133
        k(  243) = (   0.1764706   0.2941176   0.4705882), wk =   0.0065133
        k(  244) = (   0.1764706   0.3529412   0.0000000), wk =   0.0032567
        k(  245) = (   0.1764706   0.3529412   0.0588235), wk =   0.0065133
        k(  246) = (   0.1764706   0.3529412   0.1176471), wk =   0.0065133
        k(  247) = (   0.1764706   0.3529412   0.1764706), wk =   0.0065133
        k(  248) = (   0.1764706   0.3529412   0.2352941), wk =   0.0065133
        k(  249) = (   0.1764706   0.3529412   0.2941176), wk =   0.0065133
        k(  250) = (   0.1764706   0.3529412   0.3529412), wk =   0.0065133
        k(  251) = (   0.1764706   0.3529412   0.4117647), wk =   0.0065133
        k(  252) = (   0.1764706   0.3529412   0.4705882), wk =   0.0065133
        k(  253) = (   0.1764706   0.4117647   0.0000000), wk =   0.0032567
        k(  254) = (   0.1764706   0.4117647   0.0588235), wk =   0.0065133
        k(  255) = (   0.1764706   0.4117647   0.1176471), wk =   0.0065133
        k(  256) = (   0.1764706   0.4117647   0.1764706), wk =   0.0065133
        k(  257) = (   0.1764706   0.4117647   0.2352941), wk =   0.0065133
        k(  258) = (   0.1764706   0.4117647   0.2941176), wk =   0.0065133
        k(  259) = (   0.1764706   0.4117647   0.3529412), wk =   0.0065133
        k(  260) = (   0.1764706   0.4117647   0.4117647), wk =   0.0065133
        k(  261) = (   0.1764706   0.4117647   0.4705882), wk =   0.0065133
        k(  262) = (   0.1764706   0.4705882   0.0000000), wk =   0.0032567
        k(  263) = (   0.1764706   0.4705882   0.0588235), wk =   0.0065133
        k(  264) = (   0.1764706   0.4705882   0.1176471), wk =   0.0065133
        k(  265) = (   0.1764706   0.4705882   0.1764706), wk =   0.0065133
        k(  266) = (   0.1764706   0.4705882   0.2352941), wk =   0.0065133
        k(  267) = (   0.1764706   0.4705882   0.2941176), wk =   0.0065133
        k(  268) = (   0.1764706   0.4705882   0.3529412), wk =   0.0065133
        k(  269) = (   0.1764706   0.4705882   0.4117647), wk =   0.0065133
        k(  270) = (   0.1764706   0.4705882   0.4705882), wk =   0.0065133
        k(  271) = (   0.2352941   0.2352941   0.0000000), wk =   0.0016283
        k(  272) = (   0.2352941   0.2352941   0.0588235), wk =   0.0032567
        k(  273) = (   0.2352941   0.2352941   0.1176471), wk =   0.0032567
        k(  274) = (   0.2352941   0.2352941   0.1764706), wk =   0.0032567
        k(  275) = (   0.2352941   0.2352941   0.2352941), wk =   0.0032567
        k(  276) = (   0.2352941   0.2352941   0.2941176), wk =   0.0032567
        k(  277) = (   0.2352941   0.2352941   0.3529412), wk =   0.0032567
        k(  278) = (   0.2352941   0.2352941   0.4117647), wk =   0.0032567
        k(  279) = (   0.2352941   0.2352941   0.4705882), wk =   0.0032567
        k(  280) = (   0.2352941   0.2941176   0.0000000), wk =   0.0032567
        k(  281) = (   0.2352941   0.2941176   0.0588235), wk =   0.0065133
        k(  282) = (   0.2352941   0.2941176   0.1176471), wk =   0.0065133
        k(  283) = (   0.2352941   0.2941176   0.1764706), wk =   0.0065133
        k(  284) = (   0.2352941   0.2941176   0.2352941), wk =   0.0065133
        k(  285) = (   0.2352941   0.2941176   0.2941176), wk =   0.0065133
        k(  286) = (   0.2352941   0.2941176   0.3529412), wk =   0.0065133
        k(  287) = (   0.2352941   0.2941176   0.4117647), wk =   0.0065133
        k(  288) = (   0.2352941   0.2941176   0.4705882), wk =   0.0065133
        k(  289) = (   0.2352941   0.3529412   0.0000000), wk =   0.0032567
        k(  290) = (   0.2352941   0.3529412   0.0588235), wk =   0.0065133
        k(  291) = (   0.2352941   0.3529412   0.1176471), wk =   0.0065133
        k(  292) = (   0.2352941   0.3529412   0.1764706), wk =   0.0065133
        k(  293) = (   0.2352941   0.3529412   0.2352941), wk =   0.0065133
        k(  294) = (   0.2352941   0.3529412   0.2941176), wk =   0.0065133
        k(  295) = (   0.2352941   0.3529412   0.3529412), wk =   0.0065133
        k(  296) = (   0.2352941   0.3529412   0.4117647), wk =   0.0065133
        k(  297) = (   0.2352941   0.3529412   0.4705882), wk =   0.0065133
        k(  298) = (   0.2352941   0.4117647   0.0000000), wk =   0.0032567
        k(  299) = (   0.2352941   0.4117647   0.0588235), wk =   0.0065133
        k(  300) = (   0.2352941   0.4117647   0.1176471), wk =   0.0065133
        k(  301) = (   0.2352941   0.4117647   0.1764706), wk =   0.0065133
        k(  302) = (   0.2352941   0.4117647   0.2352941), wk =   0.0065133
        k(  303) = (   0.2352941   0.4117647   0.2941176), wk =   0.0065133
        k(  304) = (   0.2352941   0.4117647   0.3529412), wk =   0.0065133
        k(  305) = (   0.2352941   0.4117647   0.4117647), wk =   0.0065133
        k(  306) = (   0.2352941   0.4117647   0.4705882), wk =   0.0065133
        k(  307) = (   0.2352941   0.4705882   0.0000000), wk =   0.0032567
        k(  308) = (   0.2352941   0.4705882   0.0588235), wk =   0.0065133
        k(  309) = (   0.2352941   0.4705882   0.1176471), wk =   0.0065133
        k(  310) = (   0.2352941   0.4705882   0.1764706), wk =   0.0065133
        k(  311) = (   0.2352941   0.4705882   0.2352941), wk =   0.0065133
        k(  312) = (   0.2352941   0.4705882   0.2941176), wk =   0.0065133
        k(  313) = (   0.2352941   0.4705882   0.3529412), wk =   0.0065133
        k(  314) = (   0.2352941   0.4705882   0.4117647), wk =   0.0065133
        k(  315) = (   0.2352941   0.4705882   0.4705882), wk =   0.0065133
        k(  316) = (   0.2941176   0.2941176   0.0000000), wk =   0.0016283
        k(  317) = (   0.2941176   0.2941176   0.0588235), wk =   0.0032567
        k(  318) = (   0.2941176   0.2941176   0.1176471), wk =   0.0032567
        k(  319) = (   0.2941176   0.2941176   0.1764706), wk =   0.0032567
        k(  320) = (   0.2941176   0.2941176   0.2352941), wk =   0.0032567
        k(  321) = (   0.2941176   0.2941176   0.2941176), wk =   0.0032567
        k(  322) = (   0.2941176   0.2941176   0.3529412), wk =   0.0032567
        k(  323) = (   0.2941176   0.2941176   0.4117647), wk =   0.0032567
        k(  324) = (   0.2941176   0.2941176   0.4705882), wk =   0.0032567
        k(  325) = (   0.2941176   0.3529412   0.0000000), wk =   0.0032567
        k(  326) = (   0.2941176   0.3529412   0.0588235), wk =   0.0065133
        k(  327) = (   0.2941176   0.3529412   0.1176471), wk =   0.0065133
        k(  328) = (   0.2941176   0.3529412   0.1764706), wk =   0.0065133
        k(  329) = (   0.2941176   0.3529412   0.2352941), wk =   0.0065133
        k(  330) = (   0.2941176   0.3529412   0.2941176), wk =   0.0065133
        k(  331) = (   0.2941176   0.3529412   0.3529412), wk =   0.0065133
        k(  332) = (   0.2941176   0.3529412   0.4117647), wk =   0.0065133
        k(  333) = (   0.2941176   0.3529412   0.4705882), wk =   0.0065133
        k(  334) = (   0.2941176   0.4117647   0.0000000), wk =   0.0032567
        k(  335) = (   0.2941176   0.4117647   0.0588235), wk =   0.0065133
        k(  336) = (   0.2941176   0.4117647   0.1176471), wk =   0.0065133
        k(  337) = (   0.2941176   0.4117647   0.1764706), wk =   0.0065133
        k(  338) = (   0.2941176   0.4117647   0.2352941), wk =   0.0065133
        k(  339) = (   0.2941176   0.4117647   0.2941176), wk =   0.0065133
        k(  340) = (   0.2941176   0.4117647   0.3529412), wk =   0.0065133
        k(  341) = (   0.2941176   0.4117647   0.4117647), wk =   0.0065133
        k(  342) = (   0.2941176   0.4117647   0.4705882), wk =   0.0065133
        k(  343) = (   0.2941176   0.4705882   0.0000000), wk =   0.0032567
        k(  344) = (   0.2941176   0.4705882   0.0588235), wk =   0.0065133
        k(  345) = (   0.2941176   0.4705882   0.1176471), wk =   0.0065133
        k(  346) = (   0.2941176   0.4705882   0.1764706), wk =   0.0065133
        k(  347) = (   0.2941176   0.4705882   0.2352941), wk =   0.0065133
        k(  348) = (   0.2941176   0.4705882   0.2941176), wk =   0.0065133
        k(  349) = (   0.2941176   0.4705882   0.3529412), wk =   0.0065133
        k(  350) = (   0.2941176   0.4705882   0.4117647), wk =   0.0065133
        k(  351) = (   0.2941176   0.4705882   0.4705882), wk =   0.0065133
        k(  352) = (   0.3529412   0.3529412   0.0000000), wk =   0.0016283
        k(  353) = (   0.3529412   0.3529412   0.0588235), wk =   0.0032567
        k(  354) = (   0.3529412   0.3529412   0.1176471), wk =   0.0032567
        k(  355) = (   0.3529412   0.3529412   0.1764706), wk =   0.0032567
        k(  356) = (   0.3529412   0.3529412   0.2352941), wk =   0.0032567
        k(  357) = (   0.3529412   0.3529412   0.2941176), wk =   0.0032567
        k(  358) = (   0.3529412   0.3529412   0.3529412), wk =   0.0032567
        k(  359) = (   0.3529412   0.3529412   0.4117647), wk =   0.0032567
        k(  360) = (   0.3529412   0.3529412   0.4705882), wk =   0.0032567
        k(  361) = (   0.3529412   0.4117647   0.0000000), wk =   0.0032567
        k(  362) = (   0.3529412   0.4117647   0.0588235), wk =   0.0065133
        k(  363) = (   0.3529412   0.4117647   0.1176471), wk =   0.0065133
        k(  364) = (   0.3529412   0.4117647   0.1764706), wk =   0.0065133
        k(  365) = (   0.3529412   0.4117647   0.2352941), wk =   0.0065133
        k(  366) = (   0.3529412   0.4117647   0.2941176), wk =   0.0065133
        k(  367) = (   0.3529412   0.4117647   0.3529412), wk =   0.0065133
        k(  368) = (   0.3529412   0.4117647   0.4117647), wk =   0.0065133
        k(  369) = (   0.3529412   0.4117647   0.4705882), wk =   0.0065133
        k(  370) = (   0.3529412   0.4705882   0.0000000), wk =   0.0032567
        k(  371) = (   0.3529412   0.4705882   0.0588235), wk =   0.0065133
        k(  372) = (   0.3529412   0.4705882   0.1176471), wk =   0.0065133
        k(  373) = (   0.3529412   0.4705882   0.1764706), wk =   0.0065133
        k(  374) = (   0.3529412   0.4705882   0.2352941), wk =   0.0065133
        k(  375) = (   0.3529412   0.4705882   0.2941176), wk =   0.0065133
        k(  376) = (   0.3529412   0.4705882   0.3529412), wk =   0.0065133
        k(  377) = (   0.3529412   0.4705882   0.4117647), wk =   0.0065133
        k(  378) = (   0.3529412   0.4705882   0.4705882), wk =   0.0065133
        k(  379) = (   0.4117647   0.4117647   0.0000000), wk =   0.0016283
        k(  380) = (   0.4117647   0.4117647   0.0588235), wk =   0.0032567
        k(  381) = (   0.4117647   0.4117647   0.1176471), wk =   0.0032567
        k(  382) = (   0.4117647   0.4117647   0.1764706), wk =   0.0032567
        k(  383) = (   0.4117647   0.4117647   0.2352941), wk =   0.0032567
        k(  384) = (   0.4117647   0.4117647   0.2941176), wk =   0.0032567
        k(  385) = (   0.4117647   0.4117647   0.3529412), wk =   0.0032567
        k(  386) = (   0.4117647   0.4117647   0.4117647), wk =   0.0032567
        k(  387) = (   0.4117647   0.4117647   0.4705882), wk =   0.0032567
        k(  388) = (   0.4117647   0.4705882   0.0000000), wk =   0.0032567
        k(  389) = (   0.4117647   0.4705882   0.0588235), wk =   0.0065133
        k(  390) = (   0.4117647   0.4705882   0.1176471), wk =   0.0065133
        k(  391) = (   0.4117647   0.4705882   0.1764706), wk =   0.0065133
        k(  392) = (   0.4117647   0.4705882   0.2352941), wk =   0.0065133
        k(  393) = (   0.4117647   0.4705882   0.2941176), wk =   0.0065133
        k(  394) = (   0.4117647   0.4705882   0.3529412), wk =   0.0065133
        k(  395) = (   0.4117647   0.4705882   0.4117647), wk =   0.0065133
        k(  396) = (   0.4117647   0.4705882   0.4705882), wk =   0.0065133
        k(  397) = (   0.4705882   0.4705882   0.0000000), wk =   0.0016283
        k(  398) = (   0.4705882   0.4705882   0.0588235), wk =   0.0032567
        k(  399) = (   0.4705882   0.4705882   0.1176471), wk =   0.0032567
        k(  400) = (   0.4705882   0.4705882   0.1764706), wk =   0.0032567
        k(  401) = (   0.4705882   0.4705882   0.2352941), wk =   0.0032567
        k(  402) = (   0.4705882   0.4705882   0.2941176), wk =   0.0032567
        k(  403) = (   0.4705882   0.4705882   0.3529412), wk =   0.0032567
        k(  404) = (   0.4705882   0.4705882   0.4117647), wk =   0.0032567
        k(  405) = (   0.4705882   0.4705882   0.4705882), wk =   0.0032567

     Dense  grid:    19069 G-vectors     FFT dimensions: (  36,  36,  36)

     Dynamical RAM for                 wfc:       0.05 MB

     Dynamical RAM for     wfc (w. buffer):      21.20 MB

     Dynamical RAM for           str. fact:       0.04 MB

     Dynamical RAM for           local pot:       0.00 MB

     Dynamical RAM for          nlocal pot:       0.14 MB

     Dynamical RAM for                qrad:       3.98 MB

     Dynamical RAM for          rho,v,vnew:       0.10 MB

     Dynamical RAM for               rhoin:       0.03 MB

     Dynamical RAM for            rho*nmix:       0.23 MB

     Dynamical RAM for           G-vectors:       0.06 MB

     Dynamical RAM for          h,s,v(r/c):       0.07 MB

     Dynamical RAM for          <psi|beta>:       0.03 MB

     Dynamical RAM for                 psi:       0.21 MB

     Dynamical RAM for                hpsi:       0.21 MB

     Dynamical RAM for                spsi:       0.21 MB

     Dynamical RAM for      wfcinit/wfcrot:       0.17 MB

     Dynamical RAM for           addusdens:       2.75 MB

     Dynamical RAM for          addusforce:       2.93 MB

     Estimated static dynamical RAM per process >      25.95 MB

     Estimated max dynamical RAM per process >      28.88 MB

     Estimated total dynamical RAM >     577.54 MB

     Check: negative/imaginary core charge=   -0.000004    0.000000

     Initial potential from superposition of free atoms
     Check: negative starting charge=   -0.060355

     starting charge   45.96634, renormalised to   47.00000

     negative rho (up, down):  6.171E-02 0.000E+00
     Starting wfcs are   38 randomized atomic wfcs

     total cpu time spent up to now is        3.7 secs

     Self-consistent Calculation

     iteration #  1     ecut=    50.00 Ry     beta= 0.70
     Davidson diagonalization with overlap
     ethr =  1.00E-02,  avg # of iterations =  2.0

     negative rho (up, down):  6.084E-02 0.000E+00

     total cpu time spent up to now is       12.8 secs

     total energy              =    -569.43864700 Ry
     Harris-Foulkes estimate   =    -571.14915551 Ry
     estimated scf accuracy    <       2.05457022 Ry

     iteration #  2     ecut=    50.00 Ry     beta= 0.70
     Davidson diagonalization with overlap
     ethr =  4.37E-03,  avg # of iterations =  3.0

     negative rho (up, down):  6.148E-02 0.000E+00

     total cpu time spent up to now is       27.0 secs

     total energy              =    -570.10242716 Ry
     Harris-Foulkes estimate   =    -573.88058792 Ry
     estimated scf accuracy    <      10.57393126 Ry

     iteration #  3     ecut=    50.00 Ry     beta= 0.70
     Davidson diagonalization with overlap
     ethr =  4.37E-03,  avg # of iterations =  2.8

     negative rho (up, down):  6.221E-02 0.000E+00

     total cpu time spent up to now is       39.5 secs

     total energy              =    -570.75269281 Ry
     Harris-Foulkes estimate   =    -570.98615393 Ry
     estimated scf accuracy    <       0.86146264 Ry

     iteration #  4     ecut=    50.00 Ry     beta= 0.70
     Davidson diagonalization with overlap
     ethr =  1.83E-03,  avg # of iterations =  1.7

     negative rho (up, down):  6.263E-02 0.000E+00

     total cpu time spent up to now is       48.0 secs

     total energy              =    -570.84776177 Ry
     Harris-Foulkes estimate   =    -570.87354923 Ry
     estimated scf accuracy    <       0.07436555 Ry

     iteration #  5     ecut=    50.00 Ry     beta= 0.70
     Davidson diagonalization with overlap
     ethr =  1.58E-04,  avg # of iterations =  3.4

     negative rho (up, down):  6.282E-02 0.000E+00

     total cpu time spent up to now is       61.3 secs

     total energy              =    -570.86196084 Ry
     Harris-Foulkes estimate   =    -570.87851046 Ry
     estimated scf accuracy    <       0.10455933 Ry

     iteration #  6     ecut=    50.00 Ry     beta= 0.70
     Davidson diagonalization with overlap
     ethr =  1.58E-04,  avg # of iterations =  1.8

     negative rho (up, down):  6.300E-02 0.000E+00

     total cpu time spent up to now is       70.1 secs

     total energy              =    -570.85883830 Ry
     Harris-Foulkes estimate   =    -570.87924748 Ry
     estimated scf accuracy    <       0.10674263 Ry

     iteration #  7     ecut=    50.00 Ry     beta= 0.70
     Davidson diagonalization with overlap
     ethr =  1.58E-04,  avg # of iterations =  1.0

     negative rho (up, down):  6.298E-02 0.000E+00

     total cpu time spent up to now is       77.3 secs

     total energy              =    -570.86854528 Ry
     Harris-Foulkes estimate   =    -570.86862815 Ry
     estimated scf accuracy    <       0.00062199 Ry

     iteration #  8     ecut=    50.00 Ry     beta= 0.70
     Davidson diagonalization with overlap
     ethr =  1.32E-06,  avg # of iterations =  5.0

     negative rho (up, down):  6.297E-02 0.000E+00

     total cpu time spent up to now is       95.3 secs

     total energy              =    -570.86859578 Ry
     Harris-Foulkes estimate   =    -570.86883756 Ry
     estimated scf accuracy    <       0.00122305 Ry

     iteration #  9     ecut=    50.00 Ry     beta= 0.70
     Davidson diagonalization with overlap
     ethr =  1.32E-06,  avg # of iterations =  1.2

     negative rho (up, down):  6.297E-02 0.000E+00

     total cpu time spent up to now is      103.0 secs

     total energy              =    -570.86872570 Ry
     Harris-Foulkes estimate   =    -570.86872453 Ry
     estimated scf accuracy    <       0.00000995 Ry

     iteration # 10     ecut=    50.00 Ry     beta= 0.70
     Davidson diagonalization with overlap
     ethr =  2.12E-08,  avg # of iterations =  3.0

     negative rho (up, down):  6.297E-02 0.000E+00

     total cpu time spent up to now is      115.7 secs

     total energy              =    -570.86872483 Ry
     Harris-Foulkes estimate   =    -570.86873197 Ry
     estimated scf accuracy    <       0.00004592 Ry

     iteration # 11     ecut=    50.00 Ry     beta= 0.70
     Davidson diagonalization with overlap
     ethr =  2.12E-08,  avg # of iterations =  1.5

     negative rho (up, down):  6.297E-02 0.000E+00

     total cpu time spent up to now is      123.9 secs

     total energy              =    -570.86872676 Ry
     Harris-Foulkes estimate   =    -570.86872727 Ry
     estimated scf accuracy    <       0.00000277 Ry

     iteration # 12     ecut=    50.00 Ry     beta= 0.70
     Davidson diagonalization with overlap
     ethr =  5.88E-09,  avg # of iterations =  2.0

     negative rho (up, down):  6.297E-02 0.000E+00

     total cpu time spent up to now is      133.5 secs

     End of self-consistent calculation

          k = 0.0000 0.0000 0.0000 (  2373 PWs)   bands (ev):

  -104.2811 -61.6717 -61.6072 -61.6072 -23.1067  -8.6960  -7.1616  -7.0878
    -5.1004  -5.1004  -5.0976   5.1611   5.1790   5.1790   5.8595   5.8595
     5.9797   6.5559   6.6755   8.1569   8.1569   8.1811   8.7589   8.7589
     8.8676  15.0605  15.1130  15.3382  17.5691

     occupation numbers 
     1.0000   1.0000   1.0000   1.0000   1.0000   1.0000   1.0000   1.0000
     1.0000   1.0000   1.0000   1.0000   1.0000   1.0000   1.0000   1.0000
     1.0000   1.0000   1.0000   1.0000   1.0000   1.0000   1.0000   1.0000
     1.0000   0.0000   0.0000   0.0000   0.0000

          k = 0.0000 0.0000 0.0586 (  2385 PWs)   bands (ev):

  -104.2811 -61.6717 -61.6072 -61.6072 -23.1059  -8.6926  -7.1804  -7.0866
    -5.0984  -5.0984  -5.0767   5.0498   5.1746   5.1746   5.8498   5.8498
     5.9802   6.6300   6.6741   8.1541   8.1585   8.1585   8.7553   8.7553
     8.8537  15.1194  15.1682  15.4226  17.6149

     occupation numbers 
     1.0000   1.0000   1.0000   1.0000   1.0000   1.0000   1.0000   1.0000
     1.0000   1.0000   1.0000   1.0000   1.0000   1.0000   1.0000   1.0000
     1.0000   1.0000   1.0000   1.0000   1.0000   1.0000   1.0000   1.0000
     1.0000   0.0000   0.0000   0.0000   0.0000

          k = 0.0000 0.0000 0.1171 (  2385 PWs)   bands (ev):

  -104.2811 -61.6717 -61.6072 -61.6072 -23.1036  -8.6832  -7.2311  -7.0830
    -5.0927  -5.0927  -5.0192   4.7863   5.1625   5.1625   5.8215   5.8215
     5.9816   6.6698   6.7796   8.0792   8.1634   8.1634   8.7455   8.7455
     8.8253  15.2878  15.3292  15.6673  17.6260

     occupation numbers 
     1.0000   1.0000   1.0000   1.0000   1.0000   1.0000   1.0000   1.0000
     1.0000   1.0000   1.0000   1.0000   1.0000   1.0000   1.0000   1.0000
     1.0000   1.0000   1.0000   1.0000   1.0000   1.0000   1.0000   1.0000
     1.0000   0.0000   0.0000   0.0000   0.0000

          k = 0.0000 0.0000 0.1757 (  2405 PWs)   bands (ev):

  -104.2811 -61.6717 -61.6072 -61.6072 -23.1001  -8.6703  -7.3004  -7.0777
[...]
    -5.3001  -5.2941  -5.1798   2.7393   3.8295   3.8676   4.7116   4.7983
     4.8149   8.1078   8.1873   8.1888   8.9528   8.9613   9.0897  10.9375
    10.9773  16.7583  16.8551  16.8656  19.1355

     occupation numbers 
     1.0000   1.0000   1.0000   1.0000   1.0000   1.0000   1.0000   1.0000
     1.0000   1.0000   1.0000   1.0000   1.0000   1.0000   1.0000   1.0000
     1.0000   1.0000   1.0000   1.0000   1.0644   1.0583   0.0000   0.0000
     0.0000   0.0000   0.0000   0.0000   0.0000

          k = 0.4118 0.4118 0.4685 (  2376 PWs)   bands (ev):

  -104.2098 -61.5598 -61.5598 -61.5527 -23.0479  -7.5729  -7.4546  -7.4116
    -5.3359  -5.2816  -5.2371   2.6722   3.8250   3.8303   4.7202   4.7880
     4.7900   8.1433   8.1968   8.2016   9.0035   9.0294   9.1220  10.9737
    11.0918  16.6871  16.7554  16.7777  19.1347

     occupation numbers 
     1.0000   1.0000   1.0000   1.0000   1.0000   1.0000   1.0000   1.0000
     1.0000   1.0000   1.0000   1.0000   1.0000   1.0000   1.0000   1.0000
     1.0000   1.0000   1.0000   1.0000   0.0004   0.0000   0.0000   0.0000
     0.0000   0.0000   0.0000   0.0000   0.0000

          k = 0.4118 0.4706 0.0000 (  2392 PWs)   bands (ev):

  -104.2098 -61.5599 -61.5599 -61.5527 -23.0650  -7.9825  -7.7467  -7.4852
    -4.9919  -4.8604  -4.8360   3.1359   3.7902   4.2590   5.2280   5.2500
     6.0304   7.5433   7.6389   7.7784   7.8068   8.3144   8.3450   9.0456
    11.1042  17.6038  17.7345  18.9576  19.0414

     occupation numbers 
     1.0000   1.0000   1.0000   1.0000   1.0000   1.0000   1.0000   1.0000
     1.0000   1.0000   1.0000   1.0000   1.0000   1.0000   1.0000   1.0000
     1.0000   1.0000   1.0000   1.0000   1.0000   1.0000   1.0000   0.0000
     0.0000   0.0000   0.0000   0.0000   0.0000

          k = 0.4118 0.4706 0.0586 (  2389 PWs)   bands (ev):

  -104.2098 -61.5599 -61.5599 -61.5527 -23.0644  -7.9710  -7.7380  -7.4797
    -5.0093  -4.8706  -4.8497   3.1299   3.7906   4.2769   5.1993   5.2264
     5.8200   7.6196   7.6895   7.8130   7.9475   8.3393   8.3730   9.0482
    11.1041  17.5771  17.7609  18.7829  18.8844

     occupation numbers 
     1.0000   1.0000   1.0000   1.0000   1.0000   1.0000   1.0000   1.0000
     1.0000   1.0000   1.0000   1.0000   1.0000   1.0000   1.0000   1.0000
     1.0000   1.0000   1.0000   1.0000   1.0000   1.0000   1.0000   0.0000
     0.0000   0.0000   0.0000   0.0000   0.0000

          k = 0.4118 0.4706 0.1171 (  2389 PWs)   bands (ev):

  -104.2098 -61.5599 -61.5599 -61.5527 -23.0626  -7.9372  -7.7128  -7.4641
    -5.0559  -4.9061  -4.8861   3.1101   3.7916   4.3277   5.1017   5.1624
     5.4145   7.7253   7.8006   7.8638   8.2198   8.3862   8.6228   9.0557
    11.1038  17.4896  17.8451  18.4373  18.5250

     occupation numbers 
     1.0000   1.0000   1.0000   1.0000   1.0000   1.0000   1.0000   1.0000
     1.0000   1.0000   1.0000   1.0000   1.0000   1.0000   1.0000   1.0000
     1.0000   1.0000   1.0000   1.0000   1.0000   1.0000   1.0000   0.0000
     0.0000   0.0000   0.0000   0.0000   0.0000

          k = 0.4118 0.4706 0.1757 (  2376 PWs)   bands (ev):

  -104.2098 -61.5599 -61.5599 -61.5527 -23.0599  -7.8833  -7.6734  -7.4415
    -5.1204  -4.9700  -4.9386   3.0711   3.7932   4.4026   4.8238   5.0741
     5.1466   7.8296   7.9310   7.9516   8.3528   8.4644   9.0669   9.1505
    11.1032  17.3511  17.8844  18.0757  18.1853

     occupation numbers 
     1.0000   1.0000   1.0000   1.0000   1.0000   1.0000   1.0000   1.0000
     1.0000   1.0000   1.0000   1.0000   1.0000   1.0000   1.0000   1.0000
     1.0000   1.0000   1.0000   1.0000   1.0000   1.0000   0.0000   0.0000
     0.0000   0.0000   0.0000   0.0000   0.0000

          k = 0.4118 0.4706 0.2342 (  2375 PWs)   bands (ev):

  -104.2098 -61.5599 -61.5599 -61.5527 -23.0566  -7.8130  -7.6236  -7.4170
    -5.1907  -5.0524  -5.0067   3.0041   3.7950   4.4501   4.4929   4.9798
     5.0263   7.9206   8.0429   8.0503   8.4973   8.5903   9.0801   9.7144
    11.1022  17.1816  17.5830  17.6604  18.3162

     occupation numbers 
     1.0000   1.0000   1.0000   1.0000   1.0000   1.0000   1.0000   1.0000
     1.0000   1.0000   1.0000   1.0000   1.0000   1.0000   1.0000   1.0000
     1.0000   1.0000   1.0000   1.0000   1.0000   1.0000   0.0000   0.0000
     0.0000   0.0000   0.0000   0.0000   0.0000

          k = 0.4118 0.4706 0.2928 (  2375 PWs)   bands (ev):

  -104.2098 -61.5599 -61.5598 -61.5527 -23.0532  -7.7317  -7.5691  -7.3969
    -5.2554  -5.1411  -5.0853   2.9033   3.7967   4.1576   4.5775   4.8934
     4.9353   8.0057   8.1196   8.1247   8.6752   8.7525   9.0939  10.2312
    11.1016  17.0021  17.2449  17.2804  18.5813

     occupation numbers 
     1.0000   1.0000   1.0000   1.0000   1.0000   1.0000   1.0000   1.0000
     1.0000   1.0000   1.0000   1.0000   1.0000   1.0000   1.0000   1.0000
     1.0000   1.0000   1.0000   1.0000   1.0000   1.0000   0.0000   0.0000
     0.0000   0.0000   0.0000   0.0000   0.0000

          k = 0.4118 0.4706 0.3513 (  2374 PWs)   bands (ev):

  -104.2098 -61.5598 -61.5598 -61.5527 -23.0502  -7.6462  -7.5171  -7.3881
    -5.3048  -5.2236  -5.1657   2.7800   3.7973   3.9662   4.6520   4.8238
     4.8640   8.0830   8.1682   8.1729   8.8530   8.9153   9.1077  10.6560
    11.1038  16.8329  16.9633  16.9730  18.8722

     occupation numbers 
     1.0000   1.0000   1.0000   1.0000   1.0000   1.0000   1.0000   1.0000
     1.0000   1.0000   1.0000   1.0000   1.0000   1.0000   1.0000   1.0000
     1.0000   1.0000   1.0000   1.0000   1.0000   1.0000   0.0000   0.0000
     0.0000   0.0000   0.0000   0.0000   0.0000

          k = 0.4118 0.4706 0.4099 (  2372 PWs)   bands (ev):

  -104.2098 -61.5598 -61.5598 -61.5527 -23.0479  -7.5649  -7.4755  -7.3966
    -5.3324  -5.2867  -5.2377   2.6674   3.7948   3.8638   4.7040   4.7774
     4.8145   8.1442   8.1975   8.2008   8.9943   9.0369   9.1264  10.9420
    11.1235  16.6906  16.7624  16.7668  19.1158

     occupation numbers 
     1.0000   1.0000   1.0000   1.0000   1.0000   1.0000   1.0000   1.0000
     1.0000   1.0000   1.0000   1.0000   1.0000   1.0000   1.0000   1.0000
     1.0000   1.0000   1.0000   1.0000   0.0095   0.0000   0.0000   0.0000
     0.0000   0.0000   0.0000   0.0000   0.0000

          k = 0.4118 0.4706 0.4685 (  2374 PWs)   bands (ev):

  -104.2098 -61.5598 -61.5598 -61.5527 -23.0467  -7.5013  -7.4496  -7.4230
    -5.3407  -5.3135  -5.2910   2.6011   3.7863   3.8274   4.7234   4.7617
     4.7890   8.1804   8.2109   8.2121   9.0724   9.0835   9.1568  11.0363
    11.1889  16.6001  16.6590  16.6713  19.2009

     occupation numbers 
     1.0000   1.0000   1.0000   1.0000   1.0000   1.0000   1.0000   1.0000
     1.0000   1.0000   1.0000   1.0000   1.0000   1.0000   1.0000   1.0000
     1.0000   1.0000   1.0000   1.0000   0.0000   0.0000   0.0000   0.0000
     0.0000   0.0000   0.0000   0.0000   0.0000

          k = 0.4706 0.4706 0.0000 (  2392 PWs)   bands (ev):

  -104.2098 -61.5599 -61.5599 -61.5527 -23.0635  -7.8466  -7.7653  -7.6061
    -4.9880  -4.8490  -4.8467   3.0741   3.7560   4.2017   5.2267   5.2336
     6.0313   7.6292   7.6871   7.7322   7.7887   8.3212   8.3270   9.0971
    11.2144  17.5565  17.7909  19.0406  19.0428

     occupation numbers 
     1.0000   1.0000   1.0000   1.0000   1.0000   1.0000   1.0000   1.0000
     1.0000   1.0000   1.0000   1.0000   1.0000   1.0000   1.0000   1.0000
     1.0000   1.0000   1.0000   1.0000   1.0000   1.0000   1.0000   0.0000
     0.0000   0.0000   0.0000   0.0000   0.0000

          k = 0.4706 0.4706 0.0586 (  2388 PWs)   bands (ev):

  -104.2098 -61.5599 -61.5599 -61.5527 -23.0629  -7.8363  -7.7558  -7.5985
    -5.0021  -4.8646  -4.8609   3.0677   3.7563   4.2215   5.2033   5.2117
     5.8087   7.6933   7.7241   7.8004   7.9513   8.3341   8.3463   9.0996
    11.2146  17.5223  17.8252  18.8801  18.8845

     occupation numbers 
     1.0000   1.0000   1.0000   1.0000   1.0000   1.0000   1.0000   1.0000
     1.0000   1.0000   1.0000   1.0000   1.0000   1.0000   1.0000   1.0000
     1.0000   1.0000   1.0000   1.0000   1.0000   1.0000   1.0000   0.0000
     0.0000   0.0000   0.0000   0.0000   0.0000

          k = 0.4706 0.4706 0.1171 (  2387 PWs)   bands (ev):

  -104.2098 -61.5599 -61.5599 -61.5527 -23.0612  -7.8062  -7.7280  -7.5768
    -5.0420  -4.9099  -4.9025   3.0465   3.7572   4.2777   5.1339   5.1523
     5.3657   7.7885   7.8223   7.8487   8.3304   8.3764   8.5363   9.1068
    11.2153  17.4245  17.9256  18.5092  18.5168

     occupation numbers 
     1.0000   1.0000   1.0000   1.0000   1.0000   1.0000   1.0000   1.0000
     1.0000   1.0000   1.0000   1.0000   1.0000   1.0000   1.0000   1.0000
     1.0000   1.0000   1.0000   1.0000   1.0000   1.0000   1.0000   0.0000
     0.0000   0.0000   0.0000   0.0000   0.0000

          k = 0.4706 0.4706 0.1757 (  2371 PWs)   bands (ev):

  -104.2098 -61.5599 -61.5599 -61.5526 -23.0585  -7.7586  -7.6843  -7.5438
    -5.1010  -4.9800  -4.9675   3.0051   3.7586   4.3607   4.8646   5.0709
     5.0827   7.8758   7.9464   7.9478   8.4436   8.4594   9.1103   9.1177
    11.2161  17.2771  18.0096  18.0670  18.1601

     occupation numbers 
     1.0000   1.0000   1.0000   1.0000   1.0000   1.0000   1.0000   1.0000
     1.0000   1.0000   1.0000   1.0000   1.0000   1.0000   1.0000   1.0000
     1.0000   1.0000   1.0000   1.0000   1.0000   1.0000   0.0000   0.0000
     0.0000   0.0000   0.0000   0.0000   0.0000

          k = 0.4706 0.4706 0.2342 (  2381 PWs)   bands (ev):

  -104.2098 -61.5599 -61.5599 -61.5527 -23.0552  -7.6975  -7.6288  -7.5042
    -5.1697  -5.0671  -5.0491   2.9352   3.7602   4.4563   4.4684   4.9833
     4.9847   7.9559   8.0544   8.0556   8.5822   8.5934   9.1308   9.7004
    11.2169  17.0997  17.6148  17.6260  18.3443

     occupation numbers 
     1.0000   1.0000   1.0000   1.0000   1.0000   1.0000   1.0000   1.0000
     1.0000   1.0000   1.0000   1.0000   1.0000   1.0000   1.0000   1.0000
     1.0000   1.0000   1.0000   1.0000   1.0000   1.0000   0.0000   0.0000
     0.0000   0.0000   0.0000   0.0000   0.0000

          k = 0.4706 0.4706 0.2928 (  2378 PWs)   bands (ev):

  -104.2098 -61.5599 -61.5599 -61.5527 -23.0519  -7.6286  -7.5674  -7.4645
    -5.2381  -5.1610  -5.1381   2.8323   3.7618   4.1622   4.5535   4.9009
     4.9023   8.0395   8.1315   8.1322   8.7566   8.7655   9.1444  10.2382
    11.2177  16.9141  17.2189  17.2263  18.6183

     occupation numbers 
     1.0000   1.0000   1.0000   1.0000   1.0000   1.0000   1.0000   1.0000
     1.0000   1.0000   1.0000   1.0000   1.0000   1.0000   1.0000   1.0000
     1.0000   1.0000   1.0000   1.0000   1.0000   1.0000   0.0000   0.0000
     0.0000   0.0000   0.0000   0.0000   0.0000

          k = 0.4706 0.4706 0.3513 (  2378 PWs)   bands (ev):

  -104.2098 -61.5598 -61.5598 -61.5527 -23.0489  -7.5591  -7.5082  -7.4319
    -5.2966  -5.2491  -5.2232   2.7086   3.7633   3.9632   4.6366   4.8330
     4.8359   8.1183   8.1815   8.1816   8.9321   8.9391   9.1565  10.6847
    11.2182  16.7432  16.8918  16.8967  18.9138

     occupation numbers 
     1.0000   1.0000   1.0000   1.0000   1.0000   1.0000   1.0000   1.0000
     1.0000   1.0000   1.0000   1.0000   1.0000   1.0000   1.0000   1.0000
     1.0000   1.0000   1.0000   1.0000   1.0004   1.0040   0.0000   0.0000
     0.0000   0.0000   0.0000   0.0000   0.0000

          k = 0.4706 0.4706 0.4099 (  2364 PWs)   bands (ev):

  -104.2098 -61.5598 -61.5598 -61.5527 -23.0466  -7.4978  -7.4607  -7.4131
    -5.3368  -5.3182  -5.2927   2.5967   3.7644   3.8522   4.6974   4.7851
     4.7893   8.1806   8.2118   8.2121   9.0721   9.0778   9.1657  11.0069
    11.2184  16.6095  16.6592  16.6609  19.1800

     occupation numbers 
     1.0000   1.0000   1.0000   1.0000   1.0000   1.0000   1.0000   1.0000
     1.0000   1.0000   1.0000   1.0000   1.0000   1.0000   1.0000   1.0000
     1.0000   1.0000   1.0000   1.0000   0.0000   0.0000   0.0000   0.0000
     0.0000   0.0000   0.0000   0.0000   0.0000

          k = 0.4706 0.4706 0.4685 (  2366 PWs)   bands (ev):

  -104.2098 -61.5598 -61.5598 -61.5527 -23.0454  -7.4555  -7.4340  -7.4113
    -5.3565  -5.3520  -5.3370   2.5309   3.7650   3.8040   4.7310   4.7587
     4.7655   8.2160   8.2256   8.2263   9.1494   9.1547   9.1702  11.1764
    11.2185  16.5269  16.5376  16.5468  19.3445

     occupation numbers 
     1.0000   1.0000   1.0000   1.0000   1.0000   1.0000   1.0000   1.0000
     1.0000   1.0000   1.0000   1.0000   1.0000   1.0000   1.0000   1.0000
     1.0000   1.0000   1.0000   1.0000   0.0000   0.0000   0.0000   0.0000
     0.0000   0.0000   0.0000   0.0000   0.0000

     the Fermi energy is     8.9766 ev

!    total energy              =    -570.87522790 Ry
     Harris-Foulkes estimate   =    -570.87522790 Ry
     estimated scf accuracy    <          2.3E-11 Ry

     The total energy is the sum of the following terms:

     one-electron contribution =    -403.86228043 Ry
     hartree contribution      =     227.07100580 Ry
     xc contribution           =     -78.77369716 Ry
     ewald contribution        =    -315.31026451 Ry
     smearing contrib. (-TS)   =       0.00000839 Ry

     convergence has been achieved in   8 iterations

     negative rho (up, down):  6.395E-02 0.000E+00

     Forces acting on atoms (cartesian axes, Ry/au):

     atom    1 type  3   force =     0.00000000    0.00000000   -0.00029091
     atom    2 type  1   force =     0.00000000    0.00000000   -0.00011593
     atom    3 type  2   force =     0.00000000    0.00000000    0.00044599
     atom    4 type  2   force =     0.00000000    0.00000000   -0.00001957
     atom    5 type  2   force =     0.00000000    0.00000000   -0.00001957
     The non-local contrib.  to forces
     atom    1 type  3   force =     0.00000000    0.00000000   -0.00031857
     atom    2 type  1   force =     0.00000000    0.00000000   -0.00187805
     atom    3 type  2   force =     0.00000000    0.00000000   -0.00088958
     atom    4 type  2   force =     0.00000000    0.00000000   -0.00100951
     atom    5 type  2   force =     0.00000000    0.00000000   -0.00100951
     The ionic contribution  to forces
     atom    1 type  3   force =    -0.00000000   -0.00000000   -0.02489318
     atom    2 type  1   force =     0.00000000    0.00000000   -0.01250794
     atom    3 type  2   force =    -0.00000000   -0.00000000    0.02580770
     atom    4 type  2   force =    -0.00000000   -0.00000000    0.00579671
     atom    5 type  2   force =    -0.00000000   -0.00000000    0.00579671
     The local contribution  to forces
     atom    1 type  3   force =     0.00000000    0.00000000    0.02491735
     atom    2 type  1   force =     0.00000000    0.00000000    0.01430022
     atom    3 type  2   force =     0.00000000    0.00000000   -0.02446480
     atom    4 type  2   force =     0.00000000   -0.00000000   -0.00479736
     atom    5 type  2   force =    -0.00000000    0.00000000   -0.00479736
     The core correction contribution to forces
     atom    1 type  3   force =     0.00000000    0.00000000    0.00001700
     atom    2 type  1   force =     0.00000000    0.00000000    0.00000216
     atom    3 type  2   force =    -0.00000000    0.00000000    0.00000341
     atom    4 type  2   force =     0.00000000   -0.00000000    0.00000548
     atom    5 type  2   force =    -0.00000000    0.00000000    0.00000548
     The Hubbard contrib.    to forces
     atom    1 type  3   force =     0.00000000    0.00000000    0.00000000
     atom    2 type  1   force =     0.00000000    0.00000000    0.00000000
     atom    3 type  2   force =     0.00000000    0.00000000    0.00000000
     atom    4 type  2   force =     0.00000000    0.00000000    0.00000000
     atom    5 type  2   force =     0.00000000    0.00000000    0.00000000
     The SCF correction term to forces
     atom    1 type  3   force =    -0.00000000    0.00000000    0.00000020
     atom    2 type  1   force =     0.00000000   -0.00000000   -0.00001861
     atom    3 type  2   force =     0.00000000    0.00000000    0.00000297
     atom    4 type  2   force =    -0.00000000    0.00000000   -0.00000119
     atom    5 type  2   force =     0.00000000   -0.00000000   -0.00000119

     Total force =     0.000546     Total SCF correction =     0.000019

     bfgs converged in   9 scf cycles and   8 bfgs steps
     (criteria: energy <  1.0E-04 Ry, force <  1.0E-03 Ry/Bohr)

     End of BFGS Geometry Optimization

     Final energy   =    -570.8752279019 Ry
Begin final coordinates

ATOMIC_POSITIONS (crystal)
Sr       0.000000000   0.000000000   0.005509389
Cu       0.500000000   0.500000000   0.505063261
O        0.500000000   0.500000000   0.004865205
O        0.500000000   0.000000000   0.505035242
O        0.000000000   0.500000000   0.505035242
End final coordinates


 
     init_run     :      3.21s CPU      3.50s WALL (       1 calls)
     electrons    :    951.51s CPU   1030.10s WALL (      10 calls)
     update_pot   :      0.43s CPU      0.43s WALL (       9 calls)
     forces       :      5.24s CPU      5.31s WALL (      10 calls)

     Called by init_run:
     wfcinit      :      3.09s CPU      3.34s WALL (       1 calls)
     wfcinit:atom :      0.02s CPU      0.02s WALL (     405 calls)
     wfcinit:wfcr :      2.96s CPU      3.21s WALL (     405 calls)
     potinit      :      0.02s CPU      0.02s WALL (       1 calls)
     hinit0       :      0.09s CPU      0.12s WALL (       1 calls)

     Called by electrons:
     c_bands      :    878.92s CPU    953.22s WALL (      90 calls)
     sum_band     :     71.71s CPU     75.71s WALL (      90 calls)
     v_of_rho     :      0.16s CPU      0.18s WALL (      97 calls)
     v_h          :      0.01s CPU      0.01s WALL (      97 calls)
     v_xc         :      0.17s CPU      0.19s WALL (     107 calls)
     newd         :      0.68s CPU      0.68s WALL (      97 calls)
     mix_rho      :      0.04s CPU      0.04s WALL (      90 calls)

     Called by c_bands:
     init_us_2    :      5.67s CPU      5.90s WALL (   77355 calls)
     cegterg      :    856.80s CPU    930.55s WALL (   36450 calls)

     Called by sum_band:
     sum_band:bec :      0.86s CPU      0.92s WALL (   36450 calls)
     addusdens    :      0.67s CPU      0.68s WALL (      90 calls)

     Called by *egterg:
     h_psi        :    317.33s CPU    335.80s WALL (  126047 calls)
     s_psi        :      7.57s CPU      8.01s WALL (  126047 calls)
     g_psi        :      1.85s CPU      1.89s WALL (   89192 calls)
     cdiaghg      :    435.32s CPU    474.43s WALL (  120782 calls)
     cegterg:over :     50.19s CPU     64.89s WALL (   89192 calls)
     cegterg:upda :     17.56s CPU     17.96s WALL (   89192 calls)
     cegterg:last :     11.75s CPU     12.08s WALL (   39357 calls)
     cdiaghg:chol :     11.96s CPU     14.04s WALL (  120782 calls)
     cdiaghg:inve :      9.91s CPU     11.50s WALL (  120782 calls)
     cdiaghg:para :     20.82s CPU     21.99s WALL (  241564 calls)

     Called by h_psi:
     h_psi:pot    :    316.57s CPU    335.01s WALL (  126047 calls)
     h_psi:calbec :     13.81s CPU     14.65s WALL (  126047 calls)
     vloc_psi     :    294.29s CPU    311.43s WALL (  126047 calls)
     add_vuspsi   :      7.95s CPU      8.43s WALL (  126047 calls)

     General routines
     calbec       :     20.47s CPU     21.66s WALL (  178697 calls)
     fft          :      0.14s CPU      0.16s WALL (    1199 calls)
     ffts         :      0.01s CPU      0.01s WALL (      90 calls)
     fftw         :    333.86s CPU    353.25s WALL ( 6514068 calls)
 
     Parallel routines
     fft_scatt_xy :     26.30s CPU     27.90s WALL ( 6515357 calls)
     fft_scatt_yz :    208.66s CPU    221.90s WALL ( 6515357 calls)
 
     PWSCF        : 16m 0.55s CPU    17m19.70s WALL

 
   This run was terminated on:   6:58:51   8Mar2019            

=------------------------------------------------------------------------------=
   JOB DONE.
=------------------------------------------------------------------------------=
