
     Program PWSCF v.6.3MaX starts on  8Mar2019 at  2:39: 1 

     This program is part of the open-source Quantum ESPRESSO suite
     for quantum simulation of materials; please cite
         "P. Giannozzi et al., J. Phys.:Condens. Matter 21 395502 (2009);
         "P. Giannozzi et al., J. Phys.:Condens. Matter 29 465901 (2017);
          URL http://www.quantum-espresso.org", 
     in publications or presentations arising from this work. More details at
     http://www.quantum-espresso.org/quote

     Parallel version (MPI & OpenMP), running on      20 processor cores
     Number of MPI processes:                20
     Threads/MPI process:                     1

     MPI processes distributed on     1 nodes
     R & G space division:  proc/nbgrp/npool/nimage =      20
     Reading input from /home/azadoks/dftman/projects/ABO3 Tetragonal/PBSJobs/BaNbO3221_ffdc50e46288/pwscf.in
Warning: card &CELL ignored
Warning: card / ignored

     Current dimensions of program PWSCF are:
     Max number of different atomic species (ntypx) = 10
     Max number of k-points (npk) =  40000
     Max angular momentum in pseudopotentials (lmaxx) =  3
     Message from routine iosys:
     minimal I/O required, wf_collect reset to FALSE

     Subspace diagonalization in iterative solution of the eigenvalue problem:
     one sub-group per band group will be used
     scalapack distributed-memory algorithm (size of sub-group:  3*  3 procs)

 
     Parallelization info
     --------------------
     sticks:   dense  smooth     PW     G-vecs:    dense   smooth      PW
     Min          48      48     14                 1160     1160     192
     Max          49      49     15                 1165     1165     197
     Sum         973     973    293                23255    23255    3887
 


     bravais-lattice index     =            0
     lattice parameter (alat)  =       7.8581  a.u.
     unit-cell volume          =     487.4421 (a.u.)^3
     number of atoms/cell      =            5
     number of atomic types    =            3
     number of electrons       =        41.00
     number of Kohn-Sham states=           25
     kinetic-energy cutoff     =      50.0000  Ry
     charge density cutoff     =     200.0000  Ry
     convergence threshold     =      1.0E-08
     mixing beta               =       0.7000
     number of iterations used =            8  plain     mixing
     Exchange-correlation      = SLA  PW   PBE  PBE ( 1  4  3  4 0 0)
     nstep                     =           50


     celldm(1)=   7.858092  celldm(2)=   0.000000  celldm(3)=   0.000000
     celldm(4)=   0.000000  celldm(5)=   0.000000  celldm(6)=   0.000000

     crystal axes: (cart. coord. in units of alat)
               a(1) = (   1.000000   0.000000   0.000000 )  
               a(2) = (   0.000000   1.000000   0.000000 )  
               a(3) = (   0.000000   0.000000   1.004550 )  

     reciprocal axes: (cart. coord. in units 2 pi/alat)
               b(1) = (  1.000000  0.000000  0.000000 )  
               b(2) = (  0.000000  1.000000  0.000000 )  
               b(3) = (  0.000000  0.000000  0.995470 )  


     PseudoPot. # 1 for Ba read from file:
     /home/azadoks/.local/share/pseudo/GBRV_PBE_US/ba_pbe_v1.uspp.F.UPF
     MD5 check sum: 3380f63c22b3abf76d74aa74136bb909
     Pseudo is Ultrasoft + core correction, Zval = 10.0
     Generated by new atomic code, or converted to UPF format
     Using radial grid of  907 points,  7 beta functions with: 
                l(1) =   0
                l(2) =   0
                l(3) =   1
                l(4) =   1
                l(5) =   2
                l(6) =   2
                l(7) =   3
     Q(r) pseudized with  6 coefficients,  rinner =    1.700   1.700   1.700
                                                       1.700   1.700   1.700
                                                       1.700

     PseudoPot. # 2 for Nb read from file:
     /home/azadoks/.local/share/pseudo/GBRV_PBE_US/nb_pbe_v1.uspp.F.UPF
     MD5 check sum: 573aab8a2fa660278ed4a62cd769473f
     Pseudo is Ultrasoft + core correction, Zval = 13.0
     Generated by new atomic code, or converted to UPF format
     Using radial grid of  887 points,  6 beta functions with: 
                l(1) =   0
                l(2) =   0
                l(3) =   1
                l(4) =   1
                l(5) =   2
                l(6) =   2
     Q(r) pseudized with  6 coefficients,  rinner =    1.000   1.000   1.000
                                                       1.000   1.000

     PseudoPot. # 3 for O  read from file:
     /home/azadoks/.local/share/pseudo/GBRV_PBE_US/o_pbe_v1.2.uspp.F.UPF
     MD5 check sum: 734c27235a0248c51dbae37a1fbe46ec
     Pseudo is Ultrasoft + core correction, Zval =  6.0
     Generated by new atomic code, or converted to UPF format
     Using radial grid of  737 points,  5 beta functions with: 
                l(1) =   0
                l(2) =   0
                l(3) =   1
                l(4) =   1
                l(5) =   2
     Q(r) pseudized with  8 coefficients,  rinner =    0.900   0.900   0.900
                                                       0.900   0.900

     atomic species   valence    mass     pseudopotential
        Ba            10.00   137.32700     Ba( 1.00)
        Nb            13.00    92.90640     Nb( 1.00)
        O              6.00    15.99940     O ( 1.00)

      8 Sym. Ops. (no inversion) found


                                    s                        frac. trans.

      isym =  1     identity                                     

 cryst.   s( 1) = (     1          0          0      )
                  (     0          1          0      )
                  (     0          0          1      )

 cart.    s( 1) = (  1.0000000  0.0000000  0.0000000 )
                  (  0.0000000  1.0000000  0.0000000 )
                  (  0.0000000  0.0000000  1.0000000 )


      isym =  2     180 deg rotation - cart. axis [0,0,1]        

 cryst.   s( 2) = (    -1          0          0      )
                  (     0         -1          0      )
                  (     0          0          1      )

 cart.    s( 2) = ( -1.0000000  0.0000000  0.0000000 )
                  (  0.0000000 -1.0000000  0.0000000 )
                  (  0.0000000  0.0000000  1.0000000 )


      isym =  3      90 deg rotation - cart. axis [0,0,-1]       

 cryst.   s( 3) = (     0         -1          0      )
                  (     1          0          0      )
                  (     0          0          1      )

 cart.    s( 3) = (  0.0000000  1.0000000  0.0000000 )
                  ( -1.0000000  0.0000000  0.0000000 )
                  (  0.0000000  0.0000000  1.0000000 )


      isym =  4      90 deg rotation - cart. axis [0,0,1]        

 cryst.   s( 4) = (     0          1          0      )
                  (    -1          0          0      )
                  (     0          0          1      )

 cart.    s( 4) = (  0.0000000 -1.0000000  0.0000000 )
                  (  1.0000000  0.0000000  0.0000000 )
                  (  0.0000000  0.0000000  1.0000000 )


      isym =  5     inv. 180 deg rotation - cart. axis [0,1,0]   

 cryst.   s( 5) = (     1          0          0      )
                  (     0         -1          0      )
                  (     0          0          1      )

 cart.    s( 5) = (  1.0000000  0.0000000  0.0000000 )
                  (  0.0000000 -1.0000000  0.0000000 )
                  (  0.0000000  0.0000000  1.0000000 )


      isym =  6     inv. 180 deg rotation - cart. axis [1,0,0]   

 cryst.   s( 6) = (    -1          0          0      )
                  (     0          1          0      )
                  (     0          0          1      )

 cart.    s( 6) = ( -1.0000000  0.0000000  0.0000000 )
                  (  0.0000000  1.0000000  0.0000000 )
                  (  0.0000000  0.0000000  1.0000000 )


      isym =  7     inv. 180 deg rotation - cart. axis [1,1,0]   

 cryst.   s( 7) = (     0         -1          0      )
                  (    -1          0          0      )
                  (     0          0          1      )

 cart.    s( 7) = (  0.0000000 -1.0000000  0.0000000 )
                  ( -1.0000000  0.0000000  0.0000000 )
                  (  0.0000000  0.0000000  1.0000000 )


      isym =  8     inv. 180 deg rotation - cart. axis [1,-1,0]  

 cryst.   s( 8) = (     0          1          0      )
                  (     1          0          0      )
                  (     0          0          1      )

 cart.    s( 8) = (  0.0000000  1.0000000  0.0000000 )
                  (  1.0000000  0.0000000  0.0000000 )
                  (  0.0000000  0.0000000  1.0000000 )


   Cartesian axes

     site n.     atom                  positions (alat units)
         1           Ba  tau(   1) = (   0.0000000   0.0000000   0.0000000  )
         2           Nb  tau(   2) = (   0.5000000   0.5000000   0.4841933  )
         3           O   tau(   3) = (   0.5000000   0.5000000   0.0160728  )
         4           O   tau(   4) = (   0.5000000   0.0000000   0.5173435  )
         5           O   tau(   5) = (   0.0000000   0.5000000   0.5173435  )

   Crystallographic axes

     site n.     atom                  positions (cryst. coord.)
         1           Ba  tau(   1) = (  0.0000000  0.0000000  0.0000000  )
         2           Nb  tau(   2) = (  0.5000000  0.5000000  0.4820000  )
         3           O   tau(   3) = (  0.5000000  0.5000000  0.0160000  )
         4           O   tau(   4) = (  0.5000000  0.0000000  0.5150000  )
         5           O   tau(   5) = (  0.0000000  0.5000000  0.5150000  )

     number of k points=   405  Marzari-Vanderbilt smearing, width (Ry)=  0.0010
                       cart. coord. in units 2pi/alat
        k(    1) = (   0.0000000   0.0000000   0.0000000), wk =   0.0004883
        k(    2) = (   0.0000000   0.0000000   0.0622169), wk =   0.0009766
        k(    3) = (   0.0000000   0.0000000   0.1244338), wk =   0.0009766
        k(    4) = (   0.0000000   0.0000000   0.1866507), wk =   0.0009766
        k(    5) = (   0.0000000   0.0000000   0.2488676), wk =   0.0009766
        k(    6) = (   0.0000000   0.0000000   0.3110844), wk =   0.0009766
        k(    7) = (   0.0000000   0.0000000   0.3733013), wk =   0.0009766
        k(    8) = (   0.0000000   0.0000000   0.4355182), wk =   0.0009766
        k(    9) = (   0.0000000   0.0000000  -0.4977351), wk =   0.0004883
        k(   10) = (   0.0000000   0.0625000   0.0000000), wk =   0.0019531
        k(   11) = (   0.0000000   0.0625000   0.0622169), wk =   0.0039062
        k(   12) = (   0.0000000   0.0625000   0.1244338), wk =   0.0039062
        k(   13) = (   0.0000000   0.0625000   0.1866507), wk =   0.0039062
        k(   14) = (   0.0000000   0.0625000   0.2488676), wk =   0.0039062
        k(   15) = (   0.0000000   0.0625000   0.3110844), wk =   0.0039062
        k(   16) = (   0.0000000   0.0625000   0.3733013), wk =   0.0039062
        k(   17) = (   0.0000000   0.0625000   0.4355182), wk =   0.0039062
        k(   18) = (   0.0000000   0.0625000  -0.4977351), wk =   0.0019531
        k(   19) = (   0.0000000   0.1250000   0.0000000), wk =   0.0019531
        k(   20) = (   0.0000000   0.1250000   0.0622169), wk =   0.0039062
        k(   21) = (   0.0000000   0.1250000   0.1244338), wk =   0.0039062
        k(   22) = (   0.0000000   0.1250000   0.1866507), wk =   0.0039062
        k(   23) = (   0.0000000   0.1250000   0.2488676), wk =   0.0039062
        k(   24) = (   0.0000000   0.1250000   0.3110844), wk =   0.0039062
        k(   25) = (   0.0000000   0.1250000   0.3733013), wk =   0.0039062
        k(   26) = (   0.0000000   0.1250000   0.4355182), wk =   0.0039062
        k(   27) = (   0.0000000   0.1250000  -0.4977351), wk =   0.0019531
        k(   28) = (   0.0000000   0.1875000   0.0000000), wk =   0.0019531
        k(   29) = (   0.0000000   0.1875000   0.0622169), wk =   0.0039062
        k(   30) = (   0.0000000   0.1875000   0.1244338), wk =   0.0039062
        k(   31) = (   0.0000000   0.1875000   0.1866507), wk =   0.0039062
        k(   32) = (   0.0000000   0.1875000   0.2488676), wk =   0.0039062
        k(   33) = (   0.0000000   0.1875000   0.3110844), wk =   0.0039062
        k(   34) = (   0.0000000   0.1875000   0.3733013), wk =   0.0039062
        k(   35) = (   0.0000000   0.1875000   0.4355182), wk =   0.0039062
        k(   36) = (   0.0000000   0.1875000  -0.4977351), wk =   0.0019531
        k(   37) = (   0.0000000   0.2500000   0.0000000), wk =   0.0019531
        k(   38) = (   0.0000000   0.2500000   0.0622169), wk =   0.0039062
        k(   39) = (   0.0000000   0.2500000   0.1244338), wk =   0.0039062
        k(   40) = (   0.0000000   0.2500000   0.1866507), wk =   0.0039062
        k(   41) = (   0.0000000   0.2500000   0.2488676), wk =   0.0039062
        k(   42) = (   0.0000000   0.2500000   0.3110844), wk =   0.0039062
        k(   43) = (   0.0000000   0.2500000   0.3733013), wk =   0.0039062
        k(   44) = (   0.0000000   0.2500000   0.4355182), wk =   0.0039062
        k(   45) = (   0.0000000   0.2500000  -0.4977351), wk =   0.0019531
        k(   46) = (   0.0000000   0.3125000   0.0000000), wk =   0.0019531
        k(   47) = (   0.0000000   0.3125000   0.0622169), wk =   0.0039062
        k(   48) = (   0.0000000   0.3125000   0.1244338), wk =   0.0039062
        k(   49) = (   0.0000000   0.3125000   0.1866507), wk =   0.0039062
        k(   50) = (   0.0000000   0.3125000   0.2488676), wk =   0.0039062
        k(   51) = (   0.0000000   0.3125000   0.3110844), wk =   0.0039062
        k(   52) = (   0.0000000   0.3125000   0.3733013), wk =   0.0039062
        k(   53) = (   0.0000000   0.3125000   0.4355182), wk =   0.0039062
        k(   54) = (   0.0000000   0.3125000  -0.4977351), wk =   0.0019531
        k(   55) = (   0.0000000   0.3750000   0.0000000), wk =   0.0019531
        k(   56) = (   0.0000000   0.3750000   0.0622169), wk =   0.0039062
        k(   57) = (   0.0000000   0.3750000   0.1244338), wk =   0.0039062
        k(   58) = (   0.0000000   0.3750000   0.1866507), wk =   0.0039062
        k(   59) = (   0.0000000   0.3750000   0.2488676), wk =   0.0039062
        k(   60) = (   0.0000000   0.3750000   0.3110844), wk =   0.0039062
        k(   61) = (   0.0000000   0.3750000   0.3733013), wk =   0.0039062
        k(   62) = (   0.0000000   0.3750000   0.4355182), wk =   0.0039062
        k(   63) = (   0.0000000   0.3750000  -0.4977351), wk =   0.0019531
        k(   64) = (   0.0000000   0.4375000   0.0000000), wk =   0.0019531
        k(   65) = (   0.0000000   0.4375000   0.0622169), wk =   0.0039062
        k(   66) = (   0.0000000   0.4375000   0.1244338), wk =   0.0039062
        k(   67) = (   0.0000000   0.4375000   0.1866507), wk =   0.0039062
        k(   68) = (   0.0000000   0.4375000   0.2488676), wk =   0.0039062
        k(   69) = (   0.0000000   0.4375000   0.3110844), wk =   0.0039062
        k(   70) = (   0.0000000   0.4375000   0.3733013), wk =   0.0039062
        k(   71) = (   0.0000000   0.4375000   0.4355182), wk =   0.0039062
        k(   72) = (   0.0000000   0.4375000  -0.4977351), wk =   0.0019531
        k(   73) = (   0.0000000  -0.5000000   0.0000000), wk =   0.0009766
        k(   74) = (   0.0000000  -0.5000000   0.0622169), wk =   0.0019531
        k(   75) = (   0.0000000  -0.5000000   0.1244338), wk =   0.0019531
        k(   76) = (   0.0000000  -0.5000000   0.1866507), wk =   0.0019531
        k(   77) = (   0.0000000  -0.5000000   0.2488676), wk =   0.0019531
        k(   78) = (   0.0000000  -0.5000000   0.3110844), wk =   0.0019531
        k(   79) = (   0.0000000  -0.5000000   0.3733013), wk =   0.0019531
        k(   80) = (   0.0000000  -0.5000000   0.4355182), wk =   0.0019531
        k(   81) = (   0.0000000  -0.5000000  -0.4977351), wk =   0.0009766
        k(   82) = (   0.0625000   0.0625000   0.0000000), wk =   0.0019531
        k(   83) = (   0.0625000   0.0625000   0.0622169), wk =   0.0039062
        k(   84) = (   0.0625000   0.0625000   0.1244338), wk =   0.0039062
        k(   85) = (   0.0625000   0.0625000   0.1866507), wk =   0.0039062
        k(   86) = (   0.0625000   0.0625000   0.2488676), wk =   0.0039062
        k(   87) = (   0.0625000   0.0625000   0.3110844), wk =   0.0039062
        k(   88) = (   0.0625000   0.0625000   0.3733013), wk =   0.0039062
        k(   89) = (   0.0625000   0.0625000   0.4355182), wk =   0.0039062
        k(   90) = (   0.0625000   0.0625000  -0.4977351), wk =   0.0019531
        k(   91) = (   0.0625000   0.1250000   0.0000000), wk =   0.0039062
        k(   92) = (   0.0625000   0.1250000   0.0622169), wk =   0.0078125
        k(   93) = (   0.0625000   0.1250000   0.1244338), wk =   0.0078125
        k(   94) = (   0.0625000   0.1250000   0.1866507), wk =   0.0078125
        k(   95) = (   0.0625000   0.1250000   0.2488676), wk =   0.0078125
        k(   96) = (   0.0625000   0.1250000   0.3110844), wk =   0.0078125
        k(   97) = (   0.0625000   0.1250000   0.3733013), wk =   0.0078125
        k(   98) = (   0.0625000   0.1250000   0.4355182), wk =   0.0078125
        k(   99) = (   0.0625000   0.1250000  -0.4977351), wk =   0.0039062
        k(  100) = (   0.0625000   0.1875000   0.0000000), wk =   0.0039062
        k(  101) = (   0.0625000   0.1875000   0.0622169), wk =   0.0078125
        k(  102) = (   0.0625000   0.1875000   0.1244338), wk =   0.0078125
        k(  103) = (   0.0625000   0.1875000   0.1866507), wk =   0.0078125
        k(  104) = (   0.0625000   0.1875000   0.2488676), wk =   0.0078125
        k(  105) = (   0.0625000   0.1875000   0.3110844), wk =   0.0078125
        k(  106) = (   0.0625000   0.1875000   0.3733013), wk =   0.0078125
        k(  107) = (   0.0625000   0.1875000   0.4355182), wk =   0.0078125
        k(  108) = (   0.0625000   0.1875000  -0.4977351), wk =   0.0039062
        k(  109) = (   0.0625000   0.2500000   0.0000000), wk =   0.0039062
        k(  110) = (   0.0625000   0.2500000   0.0622169), wk =   0.0078125
        k(  111) = (   0.0625000   0.2500000   0.1244338), wk =   0.0078125
        k(  112) = (   0.0625000   0.2500000   0.1866507), wk =   0.0078125
        k(  113) = (   0.0625000   0.2500000   0.2488676), wk =   0.0078125
        k(  114) = (   0.0625000   0.2500000   0.3110844), wk =   0.0078125
        k(  115) = (   0.0625000   0.2500000   0.3733013), wk =   0.0078125
        k(  116) = (   0.0625000   0.2500000   0.4355182), wk =   0.0078125
        k(  117) = (   0.0625000   0.2500000  -0.4977351), wk =   0.0039062
        k(  118) = (   0.0625000   0.3125000   0.0000000), wk =   0.0039062
        k(  119) = (   0.0625000   0.3125000   0.0622169), wk =   0.0078125
        k(  120) = (   0.0625000   0.3125000   0.1244338), wk =   0.0078125
        k(  121) = (   0.0625000   0.3125000   0.1866507), wk =   0.0078125
        k(  122) = (   0.0625000   0.3125000   0.2488676), wk =   0.0078125
        k(  123) = (   0.0625000   0.3125000   0.3110844), wk =   0.0078125
        k(  124) = (   0.0625000   0.3125000   0.3733013), wk =   0.0078125
        k(  125) = (   0.0625000   0.3125000   0.4355182), wk =   0.0078125
        k(  126) = (   0.0625000   0.3125000  -0.4977351), wk =   0.0039062
        k(  127) = (   0.0625000   0.3750000   0.0000000), wk =   0.0039062
        k(  128) = (   0.0625000   0.3750000   0.0622169), wk =   0.0078125
        k(  129) = (   0.0625000   0.3750000   0.1244338), wk =   0.0078125
        k(  130) = (   0.0625000   0.3750000   0.1866507), wk =   0.0078125
        k(  131) = (   0.0625000   0.3750000   0.2488676), wk =   0.0078125
        k(  132) = (   0.0625000   0.3750000   0.3110844), wk =   0.0078125
        k(  133) = (   0.0625000   0.3750000   0.3733013), wk =   0.0078125
        k(  134) = (   0.0625000   0.3750000   0.4355182), wk =   0.0078125
        k(  135) = (   0.0625000   0.3750000  -0.4977351), wk =   0.0039062
        k(  136) = (   0.0625000   0.4375000   0.0000000), wk =   0.0039062
        k(  137) = (   0.0625000   0.4375000   0.0622169), wk =   0.0078125
        k(  138) = (   0.0625000   0.4375000   0.1244338), wk =   0.0078125
        k(  139) = (   0.0625000   0.4375000   0.1866507), wk =   0.0078125
        k(  140) = (   0.0625000   0.4375000   0.2488676), wk =   0.0078125
        k(  141) = (   0.0625000   0.4375000   0.3110844), wk =   0.0078125
        k(  142) = (   0.0625000   0.4375000   0.3733013), wk =   0.0078125
        k(  143) = (   0.0625000   0.4375000   0.4355182), wk =   0.0078125
        k(  144) = (   0.0625000   0.4375000  -0.4977351), wk =   0.0039062
        k(  145) = (   0.0625000  -0.5000000   0.0000000), wk =   0.0019531
        k(  146) = (   0.0625000  -0.5000000   0.0622169), wk =   0.0039062
        k(  147) = (   0.0625000  -0.5000000   0.1244338), wk =   0.0039062
        k(  148) = (   0.0625000  -0.5000000   0.1866507), wk =   0.0039062
        k(  149) = (   0.0625000  -0.5000000   0.2488676), wk =   0.0039062
        k(  150) = (   0.0625000  -0.5000000   0.3110844), wk =   0.0039062
        k(  151) = (   0.0625000  -0.5000000   0.3733013), wk =   0.0039062
        k(  152) = (   0.0625000  -0.5000000   0.4355182), wk =   0.0039062
        k(  153) = (   0.0625000  -0.5000000  -0.4977351), wk =   0.0019531
        k(  154) = (   0.1250000   0.1250000   0.0000000), wk =   0.0019531
        k(  155) = (   0.1250000   0.1250000   0.0622169), wk =   0.0039062
        k(  156) = (   0.1250000   0.1250000   0.1244338), wk =   0.0039062
        k(  157) = (   0.1250000   0.1250000   0.1866507), wk =   0.0039062
        k(  158) = (   0.1250000   0.1250000   0.2488676), wk =   0.0039062
        k(  159) = (   0.1250000   0.1250000   0.3110844), wk =   0.0039062
        k(  160) = (   0.1250000   0.1250000   0.3733013), wk =   0.0039062
        k(  161) = (   0.1250000   0.1250000   0.4355182), wk =   0.0039062
        k(  162) = (   0.1250000   0.1250000  -0.4977351), wk =   0.0019531
        k(  163) = (   0.1250000   0.1875000   0.0000000), wk =   0.0039062
        k(  164) = (   0.1250000   0.1875000   0.0622169), wk =   0.0078125
        k(  165) = (   0.1250000   0.1875000   0.1244338), wk =   0.0078125
        k(  166) = (   0.1250000   0.1875000   0.1866507), wk =   0.0078125
        k(  167) = (   0.1250000   0.1875000   0.2488676), wk =   0.0078125
        k(  168) = (   0.1250000   0.1875000   0.3110844), wk =   0.0078125
        k(  169) = (   0.1250000   0.1875000   0.3733013), wk =   0.0078125
        k(  170) = (   0.1250000   0.1875000   0.4355182), wk =   0.0078125
        k(  171) = (   0.1250000   0.1875000  -0.4977351), wk =   0.0039062
        k(  172) = (   0.1250000   0.2500000   0.0000000), wk =   0.0039062
        k(  173) = (   0.1250000   0.2500000   0.0622169), wk =   0.0078125
        k(  174) = (   0.1250000   0.2500000   0.1244338), wk =   0.0078125
        k(  175) = (   0.1250000   0.2500000   0.1866507), wk =   0.0078125
        k(  176) = (   0.1250000   0.2500000   0.2488676), wk =   0.0078125
        k(  177) = (   0.1250000   0.2500000   0.3110844), wk =   0.0078125
        k(  178) = (   0.1250000   0.2500000   0.3733013), wk =   0.0078125
        k(  179) = (   0.1250000   0.2500000   0.4355182), wk =   0.0078125
        k(  180) = (   0.1250000   0.2500000  -0.4977351), wk =   0.0039062
        k(  181) = (   0.1250000   0.3125000   0.0000000), wk =   0.0039062
        k(  182) = (   0.1250000   0.3125000   0.0622169), wk =   0.0078125
        k(  183) = (   0.1250000   0.3125000   0.1244338), wk =   0.0078125
        k(  184) = (   0.1250000   0.3125000   0.1866507), wk =   0.0078125
        k(  185) = (   0.1250000   0.3125000   0.2488676), wk =   0.0078125
        k(  186) = (   0.1250000   0.3125000   0.3110844), wk =   0.0078125
        k(  187) = (   0.1250000   0.3125000   0.3733013), wk =   0.0078125
        k(  188) = (   0.1250000   0.3125000   0.4355182), wk =   0.0078125
        k(  189) = (   0.1250000   0.3125000  -0.4977351), wk =   0.0039062
        k(  190) = (   0.1250000   0.3750000   0.0000000), wk =   0.0039062
        k(  191) = (   0.1250000   0.3750000   0.0622169), wk =   0.0078125
        k(  192) = (   0.1250000   0.3750000   0.1244338), wk =   0.0078125
        k(  193) = (   0.1250000   0.3750000   0.1866507), wk =   0.0078125
        k(  194) = (   0.1250000   0.3750000   0.2488676), wk =   0.0078125
        k(  195) = (   0.1250000   0.3750000   0.3110844), wk =   0.0078125
        k(  196) = (   0.1250000   0.3750000   0.3733013), wk =   0.0078125
        k(  197) = (   0.1250000   0.3750000   0.4355182), wk =   0.0078125
        k(  198) = (   0.1250000   0.3750000  -0.4977351), wk =   0.0039062
        k(  199) = (   0.1250000   0.4375000   0.0000000), wk =   0.0039062
        k(  200) = (   0.1250000   0.4375000   0.0622169), wk =   0.0078125
        k(  201) = (   0.1250000   0.4375000   0.1244338), wk =   0.0078125
        k(  202) = (   0.1250000   0.4375000   0.1866507), wk =   0.0078125
        k(  203) = (   0.1250000   0.4375000   0.2488676), wk =   0.0078125
        k(  204) = (   0.1250000   0.4375000   0.3110844), wk =   0.0078125
        k(  205) = (   0.1250000   0.4375000   0.3733013), wk =   0.0078125
        k(  206) = (   0.1250000   0.4375000   0.4355182), wk =   0.0078125
        k(  207) = (   0.1250000   0.4375000  -0.4977351), wk =   0.0039062
        k(  208) = (   0.1250000  -0.5000000   0.0000000), wk =   0.0019531
        k(  209) = (   0.1250000  -0.5000000   0.0622169), wk =   0.0039062
        k(  210) = (   0.1250000  -0.5000000   0.1244338), wk =   0.0039062
        k(  211) = (   0.1250000  -0.5000000   0.1866507), wk =   0.0039062
        k(  212) = (   0.1250000  -0.5000000   0.2488676), wk =   0.0039062
        k(  213) = (   0.1250000  -0.5000000   0.3110844), wk =   0.0039062
        k(  214) = (   0.1250000  -0.5000000   0.3733013), wk =   0.0039062
        k(  215) = (   0.1250000  -0.5000000   0.4355182), wk =   0.0039062
        k(  216) = (   0.1250000  -0.5000000  -0.4977351), wk =   0.0019531
        k(  217) = (   0.1875000   0.1875000   0.0000000), wk =   0.0019531
        k(  218) = (   0.1875000   0.1875000   0.0622169), wk =   0.0039062
        k(  219) = (   0.1875000   0.1875000   0.1244338), wk =   0.0039062
        k(  220) = (   0.1875000   0.1875000   0.1866507), wk =   0.0039062
        k(  221) = (   0.1875000   0.1875000   0.2488676), wk =   0.0039062
        k(  222) = (   0.1875000   0.1875000   0.3110844), wk =   0.0039062
        k(  223) = (   0.1875000   0.1875000   0.3733013), wk =   0.0039062
        k(  224) = (   0.1875000   0.1875000   0.4355182), wk =   0.0039062
        k(  225) = (   0.1875000   0.1875000  -0.4977351), wk =   0.0019531
        k(  226) = (   0.1875000   0.2500000   0.0000000), wk =   0.0039062
        k(  227) = (   0.1875000   0.2500000   0.0622169), wk =   0.0078125
        k(  228) = (   0.1875000   0.2500000   0.1244338), wk =   0.0078125
        k(  229) = (   0.1875000   0.2500000   0.1866507), wk =   0.0078125
        k(  230) = (   0.1875000   0.2500000   0.2488676), wk =   0.0078125
        k(  231) = (   0.1875000   0.2500000   0.3110844), wk =   0.0078125
        k(  232) = (   0.1875000   0.2500000   0.3733013), wk =   0.0078125
        k(  233) = (   0.1875000   0.2500000   0.4355182), wk =   0.0078125
        k(  234) = (   0.1875000   0.2500000  -0.4977351), wk =   0.0039062
        k(  235) = (   0.1875000   0.3125000   0.0000000), wk =   0.0039062
        k(  236) = (   0.1875000   0.3125000   0.0622169), wk =   0.0078125
        k(  237) = (   0.1875000   0.3125000   0.1244338), wk =   0.0078125
        k(  238) = (   0.1875000   0.3125000   0.1866507), wk =   0.0078125
        k(  239) = (   0.1875000   0.3125000   0.2488676), wk =   0.0078125
        k(  240) = (   0.1875000   0.3125000   0.3110844), wk =   0.0078125
        k(  241) = (   0.1875000   0.3125000   0.3733013), wk =   0.0078125
        k(  242) = (   0.1875000   0.3125000   0.4355182), wk =   0.0078125
        k(  243) = (   0.1875000   0.3125000  -0.4977351), wk =   0.0039062
        k(  244) = (   0.1875000   0.3750000   0.0000000), wk =   0.0039062
        k(  245) = (   0.1875000   0.3750000   0.0622169), wk =   0.0078125
        k(  246) = (   0.1875000   0.3750000   0.1244338), wk =   0.0078125
        k(  247) = (   0.1875000   0.3750000   0.1866507), wk =   0.0078125
        k(  248) = (   0.1875000   0.3750000   0.2488676), wk =   0.0078125
        k(  249) = (   0.1875000   0.3750000   0.3110844), wk =   0.0078125
        k(  250) = (   0.1875000   0.3750000   0.3733013), wk =   0.0078125
        k(  251) = (   0.1875000   0.3750000   0.4355182), wk =   0.0078125
        k(  252) = (   0.1875000   0.3750000  -0.4977351), wk =   0.0039062
        k(  253) = (   0.1875000   0.4375000   0.0000000), wk =   0.0039062
        k(  254) = (   0.1875000   0.4375000   0.0622169), wk =   0.0078125
        k(  255) = (   0.1875000   0.4375000   0.1244338), wk =   0.0078125
        k(  256) = (   0.1875000   0.4375000   0.1866507), wk =   0.0078125
        k(  257) = (   0.1875000   0.4375000   0.2488676), wk =   0.0078125
        k(  258) = (   0.1875000   0.4375000   0.3110844), wk =   0.0078125
        k(  259) = (   0.1875000   0.4375000   0.3733013), wk =   0.0078125
        k(  260) = (   0.1875000   0.4375000   0.4355182), wk =   0.0078125
        k(  261) = (   0.1875000   0.4375000  -0.4977351), wk =   0.0039062
        k(  262) = (   0.1875000  -0.5000000   0.0000000), wk =   0.0019531
        k(  263) = (   0.1875000  -0.5000000   0.0622169), wk =   0.0039062
        k(  264) = (   0.1875000  -0.5000000   0.1244338), wk =   0.0039062
        k(  265) = (   0.1875000  -0.5000000   0.1866507), wk =   0.0039062
        k(  266) = (   0.1875000  -0.5000000   0.2488676), wk =   0.0039062
        k(  267) = (   0.1875000  -0.5000000   0.3110844), wk =   0.0039062
        k(  268) = (   0.1875000  -0.5000000   0.3733013), wk =   0.0039062
        k(  269) = (   0.1875000  -0.5000000   0.4355182), wk =   0.0039062
        k(  270) = (   0.1875000  -0.5000000  -0.4977351), wk =   0.0019531
        k(  271) = (   0.2500000   0.2500000   0.0000000), wk =   0.0019531
        k(  272) = (   0.2500000   0.2500000   0.0622169), wk =   0.0039062
        k(  273) = (   0.2500000   0.2500000   0.1244338), wk =   0.0039062
        k(  274) = (   0.2500000   0.2500000   0.1866507), wk =   0.0039062
        k(  275) = (   0.2500000   0.2500000   0.2488676), wk =   0.0039062
        k(  276) = (   0.2500000   0.2500000   0.3110844), wk =   0.0039062
        k(  277) = (   0.2500000   0.2500000   0.3733013), wk =   0.0039062
        k(  278) = (   0.2500000   0.2500000   0.4355182), wk =   0.0039062
        k(  279) = (   0.2500000   0.2500000  -0.4977351), wk =   0.0019531
        k(  280) = (   0.2500000   0.3125000   0.0000000), wk =   0.0039062
        k(  281) = (   0.2500000   0.3125000   0.0622169), wk =   0.0078125
        k(  282) = (   0.2500000   0.3125000   0.1244338), wk =   0.0078125
        k(  283) = (   0.2500000   0.3125000   0.1866507), wk =   0.0078125
        k(  284) = (   0.2500000   0.3125000   0.2488676), wk =   0.0078125
        k(  285) = (   0.2500000   0.3125000   0.3110844), wk =   0.0078125
        k(  286) = (   0.2500000   0.3125000   0.3733013), wk =   0.0078125
        k(  287) = (   0.2500000   0.3125000   0.4355182), wk =   0.0078125
        k(  288) = (   0.2500000   0.3125000  -0.4977351), wk =   0.0039062
        k(  289) = (   0.2500000   0.3750000   0.0000000), wk =   0.0039062
        k(  290) = (   0.2500000   0.3750000   0.0622169), wk =   0.0078125
        k(  291) = (   0.2500000   0.3750000   0.1244338), wk =   0.0078125
        k(  292) = (   0.2500000   0.3750000   0.1866507), wk =   0.0078125
        k(  293) = (   0.2500000   0.3750000   0.2488676), wk =   0.0078125
        k(  294) = (   0.2500000   0.3750000   0.3110844), wk =   0.0078125
        k(  295) = (   0.2500000   0.3750000   0.3733013), wk =   0.0078125
        k(  296) = (   0.2500000   0.3750000   0.4355182), wk =   0.0078125
        k(  297) = (   0.2500000   0.3750000  -0.4977351), wk =   0.0039062
        k(  298) = (   0.2500000   0.4375000   0.0000000), wk =   0.0039062
        k(  299) = (   0.2500000   0.4375000   0.0622169), wk =   0.0078125
        k(  300) = (   0.2500000   0.4375000   0.1244338), wk =   0.0078125
        k(  301) = (   0.2500000   0.4375000   0.1866507), wk =   0.0078125
        k(  302) = (   0.2500000   0.4375000   0.2488676), wk =   0.0078125
        k(  303) = (   0.2500000   0.4375000   0.3110844), wk =   0.0078125
        k(  304) = (   0.2500000   0.4375000   0.3733013), wk =   0.0078125
        k(  305) = (   0.2500000   0.4375000   0.4355182), wk =   0.0078125
        k(  306) = (   0.2500000   0.4375000  -0.4977351), wk =   0.0039062
        k(  307) = (   0.2500000  -0.5000000   0.0000000), wk =   0.0019531
        k(  308) = (   0.2500000  -0.5000000   0.0622169), wk =   0.0039062
        k(  309) = (   0.2500000  -0.5000000   0.1244338), wk =   0.0039062
        k(  310) = (   0.2500000  -0.5000000   0.1866507), wk =   0.0039062
        k(  311) = (   0.2500000  -0.5000000   0.2488676), wk =   0.0039062
        k(  312) = (   0.2500000  -0.5000000   0.3110844), wk =   0.0039062
        k(  313) = (   0.2500000  -0.5000000   0.3733013), wk =   0.0039062
        k(  314) = (   0.2500000  -0.5000000   0.4355182), wk =   0.0039062
        k(  315) = (   0.2500000  -0.5000000  -0.4977351), wk =   0.0019531
        k(  316) = (   0.3125000   0.3125000   0.0000000), wk =   0.0019531
        k(  317) = (   0.3125000   0.3125000   0.0622169), wk =   0.0039062
        k(  318) = (   0.3125000   0.3125000   0.1244338), wk =   0.0039062
        k(  319) = (   0.3125000   0.3125000   0.1866507), wk =   0.0039062
        k(  320) = (   0.3125000   0.3125000   0.2488676), wk =   0.0039062
        k(  321) = (   0.3125000   0.3125000   0.3110844), wk =   0.0039062
        k(  322) = (   0.3125000   0.3125000   0.3733013), wk =   0.0039062
        k(  323) = (   0.3125000   0.3125000   0.4355182), wk =   0.0039062
        k(  324) = (   0.3125000   0.3125000  -0.4977351), wk =   0.0019531
        k(  325) = (   0.3125000   0.3750000   0.0000000), wk =   0.0039062
        k(  326) = (   0.3125000   0.3750000   0.0622169), wk =   0.0078125
        k(  327) = (   0.3125000   0.3750000   0.1244338), wk =   0.0078125
        k(  328) = (   0.3125000   0.3750000   0.1866507), wk =   0.0078125
        k(  329) = (   0.3125000   0.3750000   0.2488676), wk =   0.0078125
        k(  330) = (   0.3125000   0.3750000   0.3110844), wk =   0.0078125
        k(  331) = (   0.3125000   0.3750000   0.3733013), wk =   0.0078125
        k(  332) = (   0.3125000   0.3750000   0.4355182), wk =   0.0078125
        k(  333) = (   0.3125000   0.3750000  -0.4977351), wk =   0.0039062
        k(  334) = (   0.3125000   0.4375000   0.0000000), wk =   0.0039062
        k(  335) = (   0.3125000   0.4375000   0.0622169), wk =   0.0078125
        k(  336) = (   0.3125000   0.4375000   0.1244338), wk =   0.0078125
        k(  337) = (   0.3125000   0.4375000   0.1866507), wk =   0.0078125
        k(  338) = (   0.3125000   0.4375000   0.2488676), wk =   0.0078125
        k(  339) = (   0.3125000   0.4375000   0.3110844), wk =   0.0078125
        k(  340) = (   0.3125000   0.4375000   0.3733013), wk =   0.0078125
        k(  341) = (   0.3125000   0.4375000   0.4355182), wk =   0.0078125
        k(  342) = (   0.3125000   0.4375000  -0.4977351), wk =   0.0039062
        k(  343) = (   0.3125000  -0.5000000   0.0000000), wk =   0.0019531
        k(  344) = (   0.3125000  -0.5000000   0.0622169), wk =   0.0039062
        k(  345) = (   0.3125000  -0.5000000   0.1244338), wk =   0.0039062
        k(  346) = (   0.3125000  -0.5000000   0.1866507), wk =   0.0039062
        k(  347) = (   0.3125000  -0.5000000   0.2488676), wk =   0.0039062
        k(  348) = (   0.3125000  -0.5000000   0.3110844), wk =   0.0039062
        k(  349) = (   0.3125000  -0.5000000   0.3733013), wk =   0.0039062
        k(  350) = (   0.3125000  -0.5000000   0.4355182), wk =   0.0039062
        k(  351) = (   0.3125000  -0.5000000  -0.4977351), wk =   0.0019531
        k(  352) = (   0.3750000   0.3750000   0.0000000), wk =   0.0019531
        k(  353) = (   0.3750000   0.3750000   0.0622169), wk =   0.0039062
        k(  354) = (   0.3750000   0.3750000   0.1244338), wk =   0.0039062
        k(  355) = (   0.3750000   0.3750000   0.1866507), wk =   0.0039062
        k(  356) = (   0.3750000   0.3750000   0.2488676), wk =   0.0039062
        k(  357) = (   0.3750000   0.3750000   0.3110844), wk =   0.0039062
        k(  358) = (   0.3750000   0.3750000   0.3733013), wk =   0.0039062
        k(  359) = (   0.3750000   0.3750000   0.4355182), wk =   0.0039062
        k(  360) = (   0.3750000   0.3750000  -0.4977351), wk =   0.0019531
        k(  361) = (   0.3750000   0.4375000   0.0000000), wk =   0.0039062
        k(  362) = (   0.3750000   0.4375000   0.0622169), wk =   0.0078125
        k(  363) = (   0.3750000   0.4375000   0.1244338), wk =   0.0078125
        k(  364) = (   0.3750000   0.4375000   0.1866507), wk =   0.0078125
        k(  365) = (   0.3750000   0.4375000   0.2488676), wk =   0.0078125
        k(  366) = (   0.3750000   0.4375000   0.3110844), wk =   0.0078125
        k(  367) = (   0.3750000   0.4375000   0.3733013), wk =   0.0078125
        k(  368) = (   0.3750000   0.4375000   0.4355182), wk =   0.0078125
        k(  369) = (   0.3750000   0.4375000  -0.4977351), wk =   0.0039062
        k(  370) = (   0.3750000  -0.5000000   0.0000000), wk =   0.0019531
        k(  371) = (   0.3750000  -0.5000000   0.0622169), wk =   0.0039062
        k(  372) = (   0.3750000  -0.5000000   0.1244338), wk =   0.0039062
        k(  373) = (   0.3750000  -0.5000000   0.1866507), wk =   0.0039062
        k(  374) = (   0.3750000  -0.5000000   0.2488676), wk =   0.0039062
        k(  375) = (   0.3750000  -0.5000000   0.3110844), wk =   0.0039062
        k(  376) = (   0.3750000  -0.5000000   0.3733013), wk =   0.0039062
        k(  377) = (   0.3750000  -0.5000000   0.4355182), wk =   0.0039062
        k(  378) = (   0.3750000  -0.5000000  -0.4977351), wk =   0.0019531
        k(  379) = (   0.4375000   0.4375000   0.0000000), wk =   0.0019531
        k(  380) = (   0.4375000   0.4375000   0.0622169), wk =   0.0039062
        k(  381) = (   0.4375000   0.4375000   0.1244338), wk =   0.0039062
        k(  382) = (   0.4375000   0.4375000   0.1866507), wk =   0.0039062
        k(  383) = (   0.4375000   0.4375000   0.2488676), wk =   0.0039062
        k(  384) = (   0.4375000   0.4375000   0.3110844), wk =   0.0039062
        k(  385) = (   0.4375000   0.4375000   0.3733013), wk =   0.0039062
        k(  386) = (   0.4375000   0.4375000   0.4355182), wk =   0.0039062
        k(  387) = (   0.4375000   0.4375000  -0.4977351), wk =   0.0019531
        k(  388) = (   0.4375000  -0.5000000   0.0000000), wk =   0.0019531
        k(  389) = (   0.4375000  -0.5000000   0.0622169), wk =   0.0039062
        k(  390) = (   0.4375000  -0.5000000   0.1244338), wk =   0.0039062
        k(  391) = (   0.4375000  -0.5000000   0.1866507), wk =   0.0039062
        k(  392) = (   0.4375000  -0.5000000   0.2488676), wk =   0.0039062
        k(  393) = (   0.4375000  -0.5000000   0.3110844), wk =   0.0039062
        k(  394) = (   0.4375000  -0.5000000   0.3733013), wk =   0.0039062
        k(  395) = (   0.4375000  -0.5000000   0.4355182), wk =   0.0039062
        k(  396) = (   0.4375000  -0.5000000  -0.4977351), wk =   0.0019531
        k(  397) = (  -0.5000000  -0.5000000   0.0000000), wk =   0.0004883
        k(  398) = (  -0.5000000  -0.5000000   0.0622169), wk =   0.0009766
        k(  399) = (  -0.5000000  -0.5000000   0.1244338), wk =   0.0009766
        k(  400) = (  -0.5000000  -0.5000000   0.1866507), wk =   0.0009766
        k(  401) = (  -0.5000000  -0.5000000   0.2488676), wk =   0.0009766
        k(  402) = (  -0.5000000  -0.5000000   0.3110844), wk =   0.0009766
        k(  403) = (  -0.5000000  -0.5000000   0.3733013), wk =   0.0009766
        k(  404) = (  -0.5000000  -0.5000000   0.4355182), wk =   0.0009766
        k(  405) = (  -0.5000000  -0.5000000  -0.4977351), wk =   0.0004883

                       cryst. coord.
        k(    1) = (   0.0000000   0.0000000   0.0000000), wk =   0.0004883
        k(    2) = (   0.0000000   0.0000000   0.0625000), wk =   0.0009766
        k(    3) = (   0.0000000   0.0000000   0.1250000), wk =   0.0009766
        k(    4) = (   0.0000000   0.0000000   0.1875000), wk =   0.0009766
        k(    5) = (   0.0000000   0.0000000   0.2500000), wk =   0.0009766
        k(    6) = (   0.0000000   0.0000000   0.3125000), wk =   0.0009766
        k(    7) = (   0.0000000   0.0000000   0.3750000), wk =   0.0009766
        k(    8) = (   0.0000000   0.0000000   0.4375000), wk =   0.0009766
        k(    9) = (   0.0000000   0.0000000  -0.5000000), wk =   0.0004883
        k(   10) = (   0.0000000   0.0625000   0.0000000), wk =   0.0019531
        k(   11) = (   0.0000000   0.0625000   0.0625000), wk =   0.0039062
        k(   12) = (   0.0000000   0.0625000   0.1250000), wk =   0.0039062
        k(   13) = (   0.0000000   0.0625000   0.1875000), wk =   0.0039062
        k(   14) = (   0.0000000   0.0625000   0.2500000), wk =   0.0039062
        k(   15) = (   0.0000000   0.0625000   0.3125000), wk =   0.0039062
        k(   16) = (   0.0000000   0.0625000   0.3750000), wk =   0.0039062
        k(   17) = (   0.0000000   0.0625000   0.4375000), wk =   0.0039062
        k(   18) = (   0.0000000   0.0625000  -0.5000000), wk =   0.0019531
        k(   19) = (   0.0000000   0.1250000   0.0000000), wk =   0.0019531
        k(   20) = (   0.0000000   0.1250000   0.0625000), wk =   0.0039062
        k(   21) = (   0.0000000   0.1250000   0.1250000), wk =   0.0039062
        k(   22) = (   0.0000000   0.1250000   0.1875000), wk =   0.0039062
        k(   23) = (   0.0000000   0.1250000   0.2500000), wk =   0.0039062
        k(   24) = (   0.0000000   0.1250000   0.3125000), wk =   0.0039062
        k(   25) = (   0.0000000   0.1250000   0.3750000), wk =   0.0039062
        k(   26) = (   0.0000000   0.1250000   0.4375000), wk =   0.0039062
        k(   27) = (   0.0000000   0.1250000  -0.5000000), wk =   0.0019531
        k(   28) = (   0.0000000   0.1875000   0.0000000), wk =   0.0019531
        k(   29) = (   0.0000000   0.1875000   0.0625000), wk =   0.0039062
        k(   30) = (   0.0000000   0.1875000   0.1250000), wk =   0.0039062
        k(   31) = (   0.0000000   0.1875000   0.1875000), wk =   0.0039062
        k(   32) = (   0.0000000   0.1875000   0.2500000), wk =   0.0039062
        k(   33) = (   0.0000000   0.1875000   0.3125000), wk =   0.0039062
        k(   34) = (   0.0000000   0.1875000   0.3750000), wk =   0.0039062
        k(   35) = (   0.0000000   0.1875000   0.4375000), wk =   0.0039062
        k(   36) = (   0.0000000   0.1875000  -0.5000000), wk =   0.0019531
        k(   37) = (   0.0000000   0.2500000   0.0000000), wk =   0.0019531
        k(   38) = (   0.0000000   0.2500000   0.0625000), wk =   0.0039062
        k(   39) = (   0.0000000   0.2500000   0.1250000), wk =   0.0039062
        k(   40) = (   0.0000000   0.2500000   0.1875000), wk =   0.0039062
        k(   41) = (   0.0000000   0.2500000   0.2500000), wk =   0.0039062
        k(   42) = (   0.0000000   0.2500000   0.3125000), wk =   0.0039062
        k(   43) = (   0.0000000   0.2500000   0.3750000), wk =   0.0039062
        k(   44) = (   0.0000000   0.2500000   0.4375000), wk =   0.0039062
        k(   45) = (   0.0000000   0.2500000  -0.5000000), wk =   0.0019531
        k(   46) = (   0.0000000   0.3125000   0.0000000), wk =   0.0019531
        k(   47) = (   0.0000000   0.3125000   0.0625000), wk =   0.0039062
        k(   48) = (   0.0000000   0.3125000   0.1250000), wk =   0.0039062
        k(   49) = (   0.0000000   0.3125000   0.1875000), wk =   0.0039062
        k(   50) = (   0.0000000   0.3125000   0.2500000), wk =   0.0039062
        k(   51) = (   0.0000000   0.3125000   0.3125000), wk =   0.0039062
        k(   52) = (   0.0000000   0.3125000   0.3750000), wk =   0.0039062
        k(   53) = (   0.0000000   0.3125000   0.4375000), wk =   0.0039062
        k(   54) = (   0.0000000   0.3125000  -0.5000000), wk =   0.0019531
        k(   55) = (   0.0000000   0.3750000   0.0000000), wk =   0.0019531
        k(   56) = (   0.0000000   0.3750000   0.0625000), wk =   0.0039062
        k(   57) = (   0.0000000   0.3750000   0.1250000), wk =   0.0039062
        k(   58) = (   0.0000000   0.3750000   0.1875000), wk =   0.0039062
        k(   59) = (   0.0000000   0.3750000   0.2500000), wk =   0.0039062
        k(   60) = (   0.0000000   0.3750000   0.3125000), wk =   0.0039062
        k(   61) = (   0.0000000   0.3750000   0.3750000), wk =   0.0039062
        k(   62) = (   0.0000000   0.3750000   0.4375000), wk =   0.0039062
        k(   63) = (   0.0000000   0.3750000  -0.5000000), wk =   0.0019531
        k(   64) = (   0.0000000   0.4375000   0.0000000), wk =   0.0019531
        k(   65) = (   0.0000000   0.4375000   0.0625000), wk =   0.0039062
        k(   66) = (   0.0000000   0.4375000   0.1250000), wk =   0.0039062
        k(   67) = (   0.0000000   0.4375000   0.1875000), wk =   0.0039062
        k(   68) = (   0.0000000   0.4375000   0.2500000), wk =   0.0039062
        k(   69) = (   0.0000000   0.4375000   0.3125000), wk =   0.0039062
        k(   70) = (   0.0000000   0.4375000   0.3750000), wk =   0.0039062
        k(   71) = (   0.0000000   0.4375000   0.4375000), wk =   0.0039062
        k(   72) = (   0.0000000   0.4375000  -0.5000000), wk =   0.0019531
        k(   73) = (   0.0000000  -0.5000000   0.0000000), wk =   0.0009766
        k(   74) = (   0.0000000  -0.5000000   0.0625000), wk =   0.0019531
        k(   75) = (   0.0000000  -0.5000000   0.1250000), wk =   0.0019531
        k(   76) = (   0.0000000  -0.5000000   0.1875000), wk =   0.0019531
        k(   77) = (   0.0000000  -0.5000000   0.2500000), wk =   0.0019531
        k(   78) = (   0.0000000  -0.5000000   0.3125000), wk =   0.0019531
        k(   79) = (   0.0000000  -0.5000000   0.3750000), wk =   0.0019531
        k(   80) = (   0.0000000  -0.5000000   0.4375000), wk =   0.0019531
        k(   81) = (   0.0000000  -0.5000000  -0.5000000), wk =   0.0009766
        k(   82) = (   0.0625000   0.0625000   0.0000000), wk =   0.0019531
        k(   83) = (   0.0625000   0.0625000   0.0625000), wk =   0.0039062
        k(   84) = (   0.0625000   0.0625000   0.1250000), wk =   0.0039062
        k(   85) = (   0.0625000   0.0625000   0.1875000), wk =   0.0039062
        k(   86) = (   0.0625000   0.0625000   0.2500000), wk =   0.0039062
        k(   87) = (   0.0625000   0.0625000   0.3125000), wk =   0.0039062
        k(   88) = (   0.0625000   0.0625000   0.3750000), wk =   0.0039062
        k(   89) = (   0.0625000   0.0625000   0.4375000), wk =   0.0039062
        k(   90) = (   0.0625000   0.0625000  -0.5000000), wk =   0.0019531
        k(   91) = (   0.0625000   0.1250000   0.0000000), wk =   0.0039062
        k(   92) = (   0.0625000   0.1250000   0.0625000), wk =   0.0078125
        k(   93) = (   0.0625000   0.1250000   0.1250000), wk =   0.0078125
        k(   94) = (   0.0625000   0.1250000   0.1875000), wk =   0.0078125
        k(   95) = (   0.0625000   0.1250000   0.2500000), wk =   0.0078125
        k(   96) = (   0.0625000   0.1250000   0.3125000), wk =   0.0078125
        k(   97) = (   0.0625000   0.1250000   0.3750000), wk =   0.0078125
        k(   98) = (   0.0625000   0.1250000   0.4375000), wk =   0.0078125
        k(   99) = (   0.0625000   0.1250000  -0.5000000), wk =   0.0039062
        k(  100) = (   0.0625000   0.1875000   0.0000000), wk =   0.0039062
        k(  101) = (   0.0625000   0.1875000   0.0625000), wk =   0.0078125
        k(  102) = (   0.0625000   0.1875000   0.1250000), wk =   0.0078125
        k(  103) = (   0.0625000   0.1875000   0.1875000), wk =   0.0078125
        k(  104) = (   0.0625000   0.1875000   0.2500000), wk =   0.0078125
        k(  105) = (   0.0625000   0.1875000   0.3125000), wk =   0.0078125
        k(  106) = (   0.0625000   0.1875000   0.3750000), wk =   0.0078125
        k(  107) = (   0.0625000   0.1875000   0.4375000), wk =   0.0078125
        k(  108) = (   0.0625000   0.1875000  -0.5000000), wk =   0.0039062
        k(  109) = (   0.0625000   0.2500000   0.0000000), wk =   0.0039062
        k(  110) = (   0.0625000   0.2500000   0.0625000), wk =   0.0078125
        k(  111) = (   0.0625000   0.2500000   0.1250000), wk =   0.0078125
        k(  112) = (   0.0625000   0.2500000   0.1875000), wk =   0.0078125
        k(  113) = (   0.0625000   0.2500000   0.2500000), wk =   0.0078125
        k(  114) = (   0.0625000   0.2500000   0.3125000), wk =   0.0078125
        k(  115) = (   0.0625000   0.2500000   0.3750000), wk =   0.0078125
        k(  116) = (   0.0625000   0.2500000   0.4375000), wk =   0.0078125
        k(  117) = (   0.0625000   0.2500000  -0.5000000), wk =   0.0039062
        k(  118) = (   0.0625000   0.3125000   0.0000000), wk =   0.0039062
        k(  119) = (   0.0625000   0.3125000   0.0625000), wk =   0.0078125
        k(  120) = (   0.0625000   0.3125000   0.1250000), wk =   0.0078125
        k(  121) = (   0.0625000   0.3125000   0.1875000), wk =   0.0078125
        k(  122) = (   0.0625000   0.3125000   0.2500000), wk =   0.0078125
        k(  123) = (   0.0625000   0.3125000   0.3125000), wk =   0.0078125
        k(  124) = (   0.0625000   0.3125000   0.3750000), wk =   0.0078125
        k(  125) = (   0.0625000   0.3125000   0.4375000), wk =   0.0078125
        k(  126) = (   0.0625000   0.3125000  -0.5000000), wk =   0.0039062
        k(  127) = (   0.0625000   0.3750000   0.0000000), wk =   0.0039062
        k(  128) = (   0.0625000   0.3750000   0.0625000), wk =   0.0078125
        k(  129) = (   0.0625000   0.3750000   0.1250000), wk =   0.0078125
        k(  130) = (   0.0625000   0.3750000   0.1875000), wk =   0.0078125
        k(  131) = (   0.0625000   0.3750000   0.2500000), wk =   0.0078125
        k(  132) = (   0.0625000   0.3750000   0.3125000), wk =   0.0078125
        k(  133) = (   0.0625000   0.3750000   0.3750000), wk =   0.0078125
        k(  134) = (   0.0625000   0.3750000   0.4375000), wk =   0.0078125
        k(  135) = (   0.0625000   0.3750000  -0.5000000), wk =   0.0039062
        k(  136) = (   0.0625000   0.4375000   0.0000000), wk =   0.0039062
        k(  137) = (   0.0625000   0.4375000   0.0625000), wk =   0.0078125
        k(  138) = (   0.0625000   0.4375000   0.1250000), wk =   0.0078125
        k(  139) = (   0.0625000   0.4375000   0.1875000), wk =   0.0078125
        k(  140) = (   0.0625000   0.4375000   0.2500000), wk =   0.0078125
        k(  141) = (   0.0625000   0.4375000   0.3125000), wk =   0.0078125
        k(  142) = (   0.0625000   0.4375000   0.3750000), wk =   0.0078125
        k(  143) = (   0.0625000   0.4375000   0.4375000), wk =   0.0078125
        k(  144) = (   0.0625000   0.4375000  -0.5000000), wk =   0.0039062
        k(  145) = (   0.0625000  -0.5000000   0.0000000), wk =   0.0019531
        k(  146) = (   0.0625000  -0.5000000   0.0625000), wk =   0.0039062
        k(  147) = (   0.0625000  -0.5000000   0.1250000), wk =   0.0039062
        k(  148) = (   0.0625000  -0.5000000   0.1875000), wk =   0.0039062
        k(  149) = (   0.0625000  -0.5000000   0.2500000), wk =   0.0039062
        k(  150) = (   0.0625000  -0.5000000   0.3125000), wk =   0.0039062
        k(  151) = (   0.0625000  -0.5000000   0.3750000), wk =   0.0039062
        k(  152) = (   0.0625000  -0.5000000   0.4375000), wk =   0.0039062
        k(  153) = (   0.0625000  -0.5000000  -0.5000000), wk =   0.0019531
        k(  154) = (   0.1250000   0.1250000   0.0000000), wk =   0.0019531
        k(  155) = (   0.1250000   0.1250000   0.0625000), wk =   0.0039062
        k(  156) = (   0.1250000   0.1250000   0.1250000), wk =   0.0039062
        k(  157) = (   0.1250000   0.1250000   0.1875000), wk =   0.0039062
        k(  158) = (   0.1250000   0.1250000   0.2500000), wk =   0.0039062
        k(  159) = (   0.1250000   0.1250000   0.3125000), wk =   0.0039062
        k(  160) = (   0.1250000   0.1250000   0.3750000), wk =   0.0039062
        k(  161) = (   0.1250000   0.1250000   0.4375000), wk =   0.0039062
        k(  162) = (   0.1250000   0.1250000  -0.5000000), wk =   0.0019531
        k(  163) = (   0.1250000   0.1875000   0.0000000), wk =   0.0039062
        k(  164) = (   0.1250000   0.1875000   0.0625000), wk =   0.0078125
        k(  165) = (   0.1250000   0.1875000   0.1250000), wk =   0.0078125
        k(  166) = (   0.1250000   0.1875000   0.1875000), wk =   0.0078125
        k(  167) = (   0.1250000   0.1875000   0.2500000), wk =   0.0078125
        k(  168) = (   0.1250000   0.1875000   0.3125000), wk =   0.0078125
        k(  169) = (   0.1250000   0.1875000   0.3750000), wk =   0.0078125
        k(  170) = (   0.1250000   0.1875000   0.4375000), wk =   0.0078125
        k(  171) = (   0.1250000   0.1875000  -0.5000000), wk =   0.0039062
        k(  172) = (   0.1250000   0.2500000   0.0000000), wk =   0.0039062
        k(  173) = (   0.1250000   0.2500000   0.0625000), wk =   0.0078125
        k(  174) = (   0.1250000   0.2500000   0.1250000), wk =   0.0078125
        k(  175) = (   0.1250000   0.2500000   0.1875000), wk =   0.0078125
        k(  176) = (   0.1250000   0.2500000   0.2500000), wk =   0.0078125
        k(  177) = (   0.1250000   0.2500000   0.3125000), wk =   0.0078125
        k(  178) = (   0.1250000   0.2500000   0.3750000), wk =   0.0078125
        k(  179) = (   0.1250000   0.2500000   0.4375000), wk =   0.0078125
        k(  180) = (   0.1250000   0.2500000  -0.5000000), wk =   0.0039062
        k(  181) = (   0.1250000   0.3125000   0.0000000), wk =   0.0039062
        k(  182) = (   0.1250000   0.3125000   0.0625000), wk =   0.0078125
        k(  183) = (   0.1250000   0.3125000   0.1250000), wk =   0.0078125
        k(  184) = (   0.1250000   0.3125000   0.1875000), wk =   0.0078125
        k(  185) = (   0.1250000   0.3125000   0.2500000), wk =   0.0078125
        k(  186) = (   0.1250000   0.3125000   0.3125000), wk =   0.0078125
        k(  187) = (   0.1250000   0.3125000   0.3750000), wk =   0.0078125
        k(  188) = (   0.1250000   0.3125000   0.4375000), wk =   0.0078125
        k(  189) = (   0.1250000   0.3125000  -0.5000000), wk =   0.0039062
        k(  190) = (   0.1250000   0.3750000   0.0000000), wk =   0.0039062
        k(  191) = (   0.1250000   0.3750000   0.0625000), wk =   0.0078125
        k(  192) = (   0.1250000   0.3750000   0.1250000), wk =   0.0078125
        k(  193) = (   0.1250000   0.3750000   0.1875000), wk =   0.0078125
        k(  194) = (   0.1250000   0.3750000   0.2500000), wk =   0.0078125
        k(  195) = (   0.1250000   0.3750000   0.3125000), wk =   0.0078125
        k(  196) = (   0.1250000   0.3750000   0.3750000), wk =   0.0078125
        k(  197) = (   0.1250000   0.3750000   0.4375000), wk =   0.0078125
        k(  198) = (   0.1250000   0.3750000  -0.5000000), wk =   0.0039062
        k(  199) = (   0.1250000   0.4375000   0.0000000), wk =   0.0039062
        k(  200) = (   0.1250000   0.4375000   0.0625000), wk =   0.0078125
        k(  201) = (   0.1250000   0.4375000   0.1250000), wk =   0.0078125
        k(  202) = (   0.1250000   0.4375000   0.1875000), wk =   0.0078125
        k(  203) = (   0.1250000   0.4375000   0.2500000), wk =   0.0078125
        k(  204) = (   0.1250000   0.4375000   0.3125000), wk =   0.0078125
        k(  205) = (   0.1250000   0.4375000   0.3750000), wk =   0.0078125
        k(  206) = (   0.1250000   0.4375000   0.4375000), wk =   0.0078125
        k(  207) = (   0.1250000   0.4375000  -0.5000000), wk =   0.0039062
        k(  208) = (   0.1250000  -0.5000000   0.0000000), wk =   0.0019531
        k(  209) = (   0.1250000  -0.5000000   0.0625000), wk =   0.0039062
        k(  210) = (   0.1250000  -0.5000000   0.1250000), wk =   0.0039062
        k(  211) = (   0.1250000  -0.5000000   0.1875000), wk =   0.0039062
        k(  212) = (   0.1250000  -0.5000000   0.2500000), wk =   0.0039062
        k(  213) = (   0.1250000  -0.5000000   0.3125000), wk =   0.0039062
        k(  214) = (   0.1250000  -0.5000000   0.3750000), wk =   0.0039062
        k(  215) = (   0.1250000  -0.5000000   0.4375000), wk =   0.0039062
        k(  216) = (   0.1250000  -0.5000000  -0.5000000), wk =   0.0019531
        k(  217) = (   0.1875000   0.1875000   0.0000000), wk =   0.0019531
        k(  218) = (   0.1875000   0.1875000   0.0625000), wk =   0.0039062
        k(  219) = (   0.1875000   0.1875000   0.1250000), wk =   0.0039062
        k(  220) = (   0.1875000   0.1875000   0.1875000), wk =   0.0039062
        k(  221) = (   0.1875000   0.1875000   0.2500000), wk =   0.0039062
        k(  222) = (   0.1875000   0.1875000   0.3125000), wk =   0.0039062
        k(  223) = (   0.1875000   0.1875000   0.3750000), wk =   0.0039062
        k(  224) = (   0.1875000   0.1875000   0.4375000), wk =   0.0039062
        k(  225) = (   0.1875000   0.1875000  -0.5000000), wk =   0.0019531
        k(  226) = (   0.1875000   0.2500000   0.0000000), wk =   0.0039062
        k(  227) = (   0.1875000   0.2500000   0.0625000), wk =   0.0078125
        k(  228) = (   0.1875000   0.2500000   0.1250000), wk =   0.0078125
        k(  229) = (   0.1875000   0.2500000   0.1875000), wk =   0.0078125
        k(  230) = (   0.1875000   0.2500000   0.2500000), wk =   0.0078125
        k(  231) = (   0.1875000   0.2500000   0.3125000), wk =   0.0078125
        k(  232) = (   0.1875000   0.2500000   0.3750000), wk =   0.0078125
        k(  233) = (   0.1875000   0.2500000   0.4375000), wk =   0.0078125
        k(  234) = (   0.1875000   0.2500000  -0.5000000), wk =   0.0039062
        k(  235) = (   0.1875000   0.3125000   0.0000000), wk =   0.0039062
        k(  236) = (   0.1875000   0.3125000   0.0625000), wk =   0.0078125
        k(  237) = (   0.1875000   0.3125000   0.1250000), wk =   0.0078125
        k(  238) = (   0.1875000   0.3125000   0.1875000), wk =   0.0078125
        k(  239) = (   0.1875000   0.3125000   0.2500000), wk =   0.0078125
        k(  240) = (   0.1875000   0.3125000   0.3125000), wk =   0.0078125
        k(  241) = (   0.1875000   0.3125000   0.3750000), wk =   0.0078125
        k(  242) = (   0.1875000   0.3125000   0.4375000), wk =   0.0078125
        k(  243) = (   0.1875000   0.3125000  -0.5000000), wk =   0.0039062
        k(  244) = (   0.1875000   0.3750000   0.0000000), wk =   0.0039062
        k(  245) = (   0.1875000   0.3750000   0.0625000), wk =   0.0078125
        k(  246) = (   0.1875000   0.3750000   0.1250000), wk =   0.0078125
        k(  247) = (   0.1875000   0.3750000   0.1875000), wk =   0.0078125
        k(  248) = (   0.1875000   0.3750000   0.2500000), wk =   0.0078125
        k(  249) = (   0.1875000   0.3750000   0.3125000), wk =   0.0078125
        k(  250) = (   0.1875000   0.3750000   0.3750000), wk =   0.0078125
        k(  251) = (   0.1875000   0.3750000   0.4375000), wk =   0.0078125
        k(  252) = (   0.1875000   0.3750000  -0.5000000), wk =   0.0039062
        k(  253) = (   0.1875000   0.4375000   0.0000000), wk =   0.0039062
        k(  254) = (   0.1875000   0.4375000   0.0625000), wk =   0.0078125
        k(  255) = (   0.1875000   0.4375000   0.1250000), wk =   0.0078125
        k(  256) = (   0.1875000   0.4375000   0.1875000), wk =   0.0078125
        k(  257) = (   0.1875000   0.4375000   0.2500000), wk =   0.0078125
        k(  258) = (   0.1875000   0.4375000   0.3125000), wk =   0.0078125
        k(  259) = (   0.1875000   0.4375000   0.3750000), wk =   0.0078125
        k(  260) = (   0.1875000   0.4375000   0.4375000), wk =   0.0078125
        k(  261) = (   0.1875000   0.4375000  -0.5000000), wk =   0.0039062
        k(  262) = (   0.1875000  -0.5000000   0.0000000), wk =   0.0019531
        k(  263) = (   0.1875000  -0.5000000   0.0625000), wk =   0.0039062
        k(  264) = (   0.1875000  -0.5000000   0.1250000), wk =   0.0039062
        k(  265) = (   0.1875000  -0.5000000   0.1875000), wk =   0.0039062
        k(  266) = (   0.1875000  -0.5000000   0.2500000), wk =   0.0039062
        k(  267) = (   0.1875000  -0.5000000   0.3125000), wk =   0.0039062
        k(  268) = (   0.1875000  -0.5000000   0.3750000), wk =   0.0039062
        k(  269) = (   0.1875000  -0.5000000   0.4375000), wk =   0.0039062
        k(  270) = (   0.1875000  -0.5000000  -0.5000000), wk =   0.0019531
        k(  271) = (   0.2500000   0.2500000   0.0000000), wk =   0.0019531
        k(  272) = (   0.2500000   0.2500000   0.0625000), wk =   0.0039062
        k(  273) = (   0.2500000   0.2500000   0.1250000), wk =   0.0039062
        k(  274) = (   0.2500000   0.2500000   0.1875000), wk =   0.0039062
        k(  275) = (   0.2500000   0.2500000   0.2500000), wk =   0.0039062
        k(  276) = (   0.2500000   0.2500000   0.3125000), wk =   0.0039062
        k(  277) = (   0.2500000   0.2500000   0.3750000), wk =   0.0039062
        k(  278) = (   0.2500000   0.2500000   0.4375000), wk =   0.0039062
        k(  279) = (   0.2500000   0.2500000  -0.5000000), wk =   0.0019531
        k(  280) = (   0.2500000   0.3125000   0.0000000), wk =   0.0039062
        k(  281) = (   0.2500000   0.3125000   0.0625000), wk =   0.0078125
        k(  282) = (   0.2500000   0.3125000   0.1250000), wk =   0.0078125
        k(  283) = (   0.2500000   0.3125000   0.1875000), wk =   0.0078125
        k(  284) = (   0.2500000   0.3125000   0.2500000), wk =   0.0078125
        k(  285) = (   0.2500000   0.3125000   0.3125000), wk =   0.0078125
        k(  286) = (   0.2500000   0.3125000   0.3750000), wk =   0.0078125
        k(  287) = (   0.2500000   0.3125000   0.4375000), wk =   0.0078125
        k(  288) = (   0.2500000   0.3125000  -0.5000000), wk =   0.0039062
        k(  289) = (   0.2500000   0.3750000   0.0000000), wk =   0.0039062
        k(  290) = (   0.2500000   0.3750000   0.0625000), wk =   0.0078125
        k(  291) = (   0.2500000   0.3750000   0.1250000), wk =   0.0078125
        k(  292) = (   0.2500000   0.3750000   0.1875000), wk =   0.0078125
        k(  293) = (   0.2500000   0.3750000   0.2500000), wk =   0.0078125
        k(  294) = (   0.2500000   0.3750000   0.3125000), wk =   0.0078125
        k(  295) = (   0.2500000   0.3750000   0.3750000), wk =   0.0078125
        k(  296) = (   0.2500000   0.3750000   0.4375000), wk =   0.0078125
        k(  297) = (   0.2500000   0.3750000  -0.5000000), wk =   0.0039062
        k(  298) = (   0.2500000   0.4375000   0.0000000), wk =   0.0039062
        k(  299) = (   0.2500000   0.4375000   0.0625000), wk =   0.0078125
        k(  300) = (   0.2500000   0.4375000   0.1250000), wk =   0.0078125
        k(  301) = (   0.2500000   0.4375000   0.1875000), wk =   0.0078125
        k(  302) = (   0.2500000   0.4375000   0.2500000), wk =   0.0078125
        k(  303) = (   0.2500000   0.4375000   0.3125000), wk =   0.0078125
        k(  304) = (   0.2500000   0.4375000   0.3750000), wk =   0.0078125
        k(  305) = (   0.2500000   0.4375000   0.4375000), wk =   0.0078125
        k(  306) = (   0.2500000   0.4375000  -0.5000000), wk =   0.0039062
        k(  307) = (   0.2500000  -0.5000000   0.0000000), wk =   0.0019531
        k(  308) = (   0.2500000  -0.5000000   0.0625000), wk =   0.0039062
        k(  309) = (   0.2500000  -0.5000000   0.1250000), wk =   0.0039062
        k(  310) = (   0.2500000  -0.5000000   0.1875000), wk =   0.0039062
        k(  311) = (   0.2500000  -0.5000000   0.2500000), wk =   0.0039062
        k(  312) = (   0.2500000  -0.5000000   0.3125000), wk =   0.0039062
        k(  313) = (   0.2500000  -0.5000000   0.3750000), wk =   0.0039062
        k(  314) = (   0.2500000  -0.5000000   0.4375000), wk =   0.0039062
        k(  315) = (   0.2500000  -0.5000000  -0.5000000), wk =   0.0019531
        k(  316) = (   0.3125000   0.3125000   0.0000000), wk =   0.0019531
        k(  317) = (   0.3125000   0.3125000   0.0625000), wk =   0.0039062
        k(  318) = (   0.3125000   0.3125000   0.1250000), wk =   0.0039062
        k(  319) = (   0.3125000   0.3125000   0.1875000), wk =   0.0039062
        k(  320) = (   0.3125000   0.3125000   0.2500000), wk =   0.0039062
        k(  321) = (   0.3125000   0.3125000   0.3125000), wk =   0.0039062
        k(  322) = (   0.3125000   0.3125000   0.3750000), wk =   0.0039062
        k(  323) = (   0.3125000   0.3125000   0.4375000), wk =   0.0039062
        k(  324) = (   0.3125000   0.3125000  -0.5000000), wk =   0.0019531
        k(  325) = (   0.3125000   0.3750000   0.0000000), wk =   0.0039062
        k(  326) = (   0.3125000   0.3750000   0.0625000), wk =   0.0078125
        k(  327) = (   0.3125000   0.3750000   0.1250000), wk =   0.0078125
        k(  328) = (   0.3125000   0.3750000   0.1875000), wk =   0.0078125
        k(  329) = (   0.3125000   0.3750000   0.2500000), wk =   0.0078125
        k(  330) = (   0.3125000   0.3750000   0.3125000), wk =   0.0078125
        k(  331) = (   0.3125000   0.3750000   0.3750000), wk =   0.0078125
        k(  332) = (   0.3125000   0.3750000   0.4375000), wk =   0.0078125
        k(  333) = (   0.3125000   0.3750000  -0.5000000), wk =   0.0039062
        k(  334) = (   0.3125000   0.4375000   0.0000000), wk =   0.0039062
        k(  335) = (   0.3125000   0.4375000   0.0625000), wk =   0.0078125
        k(  336) = (   0.3125000   0.4375000   0.1250000), wk =   0.0078125
        k(  337) = (   0.3125000   0.4375000   0.1875000), wk =   0.0078125
        k(  338) = (   0.3125000   0.4375000   0.2500000), wk =   0.0078125
        k(  339) = (   0.3125000   0.4375000   0.3125000), wk =   0.0078125
        k(  340) = (   0.3125000   0.4375000   0.3750000), wk =   0.0078125
        k(  341) = (   0.3125000   0.4375000   0.4375000), wk =   0.0078125
        k(  342) = (   0.3125000   0.4375000  -0.5000000), wk =   0.0039062
        k(  343) = (   0.3125000  -0.5000000   0.0000000), wk =   0.0019531
        k(  344) = (   0.3125000  -0.5000000   0.0625000), wk =   0.0039062
        k(  345) = (   0.3125000  -0.5000000   0.1250000), wk =   0.0039062
        k(  346) = (   0.3125000  -0.5000000   0.1875000), wk =   0.0039062
        k(  347) = (   0.3125000  -0.5000000   0.2500000), wk =   0.0039062
        k(  348) = (   0.3125000  -0.5000000   0.3125000), wk =   0.0039062
        k(  349) = (   0.3125000  -0.5000000   0.3750000), wk =   0.0039062
        k(  350) = (   0.3125000  -0.5000000   0.4375000), wk =   0.0039062
        k(  351) = (   0.3125000  -0.5000000  -0.5000000), wk =   0.0019531
        k(  352) = (   0.3750000   0.3750000   0.0000000), wk =   0.0019531
        k(  353) = (   0.3750000   0.3750000   0.0625000), wk =   0.0039062
        k(  354) = (   0.3750000   0.3750000   0.1250000), wk =   0.0039062
        k(  355) = (   0.3750000   0.3750000   0.1875000), wk =   0.0039062
        k(  356) = (   0.3750000   0.3750000   0.2500000), wk =   0.0039062
        k(  357) = (   0.3750000   0.3750000   0.3125000), wk =   0.0039062
        k(  358) = (   0.3750000   0.3750000   0.3750000), wk =   0.0039062
        k(  359) = (   0.3750000   0.3750000   0.4375000), wk =   0.0039062
        k(  360) = (   0.3750000   0.3750000  -0.5000000), wk =   0.0019531
        k(  361) = (   0.3750000   0.4375000   0.0000000), wk =   0.0039062
        k(  362) = (   0.3750000   0.4375000   0.0625000), wk =   0.0078125
        k(  363) = (   0.3750000   0.4375000   0.1250000), wk =   0.0078125
        k(  364) = (   0.3750000   0.4375000   0.1875000), wk =   0.0078125
        k(  365) = (   0.3750000   0.4375000   0.2500000), wk =   0.0078125
        k(  366) = (   0.3750000   0.4375000   0.3125000), wk =   0.0078125
        k(  367) = (   0.3750000   0.4375000   0.3750000), wk =   0.0078125
        k(  368) = (   0.3750000   0.4375000   0.4375000), wk =   0.0078125
        k(  369) = (   0.3750000   0.4375000  -0.5000000), wk =   0.0039062
        k(  370) = (   0.3750000  -0.5000000   0.0000000), wk =   0.0019531
        k(  371) = (   0.3750000  -0.5000000   0.0625000), wk =   0.0039062
        k(  372) = (   0.3750000  -0.5000000   0.1250000), wk =   0.0039062
        k(  373) = (   0.3750000  -0.5000000   0.1875000), wk =   0.0039062
        k(  374) = (   0.3750000  -0.5000000   0.2500000), wk =   0.0039062
        k(  375) = (   0.3750000  -0.5000000   0.3125000), wk =   0.0039062
        k(  376) = (   0.3750000  -0.5000000   0.3750000), wk =   0.0039062
        k(  377) = (   0.3750000  -0.5000000   0.4375000), wk =   0.0039062
        k(  378) = (   0.3750000  -0.5000000  -0.5000000), wk =   0.0019531
        k(  379) = (   0.4375000   0.4375000   0.0000000), wk =   0.0019531
        k(  380) = (   0.4375000   0.4375000   0.0625000), wk =   0.0039062
        k(  381) = (   0.4375000   0.4375000   0.1250000), wk =   0.0039062
        k(  382) = (   0.4375000   0.4375000   0.1875000), wk =   0.0039062
        k(  383) = (   0.4375000   0.4375000   0.2500000), wk =   0.0039062
        k(  384) = (   0.4375000   0.4375000   0.3125000), wk =   0.0039062
        k(  385) = (   0.4375000   0.4375000   0.3750000), wk =   0.0039062
        k(  386) = (   0.4375000   0.4375000   0.4375000), wk =   0.0039062
        k(  387) = (   0.4375000   0.4375000  -0.5000000), wk =   0.0019531
        k(  388) = (   0.4375000  -0.5000000   0.0000000), wk =   0.0019531
        k(  389) = (   0.4375000  -0.5000000   0.0625000), wk =   0.0039062
        k(  390) = (   0.4375000  -0.5000000   0.1250000), wk =   0.0039062
        k(  391) = (   0.4375000  -0.5000000   0.1875000), wk =   0.0039062
        k(  392) = (   0.4375000  -0.5000000   0.2500000), wk =   0.0039062
        k(  393) = (   0.4375000  -0.5000000   0.3125000), wk =   0.0039062
        k(  394) = (   0.4375000  -0.5000000   0.3750000), wk =   0.0039062
        k(  395) = (   0.4375000  -0.5000000   0.4375000), wk =   0.0039062
        k(  396) = (   0.4375000  -0.5000000  -0.5000000), wk =   0.0019531
        k(  397) = (  -0.5000000  -0.5000000   0.0000000), wk =   0.0004883
        k(  398) = (  -0.5000000  -0.5000000   0.0625000), wk =   0.0009766
        k(  399) = (  -0.5000000  -0.5000000   0.1250000), wk =   0.0009766
        k(  400) = (  -0.5000000  -0.5000000   0.1875000), wk =   0.0009766
        k(  401) = (  -0.5000000  -0.5000000   0.2500000), wk =   0.0009766
        k(  402) = (  -0.5000000  -0.5000000   0.3125000), wk =   0.0009766
        k(  403) = (  -0.5000000  -0.5000000   0.3750000), wk =   0.0009766
        k(  404) = (  -0.5000000  -0.5000000   0.4375000), wk =   0.0009766
        k(  405) = (  -0.5000000  -0.5000000  -0.5000000), wk =   0.0004883

     Dense  grid:    23255 G-vectors     FFT dimensions: (  36,  36,  36)

     Dynamical RAM for                 wfc:       0.06 MB

     Dynamical RAM for     wfc (w. buffer):      22.46 MB

     Dynamical RAM for           str. fact:       0.05 MB

     Dynamical RAM for           local pot:       0.00 MB

     Dynamical RAM for          nlocal pot:       0.18 MB

     Dynamical RAM for                qrad:       7.95 MB

     Dynamical RAM for          rho,v,vnew:       0.11 MB

     Dynamical RAM for               rhoin:       0.04 MB

     Dynamical RAM for            rho*nmix:       0.28 MB

     Dynamical RAM for           G-vectors:       0.08 MB

     Dynamical RAM for          h,s,v(r/c):       0.05 MB

     Dynamical RAM for          <psi|beta>:       0.03 MB

     Dynamical RAM for                 psi:       0.22 MB

     Dynamical RAM for                hpsi:       0.22 MB

     Dynamical RAM for                spsi:       0.22 MB

     Dynamical RAM for      wfcinit/wfcrot:       0.20 MB

     Dynamical RAM for           addusdens:       6.31 MB

     Dynamical RAM for          addusforce:       6.53 MB

     Estimated static dynamical RAM per process >      31.32 MB

     Estimated max dynamical RAM per process >      37.86 MB

     Estimated total dynamical RAM >     757.12 MB

     Check: negative/imaginary core charge=   -0.000003    0.000000

     Initial potential from superposition of free atoms
     Check: negative starting charge=   -0.094740

     starting charge   40.98226, renormalised to   41.00000

     negative rho (up, down):  9.478E-02 0.000E+00
     Starting wfcs are   38 randomized atomic wfcs

     total cpu time spent up to now is        4.0 secs

     Self-consistent Calculation

     iteration #  1     ecut=    50.00 Ry     beta= 0.70
     Davidson diagonalization with overlap
     ethr =  1.00E-02,  avg # of iterations =  2.0

     negative rho (up, down):  8.971E-02 0.000E+00

     total cpu time spent up to now is       12.0 secs

     total energy              =    -284.63280112 Ry
     Harris-Foulkes estimate   =    -286.22476843 Ry
     estimated scf accuracy    <       2.00133595 Ry

     iteration #  2     ecut=    50.00 Ry     beta= 0.70
     Davidson diagonalization with overlap
     ethr =  4.88E-03,  avg # of iterations =  3.8

     negative rho (up, down):  8.836E-02 0.000E+00

     total cpu time spent up to now is       27.8 secs

     total energy              =    -283.79030193 Ry
     Harris-Foulkes estimate   =    -287.17112510 Ry
     estimated scf accuracy    <       9.61273488 Ry

     iteration #  3     ecut=    50.00 Ry     beta= 0.70
     Davidson diagonalization with overlap
     ethr =  4.88E-03,  avg # of iterations =  3.8

     negative rho (up, down):  8.761E-02 0.000E+00

     total cpu time spent up to now is       41.8 secs

     total energy              =    -285.71849439 Ry
     Harris-Foulkes estimate   =    -285.76391065 Ry
     estimated scf accuracy    <       0.20334188 Ry

     iteration #  4     ecut=    50.00 Ry     beta= 0.70
     Davidson diagonalization with overlap
     ethr =  4.96E-04,  avg # of iterations =  2.3

     negative rho (up, down):  8.648E-02 0.000E+00

     total cpu time spent up to now is       51.0 secs

     total energy              =    -285.67938219 Ry
     Harris-Foulkes estimate   =    -285.72932561 Ry
     estimated scf accuracy    <       0.09873316 Ry

     iteration #  5     ecut=    50.00 Ry     beta= 0.70
     Davidson diagonalization with overlap
     ethr =  2.41E-04,  avg # of iterations =  3.7

     negative rho (up, down):  8.681E-02 0.000E+00

     total cpu time spent up to now is       64.2 secs

     total energy              =    -285.70720258 Ry
     Harris-Foulkes estimate   =    -285.70869942 Ry
     estimated scf accuracy    <       0.00878403 Ry

     iteration #  6     ecut=    50.00 Ry     beta= 0.70
     Davidson diagonalization with overlap
     ethr =  2.14E-05,  avg # of iterations =  3.0

     negative rho (up, down):  8.706E-02 0.000E+00

     total cpu time spent up to now is       74.9 secs

     total energy              =    -285.70656302 Ry
     Harris-Foulkes estimate   =    -285.70781833 Ry
     estimated scf accuracy    <       0.00460601 Ry

     iteration #  7     ecut=    50.00 Ry     beta= 0.70
     Davidson diagonalization with overlap
     ethr =  1.12E-05,  avg # of iterations =  2.4

     negative rho (up, down):  8.723E-02 0.000E+00

     total cpu time spent up to now is       84.2 secs

     total energy              =    -285.70655705 Ry
     Harris-Foulkes estimate   =    -285.70690978 Ry
     estimated scf accuracy    <       0.00078470 Ry

     iteration #  8     ecut=    50.00 Ry     beta= 0.70
     Davidson diagonalization with overlap
     ethr =  1.91E-06,  avg # of iterations =  4.4

     negative rho (up, down):  8.724E-02 0.000E+00

     total cpu time spent up to now is       98.6 secs

     total energy              =    -285.70673756 Ry
     Harris-Foulkes estimate   =    -285.70673852 Ry
     estimated scf accuracy    <       0.00000866 Ry

     iteration #  9     ecut=    50.00 Ry     beta= 0.70
     Davidson diagonalization with overlap
     ethr =  2.11E-08,  avg # of iterations =  2.3

     negative rho (up, down):  8.724E-02 0.000E+00

     total cpu time spent up to now is      108.4 secs

     total energy              =    -285.70673685 Ry
     Harris-Foulkes estimate   =    -285.70673887 Ry
     estimated scf accuracy    <       0.00000634 Ry

     iteration # 10     ecut=    50.00 Ry     beta= 0.70
     Davidson diagonalization with overlap
     ethr =  1.55E-08,  avg # of iterations =  2.0

     negative rho (up, down):  8.724E-02 0.000E+00

     total cpu time spent up to now is      117.0 secs

     total energy              =    -285.70673728 Ry
     Harris-Foulkes estimate   =    -285.70673748 Ry
     estimated scf accuracy    <       0.00000045 Ry

     iteration # 11     ecut=    50.00 Ry     beta= 0.70
     Davidson diagonalization with overlap
     ethr =  1.11E-09,  avg # of iterations =  3.0

     negative rho (up, down):  8.724E-02 0.000E+00

     total cpu time spent up to now is      128.3 secs

     total energy              =    -285.70673740 Ry
     Harris-Foulkes estimate   =    -285.70673740 Ry
     estimated scf accuracy    <       0.00000001 Ry

     iteration # 12     ecut=    50.00 Ry     beta= 0.70
     Davidson diagonalization with overlap
     ethr =  2.61E-11,  avg # of iterations =  2.2

     negative rho (up, down):  8.724E-02 0.000E+00

     total cpu time spent up to now is      138.1 secs

     End of self-consistent calculation

          k = 0.0000 0.0000 0.0000 (  2945 PWs)   bands (ev):

   -43.4242 -19.6127 -19.5124 -19.5124 -14.8759  -6.4875  -6.1155  -6.0455
    -0.0378  -0.0378  -0.0310   8.2328   8.2402   8.2402   8.8410   8.8410
     9.0046   9.5456   9.5963   9.5963  12.2978  12.6081  12.6081  14.9671
    15.0673

     occupation numbers 
     1.0000   1.0000   1.0000   1.0000   1.0000   1.0000   1.0000   1.0000
     1.0000   1.0000   1.0000   1.0000   1.0000   1.0000   1.0000   1.0000
     1.0000   1.0000   1.0000   1.0000   1.0000   1.0000   1.0000   0.0000
     0.0000

          k = 0.0000 0.0000 0.0622 (  2921 PWs)   bands (ev):

   -43.4242 -19.6165 -19.5123 -19.5123 -14.8733  -6.4787  -6.1089  -6.0446
    -0.0347  -0.0347  -0.0223   8.1462   8.2258   8.2258   8.7985   8.7985
     8.9766   9.4581   9.5895   9.5895  12.3057  12.6897  12.6897  15.0265
    15.1320

     occupation numbers 
     1.0000   1.0000   1.0000   1.0000   1.0000   1.0000   1.0000   1.0000
     1.0000   1.0000   1.0000   1.0000   1.0000   1.0000   1.0000   1.0000
     1.0000   1.0000   1.0000   1.0000   1.0000   1.0000   1.0000   0.0000
     0.0000

          k = 0.0000 0.0000 0.1244 (  2918 PWs)   bands (ev):

   -43.4241 -19.6272 -19.5119 -19.5119 -14.8658  -6.4629  -6.0799  -6.0419
    -0.0258  -0.0258   0.0023   7.8920   8.1832   8.1832   8.6880   8.6880
     8.8989   9.2440   9.5694   9.5694  12.3284  12.9169  12.9169  15.1939
    15.3177

     occupation numbers 
     1.0000   1.0000   1.0000   1.0000   1.0000   1.0000   1.0000   1.0000
     1.0000   1.0000   1.0000   1.0000   1.0000   1.0000   1.0000   1.0000
     1.0000   1.0000   1.0000   1.0000   1.0000   1.0000   1.0000   0.0000
     0.0000

          k = 0.0000 0.0000 0.1867 (  2910 PWs)   bands (ev):

   -43.4239 -19.6431 -19.5113 -19.5113 -14.8545  -6.4617  -6.0380  -6.0112
    -0.0125  -0.0125   0.0391   7.5011   8.1145   8.1145   8.5462   8.5462
[...]
     0.0000

          k = 0.3750-0.5000-0.4977 (  2924 PWs)   bands (ev):

   -43.4211 -19.6992 -19.6034 -19.5888 -14.7344  -5.6004  -5.5627  -5.4634
    -0.5030  -0.4863  -0.4540   5.9224   6.0359   6.3837   7.2159   7.4120
     7.4707   9.7962   9.9065   9.9278  15.3611  15.3647  15.5649  16.3531
    16.7549

     occupation numbers 
     1.0000   1.0000   1.0000   1.0000   1.0000   1.0000   1.0000   1.0000
     1.0000   1.0000   1.0000   1.0000   1.0000   1.0000   1.0000   1.0000
     1.0000   1.0000   1.0000   1.0000   0.0000   0.0000   0.0000   0.0000
     0.0000

          k = 0.4375 0.4375 0.0000 (  2920 PWs)   bands (ev):

   -43.4221 -19.6062 -19.6034 -19.6034 -14.7696  -6.3490  -5.5782  -5.5754
    -0.1267  -0.0996   0.1832   6.0647   6.0701   6.2995   7.5463   7.5523
     8.7425   8.9261   8.9824   9.9625  14.5314  14.5612  15.2732  16.2845
    17.5632

     occupation numbers 
     1.0000   1.0000   1.0000   1.0000   1.0000   1.0000   1.0000   1.0000
     1.0000   1.0000   1.0000   1.0000   1.0000   1.0000   1.0000   1.0000
     1.0000   1.0000   1.0000   1.0000   0.0000   0.0000   0.0000   0.0000
     0.0000

          k = 0.4375 0.4375 0.0622 (  2911 PWs)   bands (ev):

   -43.4220 -19.6096 -19.6034 -19.6032 -14.7682  -6.3226  -5.5749  -5.5716
    -0.1432  -0.1189   0.1565   6.0669   6.0706   6.3442   7.5385   7.5458
     8.6151   8.9547   9.0157   9.9636  14.5608  14.5883  15.2821  16.3834
    17.5969

     occupation numbers 
     1.0000   1.0000   1.0000   1.0000   1.0000   1.0000   1.0000   1.0000
     1.0000   1.0000   1.0000   1.0000   1.0000   1.0000   1.0000   1.0000
     1.0000   1.0000   1.0000   1.0000   0.0000   0.0000   0.0000   0.0000
     0.0000

          k = 0.4375 0.4375 0.1244 (  2917 PWs)   bands (ev):

   -43.4219 -19.6197 -19.6030 -19.6028 -14.7641  -6.2466  -5.5653  -5.5606
    -0.1896  -0.1732   0.0821   6.0719   6.0731   6.4695   7.5143   7.5275
     8.2615   9.0516   9.1110   9.9668  14.6454  14.6671  15.3067  16.5789
    17.7539

     occupation numbers 
     1.0000   1.0000   1.0000   1.0000   1.0000   1.0000   1.0000   1.0000
     1.0000   1.0000   1.0000   1.0000   1.0000   1.0000   1.0000   1.0000
     1.0000   1.0000   1.0000   1.0000   0.0000   0.0000   0.0000   0.0000
     0.0000

          k = 0.4375 0.4375 0.1867 (  2906 PWs)   bands (ev):

   -43.4218 -19.6349 -19.6023 -19.6021 -14.7579  -6.1303  -5.5509  -5.5440
    -0.2584  -0.2520  -0.0258   6.0739   6.0824   6.6523   7.4623   7.5007
     7.7905   9.2031   9.2546   9.9720  14.7762  14.7908  15.3419  16.6791
    17.9339

     occupation numbers 
     1.0000   1.0000   1.0000   1.0000   1.0000   1.0000   1.0000   1.0000
     1.0000   1.0000   1.0000   1.0000   1.0000   1.0000   1.0000   1.0000
     1.0000   1.0000   1.0000   1.0000   0.0000   0.0000   0.0000   0.0000
     0.0000

          k = 0.4375 0.4375 0.2489 (  2922 PWs)   bands (ev):

   -43.4216 -19.6528 -19.6015 -19.6013 -14.7507  -5.9887  -5.5339  -5.5241
    -0.3405  -0.3384  -0.1493   6.0762   6.0927   6.8587   7.1878   7.4697
     7.5029   9.3856   9.4264   9.9785  14.9396  14.9485  15.3804  16.6566
    17.6315

     occupation numbers 
     1.0000   1.0000   1.0000   1.0000   1.0000   1.0000   1.0000   1.0000
     1.0000   1.0000   1.0000   1.0000   1.0000   1.0000   1.0000   1.0000
     1.0000   1.0000   1.0000   1.0000   0.0000   0.0000   0.0000   0.0000
     0.0000

          k = 0.4375 0.4375 0.3111 (  2932 PWs)   bands (ev):

   -43.4214 -19.6705 -19.6007 -19.6005 -14.7434  -5.8416  -5.5171  -5.5039
    -0.4226  -0.4174  -0.2713   6.0786   6.0994   6.7140   7.0702   7.4393
     7.4474   9.5716   9.6020   9.9849  15.1182  15.1265  15.4159  16.5819
    17.2457

     occupation numbers 
     1.0000   1.0000   1.0000   1.0000   1.0000   1.0000   1.0000   1.0000
     1.0000   1.0000   1.0000   1.0000   1.0000   1.0000   1.0000   1.0000
     1.0000   1.0000   1.0000   1.0000   0.0000   0.0000   0.0000   0.0000
     0.0000

          k = 0.4375 0.4375 0.3733 (  2925 PWs)   bands (ev):

   -43.4212 -19.6854 -19.6000 -19.5999 -14.7372  -5.7116  -5.5036  -5.4864
    -0.4839  -0.4835  -0.3775   6.0807   6.0856   6.3511   7.2235   7.4140
     7.4263   9.7321   9.7559   9.9888  15.2900  15.3071  15.4443  16.4973
    16.8540

     occupation numbers 
     1.0000   1.0000   1.0000   1.0000   1.0000   1.0000   1.0000   1.0000
     1.0000   1.0000   1.0000   1.0000   1.0000   1.0000   1.0000   1.0000
     1.0000   1.0000   1.0000   1.0000   0.0000   0.0000   0.0000   0.0000
     0.0000

          k = 0.4375 0.4375 0.4355 (  2932 PWs)   bands (ev):

   -43.4211 -19.6954 -19.5995 -19.5994 -14.7330  -5.6205  -5.4963  -5.4746
    -0.5274  -0.5145  -0.4563   5.9918   6.0821   6.1994   7.2964   7.3972
     7.4434   9.8409   9.8652   9.9872  15.4188  15.4612  15.4693  16.4199
    16.5818

     occupation numbers 
     1.0000   1.0000   1.0000   1.0000   1.0000   1.0000   1.0000   1.0000
     1.0000   1.0000   1.0000   1.0000   1.0000   1.0000   1.0000   1.0000
     1.0000   1.0000   1.0000   1.0000   0.0000   0.0000   0.0000   0.0000
     0.0000

          k = 0.4375 0.4375-0.4977 (  2932 PWs)   bands (ev):

   -43.4210 -19.6989 -19.5994 -19.5993 -14.7316  -5.5867  -5.4950  -5.4704
    -0.5427  -0.5159  -0.4928   5.9249   6.0826   6.1812   7.3087   7.3913
     7.4626   9.8794   9.9084   9.9822  15.4509  15.4988  15.5289  16.3817
    16.4744

     occupation numbers 
     1.0000   1.0000   1.0000   1.0000   1.0000   1.0000   1.0000   1.0000
     1.0000   1.0000   1.0000   1.0000   1.0000   1.0000   1.0000   1.0000
     1.0000   1.0000   1.0000   1.0000   0.0000   0.0000   0.0000   0.0000
     0.0000

          k = 0.4375-0.5000 0.0000 (  2908 PWs)   bands (ev):

   -43.4220 -19.6072 -19.6059 -19.6031 -14.7681  -6.3419  -5.5818  -5.5503
    -0.1233  -0.1185   0.1882   5.9859   6.0669   6.2602   7.5270   7.5328
     8.7442   8.9626   8.9762   9.9831  14.5481  14.6309  15.3294  16.2599
    17.5500

     occupation numbers 
     1.0000   1.0000   1.0000   1.0000   1.0000   1.0000   1.0000   1.0000
     1.0000   1.0000   1.0000   1.0000   1.0000   1.0000   1.0000   1.0000
     1.0000   1.0000   1.0000   1.0000   0.0000   0.0000   0.0000   0.0000
     0.0000

          k = 0.4375-0.5000 0.0622 (  2910 PWs)   bands (ev):

   -43.4220 -19.6094 -19.6070 -19.6030 -14.7667  -6.3155  -5.5779  -5.5467
    -0.1412  -0.1355   0.1586   5.9871   6.0683   6.3079   7.5224   7.5267
     8.6116   8.9976   9.0056   9.9846  14.5768  14.6577  15.3386  16.3538
    17.5877

     occupation numbers 
     1.0000   1.0000   1.0000   1.0000   1.0000   1.0000   1.0000   1.0000
     1.0000   1.0000   1.0000   1.0000   1.0000   1.0000   1.0000   1.0000
     1.0000   1.0000   1.0000   1.0000   0.0000   0.0000   0.0000   0.0000
     0.0000

          k = 0.4375-0.5000 0.1244 (  2914 PWs)   bands (ev):

   -43.4219 -19.6196 -19.6066 -19.6026 -14.7626  -6.2394  -5.5668  -5.5363
    -0.1919  -0.1837   0.0765   5.9908   6.0725   6.4416   7.5072   7.5096
     8.2532   9.0947   9.0977   9.9891  14.6598  14.7360  15.3642  16.5335
    17.7637

     occupation numbers 
     1.0000   1.0000   1.0000   1.0000   1.0000   1.0000   1.0000   1.0000
     1.0000   1.0000   1.0000   1.0000   1.0000   1.0000   1.0000   1.0000
     1.0000   1.0000   1.0000   1.0000   0.0000   0.0000   0.0000   0.0000
     0.0000

          k = 0.4375-0.5000 0.1867 (  2918 PWs)   bands (ev):

   -43.4217 -19.6348 -19.6059 -19.6020 -14.7564  -6.1230  -5.5498  -5.5205
    -0.2664  -0.2548  -0.0413   5.9959   6.0789   6.6367   7.4722   7.4843
     7.7725   9.2344   9.2489   9.9959  14.7885  14.8584  15.4011  16.6156
    18.0285

     occupation numbers 
     1.0000   1.0000   1.0000   1.0000   1.0000   1.0000   1.0000   1.0000
     1.0000   1.0000   1.0000   1.0000   1.0000   1.0000   1.0000   1.0000
     1.0000   1.0000   1.0000   1.0000   0.0000   0.0000   0.0000   0.0000
     0.0000

          k = 0.4375-0.5000 0.2489 (  2918 PWs)   bands (ev):

   -43.4215 -19.6526 -19.6051 -19.6012 -14.7491  -5.9813  -5.5296  -5.5017
    -0.3519  -0.3376  -0.1739   6.0017   6.0862   6.8597   7.1955   7.4554
     7.4905   9.4066   9.4300  10.0043  14.9500  15.0139  15.4420  16.5819
    17.6511

     occupation numbers 
     1.0000   1.0000   1.0000   1.0000   1.0000   1.0000   1.0000   1.0000
     1.0000   1.0000   1.0000   1.0000   1.0000   1.0000   1.0000   1.0000
     1.0000   1.0000   1.0000   1.0000   0.0000   0.0000   0.0000   0.0000
     0.0000

          k = 0.4375-0.5000 0.3111 (  2926 PWs)   bands (ev):

   -43.4213 -19.6704 -19.6043 -19.6004 -14.7418  -5.8343  -5.5093  -5.4826
    -0.4338  -0.4190  -0.3016   6.0065   6.0915   6.7208   7.0750   7.4286
     7.4469   9.5866   9.6149  10.0125  15.1282  15.1875  15.4804  16.5010
    17.1905

     occupation numbers 
     1.0000   1.0000   1.0000   1.0000   1.0000   1.0000   1.0000   1.0000
     1.0000   1.0000   1.0000   1.0000   1.0000   1.0000   1.0000   1.0000
     1.0000   1.0000   1.0000   1.0000   0.0000   0.0000   0.0000   0.0000
     0.0000

          k = 0.4375-0.5000 0.3733 (  2932 PWs)   bands (ev):

   -43.4212 -19.6853 -19.6036 -19.5997 -14.7356  -5.7048  -5.4922  -5.4662
    -0.4982  -0.4872  -0.4092   6.0079   6.0845   6.3462   7.2462   7.4134
     7.4181   9.7459   9.7759  10.0188  15.3042  15.3597  15.5118  16.4145
    16.8152

     occupation numbers 
     1.0000   1.0000   1.0000   1.0000   1.0000   1.0000   1.0000   1.0000
     1.0000   1.0000   1.0000   1.0000   1.0000   1.0000   1.0000   1.0000
     1.0000   1.0000   1.0000   1.0000   0.0000   0.0000   0.0000   0.0000
     0.0000

          k = 0.4375-0.5000 0.4355 (  2928 PWs)   bands (ev):

   -43.4210 -19.6952 -19.6031 -19.5993 -14.7315  -5.6149  -5.4816  -5.4550
    -0.5346  -0.5323  -0.4850   5.9785   6.0377   6.1763   7.3300   7.3993
     7.4323   9.8561   9.8876  10.0210  15.4504  15.4919  15.5435  16.3340
    16.5671

     occupation numbers 
     1.0000   1.0000   1.0000   1.0000   1.0000   1.0000   1.0000   1.0000
     1.0000   1.0000   1.0000   1.0000   1.0000   1.0000   1.0000   1.0000
     1.0000   1.0000   1.0000   1.0000   0.0000   0.0000   0.0000   0.0000
     0.0000

          k = 0.4375-0.5000-0.4977 (  2936 PWs)   bands (ev):

   -43.4210 -19.6987 -19.6029 -19.5992 -14.7300  -5.5822  -5.4784  -5.4511
    -0.5481  -0.5422  -0.5164   5.9242   6.0274   6.1558   7.3419   7.3928
     7.4562   9.8955   9.9291  10.0199  15.5139  15.5207  15.5836  16.2869
    16.4882

     occupation numbers 
     1.0000   1.0000   1.0000   1.0000   1.0000   1.0000   1.0000   1.0000
     1.0000   1.0000   1.0000   1.0000   1.0000   1.0000   1.0000   1.0000
     1.0000   1.0000   1.0000   1.0000   0.0000   0.0000   0.0000   0.0000
     0.0000

          k =-0.5000-0.5000 0.0000 (  2912 PWs)   bands (ev):

   -43.4220 -19.6069 -19.6069 -19.6056 -14.7667  -6.3340  -5.5556  -5.5556
    -0.1291  -0.1291   0.1934   5.9808   5.9889   6.2217   7.5105   7.5105
     8.7400   8.9895   8.9895  10.0053  14.6323  14.6323  15.3820  16.2341
    17.5270

     occupation numbers 
     1.0000   1.0000   1.0000   1.0000   1.0000   1.0000   1.0000   1.0000
     1.0000   1.0000   1.0000   1.0000   1.0000   1.0000   1.0000   1.0000
     1.0000   1.0000   1.0000   1.0000   0.0000   0.0000   0.0000   0.0000
     0.0000

          k =-0.5000-0.5000 0.0622 (  2912 PWs)   bands (ev):

   -43.4219 -19.6092 -19.6068 -19.6068 -14.7653  -6.3076  -5.5517  -5.5517
    -0.1463  -0.1463   0.1611   5.9831   5.9894   6.2725   7.5070   7.5070
     8.6051   9.0214   9.0214  10.0073  14.6597  14.6597  15.3916  16.3227
    17.5693

     occupation numbers 
     1.0000   1.0000   1.0000   1.0000   1.0000   1.0000   1.0000   1.0000
     1.0000   1.0000   1.0000   1.0000   1.0000   1.0000   1.0000   1.0000
     1.0000   1.0000   1.0000   1.0000   0.0000   0.0000   0.0000   0.0000
     0.0000

          k =-0.5000-0.5000 0.1244 (  2928 PWs)   bands (ev):

   -43.4218 -19.6194 -19.6063 -19.6063 -14.7611  -6.2315  -5.5403  -5.5403
    -0.1950  -0.1950   0.0716   5.9896   5.9909   6.4149   7.4961   7.4961
     8.2427   9.1139   9.1139  10.0130  14.7392  14.7392  15.4187  16.4857
    17.7614

     occupation numbers 
     1.0000   1.0000   1.0000   1.0000   1.0000   1.0000   1.0000   1.0000
     1.0000   1.0000   1.0000   1.0000   1.0000   1.0000   1.0000   1.0000
     1.0000   1.0000   1.0000   1.0000   0.0000   0.0000   0.0000   0.0000
     0.0000

          k =-0.5000-0.5000 0.1867 (  2916 PWs)   bands (ev):

   -43.4217 -19.6346 -19.6057 -19.6057 -14.7550  -6.1150  -5.5232  -5.5232
    -0.2670  -0.2670  -0.0561   5.9933   5.9992   6.6223   7.4781   7.4781
     7.7474   9.2570   9.2570  10.0216  14.8632  14.8632  15.4579  16.5497
    18.1938

     occupation numbers 
     1.0000   1.0000   1.0000   1.0000   1.0000   1.0000   1.0000   1.0000
     1.0000   1.0000   1.0000   1.0000   1.0000   1.0000   1.0000   1.0000
     1.0000   1.0000   1.0000   1.0000   0.0000   0.0000   0.0000   0.0000
     0.0000

          k =-0.5000-0.5000 0.2489 (  2928 PWs)   bands (ev):

   -43.4215 -19.6525 -19.6049 -19.6049 -14.7477  -5.9733  -5.5025  -5.5025
    -0.3507  -0.3507  -0.1983   5.9961   6.0100   6.8595   7.2152   7.4546
     7.4546   9.4326   9.4326  10.0317  15.0197  15.0197  15.5017  16.5047
    17.6439

     occupation numbers 
     1.0000   1.0000   1.0000   1.0000   1.0000   1.0000   1.0000   1.0000
     1.0000   1.0000   1.0000   1.0000   1.0000   1.0000   1.0000   1.0000
     1.0000   1.0000   1.0000   1.0000   0.0000   0.0000   0.0000   0.0000
     0.0000

          k =-0.5000-0.5000 0.3111 (  2920 PWs)   bands (ev):

   -43.4213 -19.6702 -19.6041 -19.6041 -14.7403  -5.8265  -5.4815  -5.4815
    -0.4331  -0.4331  -0.3328   5.9989   6.0186   6.7246   7.0900   7.4295
     7.4295   9.6162   9.6162  10.0421  15.1938  15.1938  15.5429  16.4183
    17.1740

     occupation numbers 
     1.0000   1.0000   1.0000   1.0000   1.0000   1.0000   1.0000   1.0000
     1.0000   1.0000   1.0000   1.0000   1.0000   1.0000   1.0000   1.0000
     1.0000   1.0000   1.0000   1.0000   0.0000   0.0000   0.0000   0.0000
     0.0000

          k =-0.5000-0.5000 0.3733 (  2932 PWs)   bands (ev):

   -43.4211 -19.6851 -19.6034 -19.6034 -14.7341  -5.6976  -5.4634  -5.4634
    -0.5021  -0.5021  -0.4414   6.0012   6.0174   6.3397   7.2808   7.4073
     7.4073   9.7786   9.7786  10.0508  15.3674  15.3674  15.5755  16.3347
    16.7821

     occupation numbers 
     1.0000   1.0000   1.0000   1.0000   1.0000   1.0000   1.0000   1.0000
     1.0000   1.0000   1.0000   1.0000   1.0000   1.0000   1.0000   1.0000
     1.0000   1.0000   1.0000   1.0000   0.0000   0.0000   0.0000   0.0000
     0.0000

          k =-0.5000-0.5000 0.4355 (  2912 PWs)   bands (ev):

   -43.4210 -19.6950 -19.6029 -19.6029 -14.7299  -5.6090  -5.4511  -5.4511
    -0.5478  -0.5478  -0.5116   5.9744   6.0029   6.1336   7.3922   7.3922
     7.4063   9.8911   9.8911  10.0567  15.5147  15.5147  15.5962  16.2770
    16.5006

     occupation numbers 
     1.0000   1.0000   1.0000   1.0000   1.0000   1.0000   1.0000   1.0000
     1.0000   1.0000   1.0000   1.0000   1.0000   1.0000   1.0000   1.0000
     1.0000   1.0000   1.0000   1.0000   0.0000   0.0000   0.0000   0.0000
     0.0000

          k =-0.5000-0.5000-0.4977 (  2888 PWs)   bands (ev):

   -43.4209 -19.6985 -19.6027 -19.6027 -14.7284  -5.5774  -5.4468  -5.4468
    -0.5638  -0.5638  -0.5358   5.9238   6.0035   6.0983   7.3868   7.3868
     7.4501   9.9315   9.9315  10.0588  15.5804  15.5805  15.6032  16.2566
    16.3896

     occupation numbers 
     1.0000   1.0000   1.0000   1.0000   1.0000   1.0000   1.0000   1.0000
     1.0000   1.0000   1.0000   1.0000   1.0000   1.0000   1.0000   1.0000
     1.0000   1.0000   1.0000   1.0000   0.0000   0.0000   0.0000   0.0000
     0.0000

     the Fermi energy is    13.4418 ev

!    total energy              =    -285.70673740 Ry
     Harris-Foulkes estimate   =    -285.70673740 Ry
     estimated scf accuracy    <          2.0E-10 Ry

     The total energy is the sum of the following terms:

     one-electron contribution =     -62.89229329 Ry
     hartree contribution      =      55.92107720 Ry
     xc contribution           =     -68.18770211 Ry
     ewald contribution        =    -210.54781972 Ry
     smearing contrib. (-TS)   =       0.00000053 Ry

     convergence has been achieved in  12 iterations

     negative rho (up, down):  8.724E-02 0.000E+00

     Forces acting on atoms (cartesian axes, Ry/au):

     atom    1 type  1   force =     0.00000000    0.00000000   -0.00557979
     atom    2 type  2   force =     0.00000000    0.00000000    0.07852654
     atom    3 type  3   force =     0.00000000    0.00000000   -0.03202097
     atom    4 type  3   force =     0.00000000    0.00000000   -0.02046289
     atom    5 type  3   force =     0.00000000    0.00000000   -0.02046289
     The non-local contrib.  to forces
     atom    1 type  1   force =     0.00000000    0.00000000    0.01550712
     atom    2 type  2   force =     0.00000000    0.00000000   -0.01383190
     atom    3 type  3   force =     0.00000000    0.00000000    0.22605840
     atom    4 type  3   force =     0.00000000    0.00000000   -0.07297162
     atom    5 type  3   force =     0.00000000    0.00000000   -0.07297162
     The ionic contribution  to forces
     atom    1 type  1   force =     0.00000000    0.00000000    0.03759420
     atom    2 type  2   force =    -0.00000000   -0.00000000    1.45615636
     atom    3 type  3   force =     0.00000000    0.00000000   -2.82285673
     atom    4 type  3   force =    -0.00000000   -0.00000000    0.66455309
     atom    5 type  3   force =    -0.00000000   -0.00000000    0.66455309
     The local contribution  to forces
     atom    1 type  1   force =     0.00000000    0.00000000   -0.05853868
     atom    2 type  2   force =     0.00000000    0.00000000   -1.36849415
     atom    3 type  3   force =     0.00000000    0.00000000    2.56481501
     atom    4 type  3   force =     0.00000000   -0.00000000   -0.61246485
     atom    5 type  3   force =    -0.00000000    0.00000000   -0.61246485
     The core correction contribution to forces
     atom    1 type  1   force =     0.00000000    0.00000000   -0.00018963
     atom    2 type  2   force =    -0.00000000   -0.00000000    0.00466478
     atom    3 type  3   force =     0.00000000    0.00000000   -0.00008287
     atom    4 type  3   force =     0.00000000   -0.00000000    0.00038177
     atom    5 type  3   force =    -0.00000000    0.00000000    0.00038177
     The Hubbard contrib.    to forces
     atom    1 type  1   force =     0.00000000    0.00000000    0.00000000
     atom    2 type  2   force =     0.00000000    0.00000000    0.00000000
     atom    3 type  3   force =     0.00000000    0.00000000    0.00000000
     atom    4 type  3   force =     0.00000000    0.00000000    0.00000000
     atom    5 type  3   force =     0.00000000    0.00000000    0.00000000
     The SCF correction term to forces
     atom    1 type  1   force =     0.00000000   -0.00000000    0.00000386
     atom    2 type  2   force =     0.00000000    0.00000000   -0.00001189
     atom    3 type  3   force =     0.00000000    0.00000000    0.00000190
     atom    4 type  3   force =    -0.00000000    0.00000000   -0.00000462
     atom    5 type  3   force =    -0.00000000    0.00000000   -0.00000462

     Total force =     0.089779     Total SCF correction =     0.000014

     number of scf cycles    =   4
     number of bfgs steps    =   3

     energy   old            =    -438.6437812044 Ry
     energy   new            =    -285.7067373986 Ry

     CASE: energy  _new > energy  _old


 %%%%%%%%%%%%%%%%%%%%%%%%%%%%%%%%%%%%%%%%%%%%%%%%%%%%%%%%%%%%%%%%%%%%%%%%%%%%%%
     Error in routine bfgs (1):
     dE0s is positive which should never happen
 %%%%%%%%%%%%%%%%%%%%%%%%%%%%%%%%%%%%%%%%%%%%%%%%%%%%%%%%%%%%%%%%%%%%%%%%%%%%%%

     stopping ...
