
     Program PWSCF v.6.3MaX starts on 21Mar2019 at  2: 5:16 

     This program is part of the open-source Quantum ESPRESSO suite
     for quantum simulation of materials; please cite
         "P. Giannozzi et al., J. Phys.:Condens. Matter 21 395502 (2009);
         "P. Giannozzi et al., J. Phys.:Condens. Matter 29 465901 (2017);
          URL http://www.quantum-espresso.org", 
     in publications or presentations arising from this work. More details at
     http://www.quantum-espresso.org/quote

     Parallel version (MPI & OpenMP), running on      20 processor cores
     Number of MPI processes:                20
     Threads/MPI process:                     1

     MPI processes distributed on     1 nodes
     R & G space division:  proc/nbgrp/npool/nimage =      20
     Reading input from /home/azadoks/dftman/projects/ABO3 Tetragonal/PBSJobs/AgBrO3160vcrelax_1d72d726eb1d/pwscf.in
Warning: card &CELL ignored
Warning: card / ignored

     Current dimensions of program PWSCF are:
     Max number of different atomic species (ntypx) = 10
     Max number of k-points (npk) =  40000
     Max angular momentum in pseudopotentials (lmaxx) =  3
     Message from routine iosys:
     minimal I/O required, wf_collect reset to FALSE

     Subspace diagonalization in iterative solution of the eigenvalue problem:
     one sub-group per band group will be used
     scalapack distributed-memory algorithm (size of sub-group:  3*  3 procs)

 
     Parallelization info
     --------------------
     sticks:   dense  smooth     PW     G-vecs:    dense   smooth      PW
     Min         201     201     55                 9693     9693    1397
     Max         203     203     56                 9694     9694    1402
     Sum        4041    4041   1109               193865   193865   27953
 


     bravais-lattice index     =            0
     lattice parameter (alat)  =      15.9293  a.u.
     unit-cell volume          =    4060.3004 (a.u.)^3
     number of atoms/cell      =            5
     number of atomic types    =            3
     number of electrons       =        44.00
     number of Kohn-Sham states=           26
     kinetic-energy cutoff     =      50.0000  Ry
     charge density cutoff     =     200.0000  Ry
     convergence threshold     =      1.0E-08
     mixing beta               =       0.7000
     number of iterations used =            8  plain     mixing
     Exchange-correlation      = SLA  PW   PBE  PBE ( 1  4  3  4 0 0)
     nstep                     =           50


     celldm(1)=  15.929257  celldm(2)=   0.000000  celldm(3)=   0.000000
     celldm(4)=   0.000000  celldm(5)=   0.000000  celldm(6)=   0.000000

     crystal axes: (cart. coord. in units of alat)
               a(1) = (   1.000000   0.000000   0.000000 )  
               a(2) = (   0.000000   1.000000   0.000000 )  
               a(3) = (   0.000000   0.000000   1.004550 )  

     reciprocal axes: (cart. coord. in units 2 pi/alat)
               b(1) = (  1.000000  0.000000  0.000000 )  
               b(2) = (  0.000000  1.000000  0.000000 )  
               b(3) = (  0.000000  0.000000  0.995471 )  


     PseudoPot. # 1 for Ag read from file:
     /home/azadoks/.local/share/pseudo/GBRV_PBE_US/ag_pbe_v1.4.uspp.F.UPF
     MD5 check sum: d66d668201baa78d5eb5b04ef7011058
     Pseudo is Ultrasoft + core correction, Zval = 19.0
     Generated by new atomic code, or converted to UPF format
     Using radial grid of  887 points,  6 beta functions with: 
                l(1) =   0
                l(2) =   0
                l(3) =   1
                l(4) =   1
                l(5) =   2
                l(6) =   2
     Q(r) pseudized with  6 coefficients,  rinner =    1.300   1.300   1.300
                                                       1.300   1.300

     PseudoPot. # 2 for Br read from file:
     /home/azadoks/.local/share/pseudo/GBRV_PBE_US/br_pbe_v1.4.uspp.F.UPF
     MD5 check sum: d3ffb7b29f6225aa16fe06858fb2a80b
     Pseudo is Ultrasoft + core correction, Zval =  7.0
     Generated by new atomic code, or converted to UPF format
     Using radial grid of  879 points,  6 beta functions with: 
                l(1) =   0
                l(2) =   0
                l(3) =   1
                l(4) =   1
                l(5) =   2
                l(6) =   2
     Q(r) pseudized with  8 coefficients,  rinner =    1.100   1.100   1.100
                                                       1.100   1.100

     PseudoPot. # 3 for O  read from file:
     /home/azadoks/.local/share/pseudo/GBRV_PBE_US/o_pbe_v1.2.uspp.F.UPF
     MD5 check sum: 734c27235a0248c51dbae37a1fbe46ec
     Pseudo is Ultrasoft + core correction, Zval =  6.0
     Generated by new atomic code, or converted to UPF format
     Using radial grid of  737 points,  5 beta functions with: 
                l(1) =   0
                l(2) =   0
                l(3) =   1
                l(4) =   1
                l(5) =   2
     Q(r) pseudized with  8 coefficients,  rinner =    0.900   0.900   0.900
                                                       0.900   0.900

     atomic species   valence    mass     pseudopotential
        Ag            19.00   107.86820     Ag( 1.00)
        Br             7.00    79.90400     Br( 1.00)
        O              6.00    15.99940     O ( 1.00)

      8 Sym. Ops. (no inversion) found


                                    s                        frac. trans.

      isym =  1     identity                                     

 cryst.   s( 1) = (     1          0          0      )
                  (     0          1          0      )
                  (     0          0          1      )

 cart.    s( 1) = (  1.0000000  0.0000000  0.0000000 )
                  (  0.0000000  1.0000000  0.0000000 )
                  (  0.0000000  0.0000000  1.0000000 )


      isym =  2     180 deg rotation - cart. axis [0,0,1]        

 cryst.   s( 2) = (    -1          0          0      )
                  (     0         -1          0      )
                  (     0          0          1      )

 cart.    s( 2) = ( -1.0000000  0.0000000  0.0000000 )
                  (  0.0000000 -1.0000000  0.0000000 )
                  (  0.0000000  0.0000000  1.0000000 )


      isym =  3      90 deg rotation - cart. axis [0,0,-1]       

 cryst.   s( 3) = (     0         -1          0      )
                  (     1          0          0      )
                  (     0          0          1      )

 cart.    s( 3) = (  0.0000000  1.0000000  0.0000000 )
                  ( -1.0000000  0.0000000  0.0000000 )
                  (  0.0000000  0.0000000  1.0000000 )


      isym =  4      90 deg rotation - cart. axis [0,0,1]        

 cryst.   s( 4) = (     0          1          0      )
                  (    -1          0          0      )
                  (     0          0          1      )

 cart.    s( 4) = (  0.0000000 -1.0000000  0.0000000 )
                  (  1.0000000  0.0000000  0.0000000 )
                  (  0.0000000  0.0000000  1.0000000 )


      isym =  5     inv. 180 deg rotation - cart. axis [0,1,0]   

 cryst.   s( 5) = (     1          0          0      )
                  (     0         -1          0      )
                  (     0          0          1      )

 cart.    s( 5) = (  1.0000000  0.0000000  0.0000000 )
                  (  0.0000000 -1.0000000  0.0000000 )
                  (  0.0000000  0.0000000  1.0000000 )


      isym =  6     inv. 180 deg rotation - cart. axis [1,0,0]   

 cryst.   s( 6) = (    -1          0          0      )
                  (     0          1          0      )
                  (     0          0          1      )

 cart.    s( 6) = ( -1.0000000  0.0000000  0.0000000 )
                  (  0.0000000  1.0000000  0.0000000 )
                  (  0.0000000  0.0000000  1.0000000 )


      isym =  7     inv. 180 deg rotation - cart. axis [1,1,0]   

 cryst.   s( 7) = (     0         -1          0      )
                  (    -1          0          0      )
                  (     0          0          1      )

 cart.    s( 7) = (  0.0000000 -1.0000000  0.0000000 )
                  ( -1.0000000  0.0000000  0.0000000 )
                  (  0.0000000  0.0000000  1.0000000 )


      isym =  8     inv. 180 deg rotation - cart. axis [1,-1,0]  

 cryst.   s( 8) = (     0          1          0      )
                  (     1          0          0      )
                  (     0          0          1      )

 cart.    s( 8) = (  0.0000000  1.0000000  0.0000000 )
                  (  1.0000000  0.0000000  0.0000000 )
                  (  0.0000000  0.0000000  1.0000000 )


   Cartesian axes

     site n.     atom                  positions (alat units)
         1           Ag  tau(   1) = (   0.0000000   0.0000000   0.0000000  )
         2           Br  tau(   2) = (   0.5000000   0.5000000   0.4841931  )
         3           O   tau(   3) = (   0.5000000   0.5000000   0.0160728  )
         4           O   tau(   4) = (   0.5000000   0.0000000   0.5173433  )
         5           O   tau(   5) = (   0.0000000   0.5000000   0.5173433  )

   Crystallographic axes

     site n.     atom                  positions (cryst. coord.)
         1           Ag  tau(   1) = (  0.0000000  0.0000000  0.0000000  )
         2           Br  tau(   2) = (  0.5000000  0.5000000  0.4820000  )
         3           O   tau(   3) = (  0.5000000  0.5000000  0.0160000  )
         4           O   tau(   4) = (  0.5000000  0.0000000  0.5150000  )
         5           O   tau(   5) = (  0.0000000  0.5000000  0.5150000  )

     number of k points=    75  Marzari-Vanderbilt smearing, width (Ry)=  0.0010
                       cart. coord. in units 2pi/alat
        k(    1) = (   0.0000000   0.0000000   0.0000000), wk =   0.0039062
        k(    2) = (   0.0000000   0.0000000   0.1244338), wk =   0.0078125
        k(    3) = (   0.0000000   0.0000000   0.2488676), wk =   0.0078125
        k(    4) = (   0.0000000   0.0000000   0.3733015), wk =   0.0078125
        k(    5) = (   0.0000000   0.0000000  -0.4977353), wk =   0.0039062
        k(    6) = (   0.0000000   0.1250000   0.0000000), wk =   0.0156250
        k(    7) = (   0.0000000   0.1250000   0.1244338), wk =   0.0312500
        k(    8) = (   0.0000000   0.1250000   0.2488676), wk =   0.0312500
        k(    9) = (   0.0000000   0.1250000   0.3733015), wk =   0.0312500
        k(   10) = (   0.0000000   0.1250000  -0.4977353), wk =   0.0156250
        k(   11) = (   0.0000000   0.2500000   0.0000000), wk =   0.0156250
        k(   12) = (   0.0000000   0.2500000   0.1244338), wk =   0.0312500
        k(   13) = (   0.0000000   0.2500000   0.2488676), wk =   0.0312500
        k(   14) = (   0.0000000   0.2500000   0.3733015), wk =   0.0312500
        k(   15) = (   0.0000000   0.2500000  -0.4977353), wk =   0.0156250
        k(   16) = (   0.0000000   0.3750000   0.0000000), wk =   0.0156250
        k(   17) = (   0.0000000   0.3750000   0.1244338), wk =   0.0312500
        k(   18) = (   0.0000000   0.3750000   0.2488676), wk =   0.0312500
        k(   19) = (   0.0000000   0.3750000   0.3733015), wk =   0.0312500
        k(   20) = (   0.0000000   0.3750000  -0.4977353), wk =   0.0156250
        k(   21) = (   0.0000000  -0.5000000   0.0000000), wk =   0.0078125
        k(   22) = (   0.0000000  -0.5000000   0.1244338), wk =   0.0156250
        k(   23) = (   0.0000000  -0.5000000   0.2488676), wk =   0.0156250
        k(   24) = (   0.0000000  -0.5000000   0.3733015), wk =   0.0156250
        k(   25) = (   0.0000000  -0.5000000  -0.4977353), wk =   0.0078125
        k(   26) = (   0.1250000   0.1250000   0.0000000), wk =   0.0156250
        k(   27) = (   0.1250000   0.1250000   0.1244338), wk =   0.0312500
        k(   28) = (   0.1250000   0.1250000   0.2488676), wk =   0.0312500
        k(   29) = (   0.1250000   0.1250000   0.3733015), wk =   0.0312500
        k(   30) = (   0.1250000   0.1250000  -0.4977353), wk =   0.0156250
        k(   31) = (   0.1250000   0.2500000   0.0000000), wk =   0.0312500
        k(   32) = (   0.1250000   0.2500000   0.1244338), wk =   0.0625000
        k(   33) = (   0.1250000   0.2500000   0.2488676), wk =   0.0625000
        k(   34) = (   0.1250000   0.2500000   0.3733015), wk =   0.0625000
        k(   35) = (   0.1250000   0.2500000  -0.4977353), wk =   0.0312500
        k(   36) = (   0.1250000   0.3750000   0.0000000), wk =   0.0312500
        k(   37) = (   0.1250000   0.3750000   0.1244338), wk =   0.0625000
        k(   38) = (   0.1250000   0.3750000   0.2488676), wk =   0.0625000
        k(   39) = (   0.1250000   0.3750000   0.3733015), wk =   0.0625000
        k(   40) = (   0.1250000   0.3750000  -0.4977353), wk =   0.0312500
        k(   41) = (   0.1250000  -0.5000000   0.0000000), wk =   0.0156250
        k(   42) = (   0.1250000  -0.5000000   0.1244338), wk =   0.0312500
        k(   43) = (   0.1250000  -0.5000000   0.2488676), wk =   0.0312500
        k(   44) = (   0.1250000  -0.5000000   0.3733015), wk =   0.0312500
        k(   45) = (   0.1250000  -0.5000000  -0.4977353), wk =   0.0156250
        k(   46) = (   0.2500000   0.2500000   0.0000000), wk =   0.0156250
        k(   47) = (   0.2500000   0.2500000   0.1244338), wk =   0.0312500
        k(   48) = (   0.2500000   0.2500000   0.2488676), wk =   0.0312500
        k(   49) = (   0.2500000   0.2500000   0.3733015), wk =   0.0312500
        k(   50) = (   0.2500000   0.2500000  -0.4977353), wk =   0.0156250
        k(   51) = (   0.2500000   0.3750000   0.0000000), wk =   0.0312500
        k(   52) = (   0.2500000   0.3750000   0.1244338), wk =   0.0625000
        k(   53) = (   0.2500000   0.3750000   0.2488676), wk =   0.0625000
        k(   54) = (   0.2500000   0.3750000   0.3733015), wk =   0.0625000
        k(   55) = (   0.2500000   0.3750000  -0.4977353), wk =   0.0312500
        k(   56) = (   0.2500000  -0.5000000   0.0000000), wk =   0.0156250
        k(   57) = (   0.2500000  -0.5000000   0.1244338), wk =   0.0312500
        k(   58) = (   0.2500000  -0.5000000   0.2488676), wk =   0.0312500
        k(   59) = (   0.2500000  -0.5000000   0.3733015), wk =   0.0312500
        k(   60) = (   0.2500000  -0.5000000  -0.4977353), wk =   0.0156250
        k(   61) = (   0.3750000   0.3750000   0.0000000), wk =   0.0156250
        k(   62) = (   0.3750000   0.3750000   0.1244338), wk =   0.0312500
        k(   63) = (   0.3750000   0.3750000   0.2488676), wk =   0.0312500
        k(   64) = (   0.3750000   0.3750000   0.3733015), wk =   0.0312500
        k(   65) = (   0.3750000   0.3750000  -0.4977353), wk =   0.0156250
        k(   66) = (   0.3750000  -0.5000000   0.0000000), wk =   0.0156250
        k(   67) = (   0.3750000  -0.5000000   0.1244338), wk =   0.0312500
        k(   68) = (   0.3750000  -0.5000000   0.2488676), wk =   0.0312500
        k(   69) = (   0.3750000  -0.5000000   0.3733015), wk =   0.0312500
        k(   70) = (   0.3750000  -0.5000000  -0.4977353), wk =   0.0156250
        k(   71) = (  -0.5000000  -0.5000000   0.0000000), wk =   0.0039062
        k(   72) = (  -0.5000000  -0.5000000   0.1244338), wk =   0.0078125
        k(   73) = (  -0.5000000  -0.5000000   0.2488676), wk =   0.0078125
        k(   74) = (  -0.5000000  -0.5000000   0.3733015), wk =   0.0078125
        k(   75) = (  -0.5000000  -0.5000000  -0.4977353), wk =   0.0039062

                       cryst. coord.
        k(    1) = (   0.0000000   0.0000000   0.0000000), wk =   0.0039062
        k(    2) = (   0.0000000   0.0000000   0.1250000), wk =   0.0078125
        k(    3) = (   0.0000000   0.0000000   0.2500000), wk =   0.0078125
        k(    4) = (   0.0000000   0.0000000   0.3750000), wk =   0.0078125
        k(    5) = (   0.0000000   0.0000000  -0.5000000), wk =   0.0039062
        k(    6) = (   0.0000000   0.1250000   0.0000000), wk =   0.0156250
        k(    7) = (   0.0000000   0.1250000   0.1250000), wk =   0.0312500
        k(    8) = (   0.0000000   0.1250000   0.2500000), wk =   0.0312500
        k(    9) = (   0.0000000   0.1250000   0.3750000), wk =   0.0312500
        k(   10) = (   0.0000000   0.1250000  -0.5000000), wk =   0.0156250
        k(   11) = (   0.0000000   0.2500000   0.0000000), wk =   0.0156250
        k(   12) = (   0.0000000   0.2500000   0.1250000), wk =   0.0312500
        k(   13) = (   0.0000000   0.2500000   0.2500000), wk =   0.0312500
        k(   14) = (   0.0000000   0.2500000   0.3750000), wk =   0.0312500
        k(   15) = (   0.0000000   0.2500000  -0.5000000), wk =   0.0156250
        k(   16) = (   0.0000000   0.3750000   0.0000000), wk =   0.0156250
        k(   17) = (   0.0000000   0.3750000   0.1250000), wk =   0.0312500
        k(   18) = (   0.0000000   0.3750000   0.2500000), wk =   0.0312500
        k(   19) = (   0.0000000   0.3750000   0.3750000), wk =   0.0312500
        k(   20) = (   0.0000000   0.3750000  -0.5000000), wk =   0.0156250
        k(   21) = (   0.0000000  -0.5000000   0.0000000), wk =   0.0078125
        k(   22) = (   0.0000000  -0.5000000   0.1250000), wk =   0.0156250
        k(   23) = (   0.0000000  -0.5000000   0.2500000), wk =   0.0156250
        k(   24) = (   0.0000000  -0.5000000   0.3750000), wk =   0.0156250
        k(   25) = (   0.0000000  -0.5000000  -0.5000000), wk =   0.0078125
        k(   26) = (   0.1250000   0.1250000   0.0000000), wk =   0.0156250
        k(   27) = (   0.1250000   0.1250000   0.1250000), wk =   0.0312500
        k(   28) = (   0.1250000   0.1250000   0.2500000), wk =   0.0312500
        k(   29) = (   0.1250000   0.1250000   0.3750000), wk =   0.0312500
        k(   30) = (   0.1250000   0.1250000  -0.5000000), wk =   0.0156250
        k(   31) = (   0.1250000   0.2500000   0.0000000), wk =   0.0312500
        k(   32) = (   0.1250000   0.2500000   0.1250000), wk =   0.0625000
        k(   33) = (   0.1250000   0.2500000   0.2500000), wk =   0.0625000
        k(   34) = (   0.1250000   0.2500000   0.3750000), wk =   0.0625000
        k(   35) = (   0.1250000   0.2500000  -0.5000000), wk =   0.0312500
        k(   36) = (   0.1250000   0.3750000   0.0000000), wk =   0.0312500
        k(   37) = (   0.1250000   0.3750000   0.1250000), wk =   0.0625000
        k(   38) = (   0.1250000   0.3750000   0.2500000), wk =   0.0625000
        k(   39) = (   0.1250000   0.3750000   0.3750000), wk =   0.0625000
        k(   40) = (   0.1250000   0.3750000  -0.5000000), wk =   0.0312500
        k(   41) = (   0.1250000  -0.5000000   0.0000000), wk =   0.0156250
        k(   42) = (   0.1250000  -0.5000000   0.1250000), wk =   0.0312500
        k(   43) = (   0.1250000  -0.5000000   0.2500000), wk =   0.0312500
        k(   44) = (   0.1250000  -0.5000000   0.3750000), wk =   0.0312500
        k(   45) = (   0.1250000  -0.5000000  -0.5000000), wk =   0.0156250
        k(   46) = (   0.2500000   0.2500000   0.0000000), wk =   0.0156250
        k(   47) = (   0.2500000   0.2500000   0.1250000), wk =   0.0312500
        k(   48) = (   0.2500000   0.2500000   0.2500000), wk =   0.0312500
        k(   49) = (   0.2500000   0.2500000   0.3750000), wk =   0.0312500
        k(   50) = (   0.2500000   0.2500000  -0.5000000), wk =   0.0156250
        k(   51) = (   0.2500000   0.3750000   0.0000000), wk =   0.0312500
        k(   52) = (   0.2500000   0.3750000   0.1250000), wk =   0.0625000
        k(   53) = (   0.2500000   0.3750000   0.2500000), wk =   0.0625000
        k(   54) = (   0.2500000   0.3750000   0.3750000), wk =   0.0625000
        k(   55) = (   0.2500000   0.3750000  -0.5000000), wk =   0.0312500
        k(   56) = (   0.2500000  -0.5000000   0.0000000), wk =   0.0156250
        k(   57) = (   0.2500000  -0.5000000   0.1250000), wk =   0.0312500
        k(   58) = (   0.2500000  -0.5000000   0.2500000), wk =   0.0312500
        k(   59) = (   0.2500000  -0.5000000   0.3750000), wk =   0.0312500
        k(   60) = (   0.2500000  -0.5000000  -0.5000000), wk =   0.0156250
        k(   61) = (   0.3750000   0.3750000   0.0000000), wk =   0.0156250
        k(   62) = (   0.3750000   0.3750000   0.1250000), wk =   0.0312500
        k(   63) = (   0.3750000   0.3750000   0.2500000), wk =   0.0312500
        k(   64) = (   0.3750000   0.3750000   0.3750000), wk =   0.0312500
        k(   65) = (   0.3750000   0.3750000  -0.5000000), wk =   0.0156250
        k(   66) = (   0.3750000  -0.5000000   0.0000000), wk =   0.0156250
        k(   67) = (   0.3750000  -0.5000000   0.1250000), wk =   0.0312500
        k(   68) = (   0.3750000  -0.5000000   0.2500000), wk =   0.0312500
        k(   69) = (   0.3750000  -0.5000000   0.3750000), wk =   0.0312500
        k(   70) = (   0.3750000  -0.5000000  -0.5000000), wk =   0.0156250
        k(   71) = (  -0.5000000  -0.5000000   0.0000000), wk =   0.0039062
        k(   72) = (  -0.5000000  -0.5000000   0.1250000), wk =   0.0078125
        k(   73) = (  -0.5000000  -0.5000000   0.2500000), wk =   0.0078125
        k(   74) = (  -0.5000000  -0.5000000   0.3750000), wk =   0.0078125
        k(   75) = (  -0.5000000  -0.5000000  -0.5000000), wk =   0.0039062

     Dense  grid:   193865 G-vectors     FFT dimensions: (  72,  72,  75)

     Dynamical RAM for                 wfc:       0.48 MB

     Dynamical RAM for     wfc (w. buffer):      36.54 MB

     Dynamical RAM for           str. fact:       0.44 MB

     Dynamical RAM for           local pot:       0.00 MB

     Dynamical RAM for          nlocal pot:       1.39 MB

     Dynamical RAM for                qrad:       8.63 MB

     Dynamical RAM for          rho,v,vnew:       0.92 MB

     Dynamical RAM for               rhoin:       0.31 MB

     Dynamical RAM for            rho*nmix:       2.37 MB

     Dynamical RAM for           G-vectors:       0.63 MB

     Dynamical RAM for          h,s,v(r/c):       0.05 MB

     Dynamical RAM for          <psi|beta>:       0.03 MB

     Dynamical RAM for                 psi:       1.92 MB

     Dynamical RAM for                hpsi:       1.92 MB

     Dynamical RAM for                spsi:       1.92 MB

     Dynamical RAM for      wfcinit/wfcrot:       1.09 MB

     Dynamical RAM for           addusdens:      27.95 MB

     Dynamical RAM for          addusforce:      29.53 MB

     Estimated static dynamical RAM per process >      52.60 MB

     Estimated max dynamical RAM per process >      82.13 MB

     Estimated total dynamical RAM >       1.60 GB

     Initial potential from superposition of free atoms
     Check: negative starting charge=   -0.000334

     starting charge   43.49993, renormalised to   44.00000

     negative rho (up, down):  3.379E-04 0.000E+00
     Starting wfcs are   29 randomized atomic wfcs

     total cpu time spent up to now is        3.2 secs

     Self-consistent Calculation

     iteration #  1     ecut=    50.00 Ry     beta= 0.70
     Davidson diagonalization with overlap
     ethr =  1.00E-02,  avg # of iterations =  2.0

     negative rho (up, down):  4.467E-04 0.000E+00

     total cpu time spent up to now is        8.8 secs

     total energy              =    -413.01011890 Ry
     Harris-Foulkes estimate   =    -438.40061040 Ry
     estimated scf accuracy    <      28.90562616 Ry

     iteration #  2     ecut=    50.00 Ry     beta= 0.70
     Davidson diagonalization with overlap
     ethr =  1.00E-02,  avg # of iterations =  8.0

     negative rho (up, down):  6.619E-06 0.000E+00

     total cpu time spent up to now is       22.2 secs

     total energy              =    -416.50477645 Ry
     Harris-Foulkes estimate   =    -502.01996227 Ry
     estimated scf accuracy    <     305.29367375 Ry

     iteration #  3     ecut=    50.00 Ry     beta= 0.70
     Davidson diagonalization with overlap
     ethr =  1.00E-02,  avg # of iterations =  9.3

     negative rho (up, down):  1.271E-05 0.000E+00

     total cpu time spent up to now is       36.7 secs

     total energy              =    -438.05199510 Ry
     Harris-Foulkes estimate   =    -441.00432293 Ry
     estimated scf accuracy    <      15.59134022 Ry

     iteration #  4     ecut=    50.00 Ry     beta= 0.70
     Davidson diagonalization with overlap
     ethr =  1.00E-02,  avg # of iterations =  4.2

     negative rho (up, down):  7.830E-06 0.000E+00

     total cpu time spent up to now is       44.8 secs

     total energy              =    -437.40210110 Ry
     Harris-Foulkes estimate   =    -439.08828452 Ry
     estimated scf accuracy    <      15.99781326 Ry

     iteration #  5     ecut=    50.00 Ry     beta= 0.70
     Davidson diagonalization with overlap
     ethr =  1.00E-02,  avg # of iterations =  1.5

     negative rho (up, down):  1.219E-05 0.000E+00

     total cpu time spent up to now is       50.4 secs

     total energy              =    -438.30414227 Ry
     Harris-Foulkes estimate   =    -438.50806788 Ry
     estimated scf accuracy    <       3.66233991 Ry

     iteration #  6     ecut=    50.00 Ry     beta= 0.70
     Davidson diagonalization with overlap
     ethr =  8.32E-03,  avg # of iterations =  2.3

     negative rho (up, down):  3.264E-05 0.000E+00

     total cpu time spent up to now is       56.6 secs

     total energy              =    -438.04686549 Ry
     Harris-Foulkes estimate   =    -438.48762298 Ry
     estimated scf accuracy    <       6.07086573 Ry

     iteration #  7     ecut=    50.00 Ry     beta= 0.70
     Davidson diagonalization with overlap
     ethr =  8.32E-03,  avg # of iterations =  1.3

     negative rho (up, down):  6.915E-05 0.000E+00

     total cpu time spent up to now is       62.1 secs

     total energy              =    -438.09453822 Ry
     Harris-Foulkes estimate   =    -438.17184993 Ry
     estimated scf accuracy    <       2.93942052 Ry

     iteration #  8     ecut=    50.00 Ry     beta= 0.70
     Davidson diagonalization with overlap
     ethr =  6.68E-03,  avg # of iterations =  1.2

     negative rho (up, down):  7.254E-05 0.000E+00

     total cpu time spent up to now is       67.5 secs

     total energy              =    -438.04893457 Ry
     Harris-Foulkes estimate   =    -438.11690191 Ry
     estimated scf accuracy    <       2.38900596 Ry

     iteration #  9     ecut=    50.00 Ry     beta= 0.70
     Davidson diagonalization with overlap
     ethr =  5.43E-03,  avg # of iterations =  1.1

     negative rho (up, down):  7.268E-05 0.000E+00

     total cpu time spent up to now is       73.0 secs

     total energy              =    -438.06513323 Ry
     Harris-Foulkes estimate   =    -438.06550936 Ry
     estimated scf accuracy    <       2.36260018 Ry

     iteration # 10     ecut=    50.00 Ry     beta= 0.70
     Davidson diagonalization with overlap
     ethr =  5.37E-03,  avg # of iterations =  1.0

     negative rho (up, down):  3.767E-02 0.000E+00

     total cpu time spent up to now is       78.3 secs

     total energy              =    -437.46706709 Ry
     Harris-Foulkes estimate   =    -438.06597382 Ry
     estimated scf accuracy    <       2.36426425 Ry

     iteration # 11     ecut=    50.00 Ry     beta= 0.70
     Davidson diagonalization with overlap
     ethr =  5.37E-03,  avg # of iterations =  2.2

     negative rho (up, down):  3.102E-02 0.000E+00

     total cpu time spent up to now is       84.6 secs

     total energy              =    -437.65651020 Ry
     Harris-Foulkes estimate   =    -437.77001763 Ry
     estimated scf accuracy    <       4.89216311 Ry

     iteration # 12     ecut=    50.00 Ry     beta= 0.70
     Davidson diagonalization with overlap
     ethr =  5.37E-03,  avg # of iterations =  1.4

     negative rho (up, down):  1.347E-03 0.000E+00

     total cpu time spent up to now is       90.2 secs

     total energy              =    -437.68993563 Ry
     Harris-Foulkes estimate   =    -437.73501821 Ry
     estimated scf accuracy    <       0.81106949 Ry

     iteration # 13     ecut=    50.00 Ry     beta= 0.70
     Davidson diagonalization with overlap
     ethr =  1.84E-03,  avg # of iterations =  3.5

     negative rho (up, down):  3.337E-04 0.000E+00

     total cpu time spent up to now is       97.2 secs

     total energy              =    -437.78294090 Ry
     Harris-Foulkes estimate   =    -437.78622525 Ry
     estimated scf accuracy    <       5.29106152 Ry

     iteration # 14     ecut=    50.00 Ry     beta= 0.70
     Davidson diagonalization with overlap
     ethr =  1.84E-03,  avg # of iterations =  1.3

     negative rho (up, down):  2.953E-04 0.000E+00

     total cpu time spent up to now is      102.7 secs

     total energy              =    -437.67136067 Ry
     Harris-Foulkes estimate   =    -437.78638039 Ry
     estimated scf accuracy    <       5.75922224 Ry

     iteration # 15     ecut=    50.00 Ry     beta= 0.70
     Davidson diagonalization with overlap
     ethr =  1.84E-03,  avg # of iterations =  1.4

     negative rho (up, down):  3.545E-04 0.000E+00

     total cpu time spent up to now is      108.3 secs

     total energy              =    -437.67146829 Ry
     Harris-Foulkes estimate   =    -437.72110035 Ry
     estimated scf accuracy    <       3.67553987 Ry

     iteration # 16     ecut=    50.00 Ry     beta= 0.70
     Davidson diagonalization with overlap
     ethr =  1.84E-03,  avg # of iterations =  1.6

     negative rho (up, down):  7.480E-04 0.000E+00

     total cpu time spent up to now is      114.1 secs

     total energy              =    -437.66286193 Ry
     Harris-Foulkes estimate   =    -437.72687811 Ry
     estimated scf accuracy    <       6.39198694 Ry

     iteration # 17     ecut=    50.00 Ry     beta= 0.70
     Davidson diagonalization with overlap
     ethr =  1.84E-03,  avg # of iterations =  1.6

     negative rho (up, down):  1.556E-04 0.000E+00

     total cpu time spent up to now is      119.7 secs

     total energy              =    -437.70318277 Ry
     Harris-Foulkes estimate   =    -437.71754178 Ry
     estimated scf accuracy    <       2.78257104 Ry

     iteration # 18     ecut=    50.00 Ry     beta= 0.70
     Davidson diagonalization with overlap
     ethr =  1.84E-03,  avg # of iterations =  1.4

     negative rho (up, down):  2.652E-04 0.000E+00

     total cpu time spent up to now is      125.3 secs

     total energy              =    -437.66744244 Ry
     Harris-Foulkes estimate   =    -437.83580034 Ry
     estimated scf accuracy    <       7.10350816 Ry

     iteration # 19     ecut=    50.00 Ry     beta= 0.70
     Davidson diagonalization with overlap
     ethr =  1.84E-03,  avg # of iterations =  1.3

     negative rho (up, down):  2.343E-04 0.000E+00

     total cpu time spent up to now is      130.8 secs

     total energy              =    -437.71144882 Ry
     Harris-Foulkes estimate   =    -437.71046283 Ry
     estimated scf accuracy    <       1.05074744 Ry

     iteration # 20     ecut=    50.00 Ry     beta= 0.70
     Davidson diagonalization with overlap
     ethr =  1.84E-03,  avg # of iterations =  1.1

     negative rho (up, down):  1.850E-04 0.000E+00

     total cpu time spent up to now is      136.2 secs

     total energy              =    -437.66529626 Ry
     Harris-Foulkes estimate   =    -437.72363034 Ry
     estimated scf accuracy    <       2.55668568 Ry

     iteration # 21     ecut=    50.00 Ry     beta= 0.70
     Davidson diagonalization with overlap
     ethr =  1.84E-03,  avg # of iterations =  1.2

     negative rho (up, down):  2.051E-04 0.000E+00

     total cpu time spent up to now is      141.8 secs

     total energy              =    -437.81742020 Ry
     Harris-Foulkes estimate   =    -437.85619539 Ry
     estimated scf accuracy    <      12.87311438 Ry

     iteration # 22     ecut=    50.00 Ry     beta= 0.70
     Davidson diagonalization with overlap
     ethr =  1.84E-03,  avg # of iterations =  1.2

     negative rho (up, down):  2.098E-04 0.000E+00

     total cpu time spent up to now is      147.3 secs

     total energy              =    -437.80760003 Ry
     Harris-Foulkes estimate   =    -437.82079981 Ry
     estimated scf accuracy    <      12.98810119 Ry

     iteration # 23     ecut=    50.00 Ry     beta= 0.70
     Davidson diagonalization with overlap
     ethr =  1.84E-03,  avg # of iterations =  1.3

     negative rho (up, down):  2.150E-04 0.000E+00

     total cpu time spent up to now is      152.8 secs

     total energy              =    -437.68769381 Ry
     Harris-Foulkes estimate   =    -437.81217787 Ry
     estimated scf accuracy    <      12.42953509 Ry

     iteration # 24     ecut=    50.00 Ry     beta= 0.70
     Davidson diagonalization with overlap
     ethr =  1.84E-03,  avg # of iterations =  1.0

     negative rho (up, down):  2.040E-04 0.000E+00

     total cpu time spent up to now is      158.2 secs

     total energy              =    -437.69760792 Ry
     Harris-Foulkes estimate   =    -437.70495025 Ry
     estimated scf accuracy    <       2.48360852 Ry

     iteration # 25     ecut=    50.00 Ry     beta= 0.70
     Davidson diagonalization with overlap
     ethr =  1.84E-03,  avg # of iterations =  1.0

     negative rho (up, down):  1.987E-04 0.000E+00

     total cpu time spent up to now is      163.5 secs

     total energy              =    -437.70027989 Ry
     Harris-Foulkes estimate   =    -437.70280474 Ry
     estimated scf accuracy    <       2.78969767 Ry

     iteration # 26     ecut=    50.00 Ry     beta= 0.70
     Davidson diagonalization with overlap
     ethr =  1.84E-03,  avg # of iterations =  1.1

     negative rho (up, down):  1.657E-04 0.000E+00

     total cpu time spent up to now is      168.9 secs

     total energy              =    -437.70293246 Ry
     Harris-Foulkes estimate   =    -437.70238376 Ry
     estimated scf accuracy    <       0.40390983 Ry

     iteration # 27     ecut=    50.00 Ry     beta= 0.70
     Davidson diagonalization with overlap
     ethr =  9.18E-04,  avg # of iterations =  1.0

     negative rho (up, down):  1.698E-04 0.000E+00

     total cpu time spent up to now is      174.4 secs

     total energy              =    -437.70510826 Ry
     Harris-Foulkes estimate   =    -437.70589185 Ry
     estimated scf accuracy    <       2.81950872 Ry

     iteration # 28     ecut=    50.00 Ry     beta= 0.70
     Davidson diagonalization with overlap
     ethr =  9.18E-04,  avg # of iterations =  1.0

     negative rho (up, down):  1.587E-04 0.000E+00

     total cpu time spent up to now is      179.7 secs

     total energy              =    -437.72460914 Ry
     Harris-Foulkes estimate   =    -437.70519801 Ry
     estimated scf accuracy    <       2.81060030 Ry

     iteration # 29     ecut=    50.00 Ry     beta= 0.70
     Davidson diagonalization with overlap
     ethr =  9.18E-04,  avg # of iterations =  1.1

     negative rho (up, down):  1.568E-04 0.000E+00

     total cpu time spent up to now is      185.2 secs

     total energy              =    -437.72441403 Ry
     Harris-Foulkes estimate   =    -437.72673552 Ry
     estimated scf accuracy    <       3.55590597 Ry

     iteration # 30     ecut=    50.00 Ry     beta= 0.70
     Davidson diagonalization with overlap
     ethr =  9.18E-04,  avg # of iterations =  1.1

     negative rho (up, down):  1.570E-04 0.000E+00

     total cpu time spent up to now is      190.6 secs

     total energy              =    -437.70406589 Ry
     Harris-Foulkes estimate   =    -437.72444499 Ry
     estimated scf accuracy    <       3.54031512 Ry

     iteration # 31     ecut=    50.00 Ry     beta= 0.70
     Davidson diagonalization with overlap
     ethr =  9.18E-04,  avg # of iterations =  1.1

     negative rho (up, down):  1.573E-04 0.000E+00

     total cpu time spent up to now is      196.0 secs

     total energy              =    -437.67466651 Ry
     Harris-Foulkes estimate   =    -437.70589563 Ry
     estimated scf accuracy    <       2.29716087 Ry

     iteration # 32     ecut=    50.00 Ry     beta= 0.70
     Davidson diagonalization with overlap
     ethr =  9.18E-04,  avg # of iterations =  1.0

     negative rho (up, down):  1.746E-04 0.000E+00

     total cpu time spent up to now is      201.4 secs

     total energy              =    -437.63899392 Ry
     Harris-Foulkes estimate   =    -437.77470997 Ry
     estimated scf accuracy    <       8.21700392 Ry

     iteration # 33     ecut=    50.00 Ry     beta= 0.70
     Davidson diagonalization with overlap
     ethr =  9.18E-04,  avg # of iterations =  1.1

     negative rho (up, down):  1.832E-04 0.000E+00

     total cpu time spent up to now is      206.8 secs

     total energy              =    -437.70388742 Ry
     Harris-Foulkes estimate   =    -437.70266103 Ry
     estimated scf accuracy    <       1.21138302 Ry

     iteration # 34     ecut=    50.00 Ry     beta= 0.70
     Davidson diagonalization with overlap
     ethr =  9.18E-04,  avg # of iterations =  1.0

     negative rho (up, down):  1.862E-04 0.000E+00

     total cpu time spent up to now is      212.2 secs

     total energy              =    -437.70119152 Ry
     Harris-Foulkes estimate   =    -437.70420400 Ry
     estimated scf accuracy    <       1.70418187 Ry

     iteration # 35     ecut=    50.00 Ry     beta= 0.70
     Davidson diagonalization with overlap
     ethr =  9.18E-04,  avg # of iterations =  1.0

     negative rho (up, down):  1.566E-04 0.000E+00

     total cpu time spent up to now is      217.6 secs

     total energy              =    -437.74105060 Ry
     Harris-Foulkes estimate   =    -437.70144187 Ry
     estimated scf accuracy    <       1.25739005 Ry

     iteration # 36     ecut=    50.00 Ry     beta= 0.70
     Davidson diagonalization with overlap
     ethr =  9.18E-04,  avg # of iterations =  1.2

     negative rho (up, down):  1.394E-04 0.000E+00

     total cpu time spent up to now is      223.1 secs

     total energy              =    -437.80604213 Ry
     Harris-Foulkes estimate   =    -437.75489734 Ry
     estimated scf accuracy    <       3.48684696 Ry

     iteration # 37     ecut=    50.00 Ry     beta= 0.70
     Davidson diagonalization with overlap
     ethr =  9.18E-04,  avg # of iterations =  1.1

     negative rho (up, down):  1.312E-04 0.000E+00

     total cpu time spent up to now is      228.4 secs

     total energy              =    -437.78982184 Ry
     Harris-Foulkes estimate   =    -437.80860025 Ry
     estimated scf accuracy    <       3.46278953 Ry

     iteration # 38     ecut=    50.00 Ry     beta= 0.70
     Davidson diagonalization with overlap
     ethr =  9.18E-04,  avg # of iterations =  1.0

     negative rho (up, down):  1.312E-04 0.000E+00

     total cpu time spent up to now is      233.9 secs

     total energy              =    -437.79843601 Ry
     Harris-Foulkes estimate   =    -437.79120997 Ry
     estimated scf accuracy    <       3.33608514 Ry

     iteration # 39     ecut=    50.00 Ry     beta= 0.70
     Davidson diagonalization with overlap
     ethr =  9.18E-04,  avg # of iterations =  1.0

     negative rho (up, down):  1.469E-04 0.000E+00

     total cpu time spent up to now is      239.2 secs

     total energy              =    -437.78266685 Ry
     Harris-Foulkes estimate   =    -437.79850824 Ry
     estimated scf accuracy    <       3.36570053 Ry

     iteration # 40     ecut=    50.00 Ry     beta= 0.70
     Davidson diagonalization with overlap
     ethr =  9.18E-04,  avg # of iterations =  1.0

     negative rho (up, down):  1.560E-04 0.000E+00

     total cpu time spent up to now is      244.6 secs

     total energy              =    -437.79339542 Ry
     Harris-Foulkes estimate   =    -437.78317593 Ry
     estimated scf accuracy    <       3.09313544 Ry

     iteration # 41     ecut=    50.00 Ry     beta= 0.70
     Davidson diagonalization with overlap
     ethr =  9.18E-04,  avg # of iterations =  1.0

     negative rho (up, down):  4.214E-03 0.000E+00

     total cpu time spent up to now is      249.9 secs

     total energy              =    -437.92026664 Ry
     Harris-Foulkes estimate   =    -437.79351424 Ry
     estimated scf accuracy    <       3.25592925 Ry

     iteration # 42     ecut=    50.00 Ry     beta= 0.70
     Davidson diagonalization with overlap
     ethr =  9.18E-04,  avg # of iterations =  2.0

     negative rho (up, down):  6.978E-02 0.000E+00

     total cpu time spent up to now is      255.9 secs

     total energy              =    -437.75755162 Ry
     Harris-Foulkes estimate   =    -438.06827080 Ry
     estimated scf accuracy    <       7.37160662 Ry

     iteration # 43     ecut=    50.00 Ry     beta= 0.70
     Davidson diagonalization with overlap
     ethr =  9.18E-04,  avg # of iterations =  2.3

     negative rho (up, down):  8.555E-02 0.000E+00

     total cpu time spent up to now is      263.0 secs

     total energy              =    -432.95588582 Ry
     Harris-Foulkes estimate   =    -439.40053821 Ry
     estimated scf accuracy    <      30.40504378 Ry

     iteration # 44     ecut=    50.00 Ry     beta= 0.70
     Davidson diagonalization with overlap
     ethr =  9.18E-04,  avg # of iterations =  3.0

     negative rho (up, down):  4.517E-02 0.000E+00

     total cpu time spent up to now is      270.5 secs

     total energy              =    -438.71055847 Ry
     Harris-Foulkes estimate   =    -438.73637445 Ry
     estimated scf accuracy    <       5.46129653 Ry

     iteration # 45     ecut=    50.00 Ry     beta= 0.70
     Davidson diagonalization with overlap
     ethr =  9.18E-04,  avg # of iterations =  2.0

     negative rho (up, down):  3.276E-04 0.000E+00

     total cpu time spent up to now is      276.3 secs

     total energy              =    -437.72530098 Ry
     Harris-Foulkes estimate   =    -438.97899726 Ry
     estimated scf accuracy    <      13.87689579 Ry

     iteration # 46     ecut=    50.00 Ry     beta= 0.70
     Davidson diagonalization with overlap
     ethr =  9.18E-04,  avg # of iterations =  2.0

     negative rho (up, down):  2.023E-04 0.000E+00

     total cpu time spent up to now is      283.0 secs

     total energy              =    -437.60938159 Ry
     Harris-Foulkes estimate   =    -437.78817586 Ry
     estimated scf accuracy    <       9.06210296 Ry

     iteration # 47     ecut=    50.00 Ry     beta= 0.70
     Davidson diagonalization with overlap
     ethr =  9.18E-04,  avg # of iterations =  1.0

     negative rho (up, down):  2.167E-04 0.000E+00

     total cpu time spent up to now is      288.4 secs

     total energy              =    -437.70230009 Ry
     Harris-Foulkes estimate   =    -437.71850105 Ry
     estimated scf accuracy    <       4.88942461 Ry

     iteration # 48     ecut=    50.00 Ry     beta= 0.70
     Davidson diagonalization with overlap
     ethr =  9.18E-04,  avg # of iterations =  1.0

     negative rho (up, down):  1.792E-04 0.000E+00

     total cpu time spent up to now is      293.7 secs

     total energy              =    -437.74563193 Ry
     Harris-Foulkes estimate   =    -437.70512736 Ry
     estimated scf accuracy    <       2.22724542 Ry

     iteration # 49     ecut=    50.00 Ry     beta= 0.70
     Davidson diagonalization with overlap
     ethr =  9.18E-04,  avg # of iterations =  1.0

     negative rho (up, down):  1.783E-04 0.000E+00

     total cpu time spent up to now is      299.1 secs

     total energy              =    -437.70252425 Ry
     Harris-Foulkes estimate   =    -437.78963288 Ry
     estimated scf accuracy    <      13.68288593 Ry

     iteration # 50     ecut=    50.00 Ry     beta= 0.70
     Davidson diagonalization with overlap
     ethr =  9.18E-04,  avg # of iterations =  1.0

     negative rho (up, down):  2.688E-04 0.000E+00

     total cpu time spent up to now is      304.5 secs

     total energy              =    -437.70065380 Ry
     Harris-Foulkes estimate   =    -437.72237659 Ry
     estimated scf accuracy    <       0.53255455 Ry

     iteration # 51     ecut=    50.00 Ry     beta= 0.70
     Davidson diagonalization with overlap
     ethr =  9.18E-04,  avg # of iterations =  1.0

     negative rho (up, down):  2.059E-04 0.000E+00

     total cpu time spent up to now is      309.8 secs

     total energy              =    -437.70164698 Ry
     Harris-Foulkes estimate   =    -437.81750306 Ry
     estimated scf accuracy    <       5.91683214 Ry

     iteration # 52     ecut=    50.00 Ry     beta= 0.70
     Davidson diagonalization with overlap
     ethr =  9.18E-04,  avg # of iterations =  1.0

     negative rho (up, down):  2.061E-04 0.000E+00

     total cpu time spent up to now is      315.2 secs

     total energy              =    -437.70697066 Ry
     Harris-Foulkes estimate   =    -437.71222773 Ry
     estimated scf accuracy    <       3.29427100 Ry

     iteration # 53     ecut=    50.00 Ry     beta= 0.70
     Davidson diagonalization with overlap
     ethr =  9.18E-04,  avg # of iterations =  1.0

     negative rho (up, down):  2.542E-04 0.000E+00

     total cpu time spent up to now is      320.6 secs

     total energy              =    -437.70923069 Ry
     Harris-Foulkes estimate   =    -437.71631135 Ry
     estimated scf accuracy    <       2.76272536 Ry

     iteration # 54     ecut=    50.00 Ry     beta= 0.70
     Davidson diagonalization with overlap
     ethr =  9.18E-04,  avg # of iterations =  1.0

     negative rho (up, down):  2.340E-04 0.000E+00

     total cpu time spent up to now is      326.0 secs

     total energy              =    -437.71391518 Ry
     Harris-Foulkes estimate   =    -437.71017549 Ry
     estimated scf accuracy    <       2.07479449 Ry

     iteration # 55     ecut=    50.00 Ry     beta= 0.70
     Davidson diagonalization with overlap
     ethr =  9.18E-04,  avg # of iterations =  1.0

     negative rho (up, down):  2.057E-04 0.000E+00

     total cpu time spent up to now is      331.4 secs

     total energy              =    -437.71898797 Ry
     Harris-Foulkes estimate   =    -437.71430375 Ry
     estimated scf accuracy    <       1.99586625 Ry

     iteration # 56     ecut=    50.00 Ry     beta= 0.70
     Davidson diagonalization with overlap
     ethr =  9.18E-04,  avg # of iterations =  1.0

     negative rho (up, down):  2.062E-04 0.000E+00

     total cpu time spent up to now is      336.7 secs

     total energy              =    -437.69308628 Ry
     Harris-Foulkes estimate   =    -437.71934052 Ry
     estimated scf accuracy    <       2.41902874 Ry

     iteration # 57     ecut=    50.00 Ry     beta= 0.70
     Davidson diagonalization with overlap
     ethr =  9.18E-04,  avg # of iterations =  1.0

     negative rho (up, down):  2.123E-04 0.000E+00

     total cpu time spent up to now is      342.1 secs

     total energy              =    -437.73082314 Ry
     Harris-Foulkes estimate   =    -437.71732240 Ry
     estimated scf accuracy    <       3.09669755 Ry

     iteration # 58     ecut=    50.00 Ry     beta= 0.70
     Davidson diagonalization with overlap
     ethr =  9.18E-04,  avg # of iterations =  1.0

     negative rho (up, down):  3.562E-04 0.000E+00

     total cpu time spent up to now is      347.4 secs

     total energy              =    -437.78994136 Ry
     Harris-Foulkes estimate   =    -437.73219261 Ry
     estimated scf accuracy    <       4.74752734 Ry

     iteration # 59     ecut=    50.00 Ry     beta= 0.70
     Davidson diagonalization with overlap
     ethr =  9.18E-04,  avg # of iterations =  1.0

     negative rho (up, down):  3.790E-04 0.000E+00

     total cpu time spent up to now is      352.9 secs

     total energy              =    -437.63510687 Ry
     Harris-Foulkes estimate   =    -437.79371645 Ry
     estimated scf accuracy    <       4.65680044 Ry

     iteration # 60     ecut=    50.00 Ry     beta= 0.70
     Davidson diagonalization with overlap
     ethr =  9.18E-04,  avg # of iterations =  1.0

     negative rho (up, down):  3.736E-04 0.000E+00

     total cpu time spent up to now is      358.3 secs

     total energy              =    -437.70546673 Ry
     Harris-Foulkes estimate   =    -437.70468668 Ry
     estimated scf accuracy    <       1.34764210 Ry

     iteration # 61     ecut=    50.00 Ry     beta= 0.70
     Davidson diagonalization with overlap
     ethr =  9.18E-04,  avg # of iterations =  1.0

     negative rho (up, down):  2.764E-04 0.000E+00

     total cpu time spent up to now is      363.6 secs

     total energy              =    -437.72991463 Ry
     Harris-Foulkes estimate   =    -437.70580927 Ry
     estimated scf accuracy    <       1.49446659 Ry

     iteration # 62     ecut=    50.00 Ry     beta= 0.70
     Davidson diagonalization with overlap
     ethr =  9.18E-04,  avg # of iterations =  1.0

     negative rho (up, down):  1.171E-04 0.000E+00

     total cpu time spent up to now is      369.0 secs

     total energy              =    -437.72845439 Ry
     Harris-Foulkes estimate   =    -437.74784873 Ry
     estimated scf accuracy    <       0.25781478 Ry

     iteration # 63     ecut=    50.00 Ry     beta= 0.70
     Davidson diagonalization with overlap
     ethr =  5.86E-04,  avg # of iterations =  1.0

     negative rho (up, down):  1.037E-04 0.000E+00

     total cpu time spent up to now is      374.3 secs

     total energy              =    -437.72898822 Ry
     Harris-Foulkes estimate   =    -437.73397256 Ry
     estimated scf accuracy    <       0.64018445 Ry

     iteration # 64     ecut=    50.00 Ry     beta= 0.70
     Davidson diagonalization with overlap
     ethr =  5.86E-04,  avg # of iterations =  1.0

     negative rho (up, down):  9.784E-05 0.000E+00

     total cpu time spent up to now is      379.7 secs

     total energy              =    -437.72638397 Ry
     Harris-Foulkes estimate   =    -437.73132986 Ry
     estimated scf accuracy    <       0.23638301 Ry

     iteration # 65     ecut=    50.00 Ry     beta= 0.70
     Davidson diagonalization with overlap
     ethr =  5.37E-04,  avg # of iterations =  1.0

     negative rho (up, down):  9.996E-05 0.000E+00

     total cpu time spent up to now is      385.1 secs

     total energy              =    -437.73232909 Ry
     Harris-Foulkes estimate   =    -437.72706345 Ry
     estimated scf accuracy    <       0.37181787 Ry

     iteration # 66     ecut=    50.00 Ry     beta= 0.70
     Davidson diagonalization with overlap
     ethr =  5.37E-04,  avg # of iterations =  1.0

     negative rho (up, down):  3.226E-04 0.000E+00

     total cpu time spent up to now is      390.5 secs

     total energy              =    -437.86621923 Ry
     Harris-Foulkes estimate   =    -437.73368214 Ry
     estimated scf accuracy    <       0.83964618 Ry

     iteration # 67     ecut=    50.00 Ry     beta= 0.70
     Davidson diagonalization with overlap
     ethr =  5.37E-04,  avg # of iterations =  1.1

     negative rho (up, down):  1.954E-04 0.000E+00

     total cpu time spent up to now is      395.9 secs

     total energy              =    -436.96318077 Ry
     Harris-Foulkes estimate   =    -438.18450954 Ry
     estimated scf accuracy    <      28.36281055 Ry

     iteration # 68     ecut=    50.00 Ry     beta= 0.70
     Davidson diagonalization with overlap
     ethr =  5.37E-04,  avg # of iterations =  1.0

     negative rho (up, down):  2.367E-04 0.000E+00

     total cpu time spent up to now is      401.3 secs

     total energy              =    -437.65464207 Ry
     Harris-Foulkes estimate   =    -437.76162631 Ry
     estimated scf accuracy    <       0.81145387 Ry

     iteration # 69     ecut=    50.00 Ry     beta= 0.70
     Davidson diagonalization with overlap
     ethr =  5.37E-04,  avg # of iterations =  2.0

     negative rho (up, down):  2.665E-04 0.000E+00

     total cpu time spent up to now is      408.0 secs

     total energy              =    -437.54342039 Ry
     Harris-Foulkes estimate   =    -438.30265736 Ry
     estimated scf accuracy    <       4.65076906 Ry

     iteration # 70     ecut=    50.00 Ry     beta= 0.70
     Davidson diagonalization with overlap
     ethr =  5.37E-04,  avg # of iterations =  2.0

     negative rho (up, down):  2.385E-04 0.000E+00

     total cpu time spent up to now is      414.7 secs

     total energy              =    -437.70371488 Ry
     Harris-Foulkes estimate   =    -437.71513062 Ry
     estimated scf accuracy    <       0.10863995 Ry

     iteration # 71     ecut=    50.00 Ry     beta= 0.70
     Davidson diagonalization with overlap
     ethr =  2.47E-04,  avg # of iterations =  1.0

     negative rho (up, down):  2.334E-04 0.000E+00

     total cpu time spent up to now is      420.0 secs

     total energy              =    -437.70714644 Ry
     Harris-Foulkes estimate   =    -437.70669569 Ry
     estimated scf accuracy    <       3.29275012 Ry

     iteration # 72     ecut=    50.00 Ry     beta= 0.70
     Davidson diagonalization with overlap
     ethr =  2.47E-04,  avg # of iterations =  1.0

     negative rho (up, down):  2.421E-04 0.000E+00

     total cpu time spent up to now is      425.4 secs

     total energy              =    -437.70872006 Ry
     Harris-Foulkes estimate   =    -437.70737191 Ry
     estimated scf accuracy    <       4.93635371 Ry

     iteration # 73     ecut=    50.00 Ry     beta= 0.70
     Davidson diagonalization with overlap
     ethr =  2.47E-04,  avg # of iterations =  1.0

     negative rho (up, down):  2.313E-04 0.000E+00

     total cpu time spent up to now is      430.7 secs

     total energy              =    -437.70331622 Ry
     Harris-Foulkes estimate   =    -437.70912758 Ry
     estimated scf accuracy    <       3.46586994 Ry

     iteration # 74     ecut=    50.00 Ry     beta= 0.70
     Davidson diagonalization with overlap
     ethr =  2.47E-04,  avg # of iterations =  1.0

     negative rho (up, down):  2.388E-04 0.000E+00

     total cpu time spent up to now is      436.1 secs

     total energy              =    -437.70710519 Ry
     Harris-Foulkes estimate   =    -437.70393503 Ry
     estimated scf accuracy    <       0.78554026 Ry

     iteration # 75     ecut=    50.00 Ry     beta= 0.70
     Davidson diagonalization with overlap
     ethr =  2.47E-04,  avg # of iterations =  1.0

     negative rho (up, down):  2.352E-04 0.000E+00

     total cpu time spent up to now is      441.9 secs

     total energy              =    -437.70655127 Ry
     Harris-Foulkes estimate   =    -437.70735604 Ry
     estimated scf accuracy    <       2.19177087 Ry

     iteration # 76     ecut=    50.00 Ry     beta= 0.70
     Davidson diagonalization with overlap
     ethr =  2.47E-04,  avg # of iterations =  1.0

     negative rho (up, down):  2.493E-04 0.000E+00

     total cpu time spent up to now is      447.2 secs

     total energy              =    -437.69596695 Ry
     Harris-Foulkes estimate   =    -437.70661901 Ry
     estimated scf accuracy    <       3.09022057 Ry

     iteration # 77     ecut=    50.00 Ry     beta= 0.70
     Davidson diagonalization with overlap
     ethr =  2.47E-04,  avg # of iterations =  1.0

     negative rho (up, down):  2.596E-04 0.000E+00

     total cpu time spent up to now is      452.6 secs

     total energy              =    -437.69845528 Ry
     Harris-Foulkes estimate   =    -437.70467947 Ry
     estimated scf accuracy    <       1.15060647 Ry

     iteration # 78     ecut=    50.00 Ry     beta= 0.70
     Davidson diagonalization with overlap
     ethr =  2.47E-04,  avg # of iterations =  1.0

     negative rho (up, down):  1.948E-04 0.000E+00

     total cpu time spent up to now is      458.0 secs

     total energy              =    -437.69291433 Ry
     Harris-Foulkes estimate   =    -437.69998440 Ry
     estimated scf accuracy    <       1.15042119 Ry

     iteration # 79     ecut=    50.00 Ry     beta= 0.70
     Davidson diagonalization with overlap
     ethr =  2.47E-04,  avg # of iterations =  1.0

     negative rho (up, down):  1.988E-04 0.000E+00

     total cpu time spent up to now is      463.4 secs

     total energy              =    -437.67251040 Ry
     Harris-Foulkes estimate   =    -437.71165591 Ry
     estimated scf accuracy    <       2.56548041 Ry

     iteration # 80     ecut=    50.00 Ry     beta= 0.70
     Davidson diagonalization with overlap
     ethr =  2.47E-04,  avg # of iterations =  1.0

     negative rho (up, down):  1.909E-04 0.000E+00

     total cpu time spent up to now is      468.7 secs

     total energy              =    -437.69873609 Ry
     Harris-Foulkes estimate   =    -437.69968902 Ry
     estimated scf accuracy    <       0.20491492 Ry

     iteration # 81     ecut=    50.00 Ry     beta= 0.70
     Davidson diagonalization with overlap
     ethr =  2.47E-04,  avg # of iterations =  1.0

     negative rho (up, down):  1.861E-04 0.000E+00

     total cpu time spent up to now is      474.2 secs

     total energy              =    -437.69865891 Ry
     Harris-Foulkes estimate   =    -437.69929165 Ry
     estimated scf accuracy    <       0.06799370 Ry

     iteration # 82     ecut=    50.00 Ry     beta= 0.70
     Davidson diagonalization with overlap
     ethr =  1.55E-04,  avg # of iterations =  1.0

     negative rho (up, down):  1.738E-04 0.000E+00

     total cpu time spent up to now is      479.5 secs

     total energy              =    -437.69833936 Ry
     Harris-Foulkes estimate   =    -437.69872176 Ry
     estimated scf accuracy    <       0.03403975 Ry

     iteration # 83     ecut=    50.00 Ry     beta= 0.70
     Davidson diagonalization with overlap
     ethr =  7.74E-05,  avg # of iterations =  1.0

     negative rho (up, down):  1.542E-04 0.000E+00

     total cpu time spent up to now is      484.9 secs

     total energy              =    -437.69815803 Ry
     Harris-Foulkes estimate   =    -437.69838956 Ry
     estimated scf accuracy    <       0.00817629 Ry

     iteration # 84     ecut=    50.00 Ry     beta= 0.70
     Davidson diagonalization with overlap
     ethr =  1.86E-05,  avg # of iterations =  1.0

     negative rho (up, down):  1.441E-04 0.000E+00

     total cpu time spent up to now is      490.2 secs

     total energy              =    -437.69816003 Ry
     Harris-Foulkes estimate   =    -437.69821118 Ry
     estimated scf accuracy    <       0.00098869 Ry

     iteration # 85     ecut=    50.00 Ry     beta= 0.70
     Davidson diagonalization with overlap
     ethr =  2.25E-06,  avg # of iterations =  1.0

     negative rho (up, down):  1.326E-04 0.000E+00

     total cpu time spent up to now is      495.6 secs

     total energy              =    -437.69816705 Ry
     Harris-Foulkes estimate   =    -437.69817664 Ry
     estimated scf accuracy    <       0.00010853 Ry

     iteration # 86     ecut=    50.00 Ry     beta= 0.70
     Davidson diagonalization with overlap
     ethr =  2.47E-07,  avg # of iterations =  1.0

     negative rho (up, down):  1.326E-04 0.000E+00

     total cpu time spent up to now is      501.0 secs

     total energy              =    -437.69817389 Ry
     Harris-Foulkes estimate   =    -437.69817443 Ry
     estimated scf accuracy    <       0.00006352 Ry

     iteration # 87     ecut=    50.00 Ry     beta= 0.70
     Davidson diagonalization with overlap
     ethr =  1.44E-07,  avg # of iterations =  1.0

     negative rho (up, down):  1.344E-04 0.000E+00

     total cpu time spent up to now is      506.4 secs

     total energy              =    -437.69817285 Ry
     Harris-Foulkes estimate   =    -437.69817402 Ry
     estimated scf accuracy    <       0.00003755 Ry

     iteration # 88     ecut=    50.00 Ry     beta= 0.70
     Davidson diagonalization with overlap
     ethr =  8.53E-08,  avg # of iterations =  1.0

     negative rho (up, down):  1.334E-04 0.000E+00

     total cpu time spent up to now is      511.7 secs

     total energy              =    -437.69817338 Ry
     Harris-Foulkes estimate   =    -437.69817363 Ry
     estimated scf accuracy    <       0.00022819 Ry

     iteration # 89     ecut=    50.00 Ry     beta= 0.70
     Davidson diagonalization with overlap
     ethr =  8.53E-08,  avg # of iterations =  1.0

     negative rho (up, down):  1.326E-04 0.000E+00

     total cpu time spent up to now is      517.4 secs

     total energy              =    -437.69817349 Ry
     Harris-Foulkes estimate   =    -437.69817353 Ry
     estimated scf accuracy    <       0.00000030 Ry

     iteration # 90     ecut=    50.00 Ry     beta= 0.70
     Davidson diagonalization with overlap
     ethr =  6.76E-10,  avg # of iterations =  1.0

     negative rho (up, down):  1.322E-04 0.000E+00

     total cpu time spent up to now is      522.7 secs

     total energy              =    -437.69817350 Ry
     Harris-Foulkes estimate   =    -437.69817354 Ry
     estimated scf accuracy    <       0.00000112 Ry

     iteration # 91     ecut=    50.00 Ry     beta= 0.70
     Davidson diagonalization with overlap
     ethr =  6.76E-10,  avg # of iterations =  1.0

     negative rho (up, down):  1.320E-04 0.000E+00

     total cpu time spent up to now is      528.1 secs

     total energy              =    -437.69817351 Ry
     Harris-Foulkes estimate   =    -437.69817353 Ry
     estimated scf accuracy    <       0.00000229 Ry

     iteration # 92     ecut=    50.00 Ry     beta= 0.70
     Davidson diagonalization with overlap
     ethr =  6.76E-10,  avg # of iterations =  1.0

     negative rho (up, down):  1.320E-04 0.000E+00

     total cpu time spent up to now is      533.5 secs

     total energy              =    -437.69817352 Ry
     Harris-Foulkes estimate   =    -437.69817352 Ry
     estimated scf accuracy    <       0.00000015 Ry

     iteration # 93     ecut=    50.00 Ry     beta= 0.70
     Davidson diagonalization with overlap
     ethr =  3.50E-10,  avg # of iterations =  1.0

     negative rho (up, down):  1.320E-04 0.000E+00

     total cpu time spent up to now is      538.8 secs

     total energy              =    -437.69817352 Ry
     Harris-Foulkes estimate   =    -437.69817352 Ry
     estimated scf accuracy    <       0.00000002 Ry

     iteration # 94     ecut=    50.00 Ry     beta= 0.70
     Davidson diagonalization with overlap
     ethr =  5.37E-11,  avg # of iterations =  1.0

     negative rho (up, down):  1.319E-04 0.000E+00

     total cpu time spent up to now is      544.2 secs

     End of self-consistent calculation

          k = 0.0000 0.0000 0.0000 ( 24201 PWs)   bands (ev):

   -96.8773 -60.4037 -60.4037 -60.4036 -20.1019 -20.0952 -20.0949 -17.8439
    -9.2353  -9.2352  -9.2347  -9.2346  -9.2346  -5.7099  -5.6773  -5.6773
    -5.3020  -5.3008  -5.3008  -5.2965  -5.2963  -5.2963  -5.2324  -5.2278
    -5.2278  -5.2097

     occupation numbers 
     1.0000   1.0000   1.0000   1.0000   1.0000   1.0000   1.0000   1.0000
     1.0000   1.0000   1.0000   1.0000   1.0000   1.0000   1.0000   1.0000
     0.9798   0.9404   0.9404   0.7446   0.7331   0.7331   0.0000   0.0000
     0.0000   0.0000

          k = 0.0000 0.0000 0.1244 ( 24168 PWs)   bands (ev):

   -96.8773 -60.4037 -60.4037 -60.4036 -20.1019 -20.0952 -20.0949 -17.8439
    -9.2353  -9.2352  -9.2347  -9.2346  -9.2346  -5.6982  -5.6770  -5.6770
    -5.3067  -5.3008  -5.3008  -5.2966  -5.2965  -5.2965  -5.2449  -5.2281
    -5.2281  -5.2056

     occupation numbers 
     1.0000   1.0000   1.0000   1.0000   1.0000   1.0000   1.0000   1.0000
     1.0000   1.0000   1.0000   1.0000   1.0000   1.0000   1.0000   1.0000
     1.0724   0.9380   0.9380   0.7474   0.7412   0.7412   0.0000   0.0000
     0.0000   0.0000

          k = 0.0000 0.0000 0.2489 ( 24244 PWs)   bands (ev):

   -96.8774 -60.4037 -60.4037 -60.4036 -20.1019 -20.0952 -20.0949 -17.8440
    -9.2353  -9.2352  -9.2347  -9.2346  -9.2346  -5.6761  -5.6761  -5.6665
    -5.3206  -5.3006  -5.3006  -5.2969  -5.2969  -5.2968  -5.2756  -5.2288
    -5.2288  -5.1964

     occupation numbers 
     1.0000   1.0000   1.0000   1.0000   1.0000   1.0000   1.0000   1.0000
     1.0000   1.0000   1.0000   1.0000   1.0000   1.0000   1.0000   1.0000
     1.0233   0.9315   0.9315   0.7654   0.7654   0.7577   0.0231   0.0000
     0.0000   0.0000

          k = 0.0000 0.0000 0.3733 ( 24264 PWs)   bands (ev):

   -96.8774 -60.4037 -60.4037 -60.4036 -20.1018 -20.0953 -20.0949 -17.8440
    -9.2353  -9.2351  -9.2347  -9.2346  -9.2346  -5.6752  -5.6752  -5.6269
    -5.3480  -5.3003  -5.3003  -5.2995  -5.2975  -5.2975  -5.2970  -5.2295
    -5.2295  -5.1881

     occupation numbers 
     1.0000   1.0000   1.0000   1.0000   1.0000   1.0000   1.0000   1.0000
     1.0000   1.0000   1.0000   1.0000   1.0000   1.0000   1.0000   1.0000
     1.0000   0.9218   0.9218   0.8875   0.7926   0.7926   0.7674   0.0000
     0.0000   0.0000

          k = 0.0000 0.0000-0.4977 ( 24220 PWs)   bands (ev):

   -96.8773 -60.4037 -60.4037 -60.4036 -20.1018 -20.0953 -20.0949 -17.8440
    -9.2353  -9.2351  -9.2347  -9.2346  -9.2346  -5.6749  -5.6749  -5.6064
    -5.3670  -5.3057  -5.3002  -5.3002  -5.2977  -5.2977  -5.2970  -5.2298
    -5.2298  -5.1848

     occupation numbers 
     1.0000   1.0000   1.0000   1.0000   1.0000   1.0000   1.0000   1.0000
     1.0000   1.0000   1.0000   1.0000   1.0000   1.0000   1.0000   1.0000
     1.0000   1.0608   0.9159   0.9159   0.8045   0.8045   0.7707   0.0000
     0.0000   0.0000

          k = 0.0000 0.1250 0.0000 ( 24196 PWs)   bands (ev):

   -96.8773 -60.4037 -60.4037 -60.4036 -20.1019 -20.0952 -20.0949 -17.8439
    -9.2353  -9.2352  -9.2347  -9.2346  -9.2346  -5.7098  -5.6770  -5.6644
    -5.3056  -5.3018  -5.3007  -5.2968  -5.2965  -5.2964  -5.2428  -5.2315
    -5.2281  -5.2054

     occupation numbers 
     1.0000   1.0000   1.0000   1.0000   1.0000   1.0000   1.0000   1.0000
     1.0000   1.0000   1.0000   1.0000   1.0000   1.0000   1.0000   1.0000
     1.0591   0.9719   0.9357   0.7564   0.7416   0.7369   0.0000   0.0000
     0.0000   0.0000

          k = 0.0000 0.1250 0.1244 ( 24209 PWs)   bands (ev):

   -96.8773 -60.4037 -60.4037 -60.4036 -20.1019 -20.0952 -20.0949 -17.8439
    -9.2353  -9.2352  -9.2347  -9.2346  -9.2346  -5.6982  -5.6766  -5.6640
    -5.3093  -5.3019  -5.3006  -5.2974  -5.2966  -5.2959  -5.2477  -5.2396
    -5.2284  -5.2020

     occupation numbers 
     1.0000   1.0000   1.0000   1.0000   1.0000   1.0000   1.0000   1.0000
     1.0000   1.0000   1.0000   1.0000   1.0000   1.0000   1.0000   1.0000
     1.0833   0.9776   0.9333   0.7872   0.7501   0.7109   0.0000   0.0000
     0.0000   0.0000

          k = 0.0000 0.1250 0.2489 ( 24257 PWs)   bands (ev):

   -96.8774 -60.4037 -60.4037 -60.4036 -20.1019 -20.0952 -20.0949 -17.8440
    -9.2353  -9.2352  -9.2347  -9.2346  -9.2346  -5.6757  -5.6679  -5.6616
    -5.3209  -5.3031  -5.3005  -5.2981  -5.2971  -5.2955  -5.2762  -5.2424
    -5.2292  -5.1943

     occupation numbers 
     1.0000   1.0000   1.0000   1.0000   1.0000   1.0000   1.0000   1.0000
     1.0000   1.0000   1.0000   1.0000   1.0000   1.0000   1.0000   1.0000
     1.0217   1.0117   0.9274   0.8214   0.7723   0.6908   0.0272   0.0000
     0.0000   0.0000

          k = 0.0000 0.1250 0.3733 ( 24219 PWs)   bands (ev):

   -96.8773 -60.4037 -60.4037 -60.4036 -20.1018 -20.0952 -20.0949 -17.8440
    -9.2353  -9.2351  -9.2347  -9.2346  -9.2346  -5.6749  -5.6626  -5.6263
    -5.3473  -5.3082  -5.3003  -5.2986  -5.2975  -5.2967  -5.2936  -5.2435
    -5.2299  -5.1871

     occupation numbers 
     1.0000   1.0000   1.0000   1.0000   1.0000   1.0000   1.0000   1.0000
     1.0000   1.0000   1.0000   1.0000   1.0000   1.0000   1.0000   1.0000
     1.0000   1.0812   0.9184   0.8460   0.7960   0.7522   0.5862   0.0000
     0.0000   0.0000

          k = 0.0000 0.1250-0.4977 ( 24226 PWs)   bands (ev):

   -96.8773 -60.4037 -60.4037 -60.4036 -20.1018 -20.0952 -20.0949 -17.8440
    -9.2353  -9.2351  -9.2347  -9.2346  -9.2346  -5.6745  -5.6621  -5.6058
    -5.3664  -5.3116  -5.3001  -5.2990  -5.2979  -5.2978  -5.2944  -5.2439
    -5.2302  -5.1843

     occupation numbers 
     1.0000   1.0000   1.0000   1.0000   1.0000   1.0000   1.0000   1.0000
     1.0000   1.0000   1.0000   1.0000   1.0000   1.0000   1.0000   1.0000
     1.0000   1.0778   0.9138   0.8660   0.8135   0.8071   0.6273   0.0000
     0.0000   0.0000

          k = 0.0000 0.2500 0.0000 ( 24234 PWs)   bands (ev):

   -96.8774 -60.4037 -60.4037 -60.4036 -20.1019 -20.0952 -20.0949 -17.8440
    -9.2353  -9.2352  -9.2347  -9.2346  -9.2346  -5.7093  -5.6761  -5.6291
    -5.3193  -5.3017  -5.3003  -5.2977  -5.2970  -5.2966  -5.2758  -5.2326
    -5.2290  -5.1960

     occupation numbers 
     1.0000   1.0000   1.0000   1.0000   1.0000   1.0000   1.0000   1.0000
     1.0000   1.0000   1.0000   1.0000   1.0000   1.0000   1.0000   1.0000
     1.0299   0.9708   0.9203   0.8054   0.7689   0.7481   0.0241   0.0000
     0.0000   0.0000

          k = 0.0000 0.2500 0.1244 ( 24249 PWs)   bands (ev):

   -96.8774 -60.4037 -60.4037 -60.4036 -20.1019 -20.0952 -20.0949 -17.8440
    -9.2353  -9.2352  -9.2347  -9.2346  -9.2346  -5.6976  -5.6757  -5.6286
    -5.3202  -5.3037  -5.3003  -5.2987  -5.2971  -5.2955  -5.2765  -5.2451
    -5.2293  -5.1940

     occupation numbers 
     1.0000   1.0000   1.0000   1.0000   1.0000   1.0000   1.0000   1.0000
     1.0000   1.0000   1.0000   1.0000   1.0000   1.0000   1.0000   1.0000
     1.0251   1.0248   0.9186   0.8502   0.7752   0.6917   0.0288   0.0000
     0.0000   0.0000

          k = 0.0000 0.2500 0.2489 ( 24227 PWs)   bands (ev):

   -96.8773 -60.4037 -60.4037 -60.4036 -20.1019 -20.0952 -20.0949 -17.8440
    -9.2353  -9.2351  -9.2347  -9.2346  -9.2346  -5.6749  -5.6659  -5.6273
    -5.3241  -5.3101  -5.3007  -5.3002  -5.2974  -5.2942  -5.2822  -5.2703
    -5.2301  -5.1894

     occupation numbers 
     1.0000   1.0000   1.0000   1.0000   1.0000   1.0000   1.0000   1.0000
     1.0000   1.0000   1.0000   1.0000   1.0000   1.0000   1.0000   1.0000
     1.0105   1.0828   0.9342   0.9148   0.7902   0.6164   0.1084   0.0048
     0.0000   0.0000

          k = 0.0000 0.2500 0.3733 ( 24230 PWs)   bands (ev):

   -96.8774 -60.4037 -60.4037 -60.4036 -20.1018 -20.0952 -20.0949 -17.8441
    -9.2353  -9.2351  -9.2347  -9.2346  -9.2346  -5.6740  -5.6308  -5.6215
    -5.3455  -5.3201  -5.3033  -5.3001  -5.2977  -5.2951  -5.2911  -5.2761
    -5.2308  -5.1849

     occupation numbers 
     1.0000   1.0000   1.0000   1.0000   1.0000   1.0000   1.0000   1.0000
     1.0000   1.0000   1.0000   1.0000   1.0000   1.0000   1.0000   1.0000
     1.0000   1.0256   1.0156   0.9107   0.8067   0.6680   0.4471   0.0264
     0.0000   0.0000

          k = 0.0000 0.2500-0.4977 ( 24232 PWs)   bands (ev):

   -96.8774 -60.4037 -60.4037 -60.4036 -20.1018 -20.0952 -20.0949 -17.8441
    -9.2353  -9.2351  -9.2347  -9.2346  -9.2346  -5.6737  -5.6272  -5.6039
    -5.3652  -5.3221  -5.3041  -5.3000  -5.2979  -5.2963  -5.2910  -5.2772
    -5.2311  -5.1831

     occupation numbers 
     1.0000   1.0000   1.0000   1.0000   1.0000   1.0000   1.0000   1.0000
     1.0000   1.0000   1.0000   1.0000   1.0000   1.0000   1.0000   1.0000
     1.0000   1.0168   1.0350   0.9086   0.8139   0.7318   0.4433   0.0346
     0.0000   0.0000

          k = 0.0000 0.3750 0.0000 ( 24224 PWs)   bands (ev):

   -96.8773 -60.4037 -60.4037 -60.4036 -20.1019 -20.0951 -20.0950 -17.8440
    -9.2353  -9.2352  -9.2347  -9.2346  -9.2346  -5.7086  -5.6752  -5.5828
    -5.3524  -5.3065  -5.2997  -5.2992  -5.2977  -5.2968  -5.2944  -5.2336
    -5.2299  -5.1875

     occupation numbers 
     1.0000   1.0000   1.0000   1.0000   1.0000   1.0000   1.0000   1.0000
     1.0000   1.0000   1.0000   1.0000   1.0000   1.0000   1.0000   1.0000
     1.0000   1.0701   0.8938   0.8736   0.8061   0.7581   0.6304   0.0000
     0.0000   0.0000

          k = 0.0000 0.3750 0.1244 ( 24255 PWs)   bands (ev):

   -96.8774 -60.4037 -60.4037 -60.4036 -20.1019 -20.0951 -20.0950 -17.8440
    -9.2353  -9.2352  -9.2347  -9.2346  -9.2346  -5.6968  -5.6749  -5.5821
    -5.3523  -5.3101  -5.2999  -5.2997  -5.2978  -5.2965  -5.2927  -5.2466
    -5.2302  -5.1867

     occupation numbers 
     1.0000   1.0000   1.0000   1.0000   1.0000   1.0000   1.0000   1.0000
     1.0000   1.0000   1.0000   1.0000   1.0000   1.0000   1.0000   1.0000
     1.0000   1.0828   0.9047   0.8945   0.8088   0.7430   0.5328   0.0000
     0.0000   0.0000

          k = 0.0000 0.3750 0.2489 ( 24232 PWs)   bands (ev):

   -96.8774 -60.4037 -60.4037 -60.4036 -20.1019 -20.0951 -20.0950 -17.8441
    -9.2353  -9.2351  -9.2347  -9.2346  -9.2346  -5.6740  -5.6649  -5.5806
    -5.3522  -5.3177  -5.3055  -5.2997  -5.2979  -5.2951  -5.2910  -5.2765
    -5.2310  -5.1847

     occupation numbers 
     1.0000   1.0000   1.0000   1.0000   1.0000   1.0000   1.0000   1.0000
     1.0000   1.0000   1.0000   1.0000   1.0000   1.0000   1.0000   1.0000
     1.0000   1.0393   1.0580   0.8969   0.8148   0.6690   0.4455   0.0293
     0.0000   0.0000

          k = 0.0000 0.3750 0.3733 ( 24232 PWs)   bands (ev):

   -96.8774 -60.4037 -60.4037 -60.4036 -20.1018 -20.0951 -20.0950 -17.8441
    -9.2353  -9.2351  -9.2347  -9.2346  -9.2346  -5.6732  -5.6250  -5.5789
    -5.3556  -5.3378  -5.3180  -5.2998  -5.2980  -5.2936  -5.2926  -5.2885
    -5.2317  -5.1827

     occupation numbers 
     1.0000   1.0000   1.0000   1.0000   1.0000   1.0000   1.0000   1.0000
     1.0000   1.0000   1.0000   1.0000   1.0000   1.0000   1.0000   1.0000
     1.0000   1.0001   1.0375   0.9008   0.8201   0.5860   0.5323   0.3222
     0.0000   0.0000

          k = 0.0000 0.3750-0.4977 ( 24252 PWs)   bands (ev):

   -96.8774 -60.4037 -60.4037 -60.4036 -20.1018 -20.0951 -20.0950 -17.8441
    -9.2353  -9.2351  -9.2347  -9.2346  -9.2346  -5.6728  -5.6044  -5.5780
    -5.3679  -5.3458  -5.3208  -5.2999  -5.2981  -5.2944  -5.2920  -5.2895
    -5.2320  -5.1819

     occupation numbers 
     1.0000   1.0000   1.0000   1.0000   1.0000   1.0000   1.0000   1.0000
     1.0000   1.0000   1.0000   1.0000   1.0000   1.0000   1.0000   1.0000
     1.0000   1.0000   1.0220   0.9028   0.8219   0.6274   0.4951   0.3691
     0.0000   0.0000

          k = 0.0000-0.5000 0.0000 ( 24192 PWs)   bands (ev):

   -96.8773 -60.4037 -60.4037 -60.4036 -20.1019 -20.0951 -20.0950 -17.8440
    -9.2353  -9.2352  -9.2347  -9.2346  -9.2346  -5.7083  -5.6749  -5.5563
    -5.3778  -5.3105  -5.2991  -5.2991  -5.2983  -5.2969  -5.2961  -5.2340
    -5.2302  -5.1842

     occupation numbers 
     1.0000   1.0000   1.0000   1.0000   1.0000   1.0000   1.0000   1.0000
     1.0000   1.0000   1.0000   1.0000   1.0000   1.0000   1.0000   1.0000
     1.0000   1.0818   0.8701   0.8699   0.8340   0.7616   0.7220   0.0000
     0.0000   0.0000

          k = 0.0000-0.5000 0.1244 ( 24240 PWs)   bands (ev):

   -96.8774 -60.4037 -60.4037 -60.4036 -20.1019 -20.0951 -20.0950 -17.8440
    -9.2353  -9.2352  -9.2347  -9.2346  -9.2346  -5.6965  -5.6745  -5.5555
    -5.3779  -5.3134  -5.3001  -5.2992  -5.2983  -5.2973  -5.2935  -5.2472
    -5.2306  -5.1838

     occupation numbers 
     1.0000   1.0000   1.0000   1.0000   1.0000   1.0000   1.0000   1.0000
     1.0000   1.0000   1.0000   1.0000   1.0000   1.0000   1.0000   1.0000
     1.0000   1.0681   0.9108   0.8749   0.8333   0.7845   0.5785   0.0000
     0.0000   0.0000

          k = 0.0000-0.5000 0.2489 ( 24212 PWs)   bands (ev):

   -96.8773 -60.4037 -60.4037 -60.4036 -20.1019 -20.0951 -20.0950 -17.8441
    -9.2353  -9.2351  -9.2347  -9.2346  -9.2346  -5.6737  -5.6645  -5.5536
    -5.3785  -5.3190  -5.3070  -5.2994  -5.2982  -5.2961  -5.2908  -5.2777
    -5.2313  -5.1829

     occupation numbers 
     1.0000   1.0000   1.0000   1.0000   1.0000   1.0000   1.0000   1.0000
     1.0000   1.0000   1.0000   1.0000   1.0000   1.0000   1.0000   1.0000
     1.0000   1.0314   1.0742   0.8849   0.8296   0.7228   0.4312   0.0400
     0.0000   0.0000

          k = 0.0000-0.5000 0.3733 ( 24230 PWs)   bands (ev):

   -96.8774 -60.4037 -60.4037 -60.4036 -20.1018 -20.0951 -20.0950 -17.8441
    -9.2353  -9.2351  -9.2347  -9.2346  -9.2346  -5.6728  -5.6243  -5.5517
    -5.3805  -5.3370  -5.3237  -5.2997  -5.2982  -5.2944  -5.2917  -5.2895
    -5.2321  -5.1818

     occupation numbers 
     1.0000   1.0000   1.0000   1.0000   1.0000   1.0000   1.0000   1.0000
     1.0000   1.0000   1.0000   1.0000   1.0000   1.0000   1.0000   1.0000
     1.0000   1.0002   1.0117   0.8954   0.8264   0.6296   0.4797   0.3686
     0.0000   0.0000

          k = 0.0000-0.5000-0.4977 ( 24268 PWs)   bands (ev):

   -96.8774 -60.4037 -60.4037 -60.4036 -20.1018 -20.0951 -20.0950 -17.8441
    -9.2353  -9.2351  -9.2347  -9.2346  -9.2346  -5.6724  -5.6034  -5.5509
    -5.3842  -5.3551  -5.3255  -5.2998  -5.2981  -5.2935  -5.2934  -5.2893
    -5.2324  -5.1814

     occupation numbers 
     1.0000   1.0000   1.0000   1.0000   1.0000   1.0000   1.0000   1.0000
     1.0000   1.0000   1.0000   1.0000   1.0000   1.0000   1.0000   1.0000
     1.0000   1.0000   1.0074   0.9001   0.8255   0.5820   0.5721   0.3593
     0.0000   0.0000

          k = 0.1250 0.1250 0.0000 ( 24219 PWs)   bands (ev):

   -96.8773 -60.4037 -60.4037 -60.4036 -20.1019 -20.0952 -20.0949 -17.8439
    -9.2353  -9.2352  -9.2347  -9.2346  -9.2346  -5.7097  -5.6642  -5.6639
    -5.3085  -5.3016  -5.3016  -5.2974  -5.2969  -5.2955  -5.2449  -5.2411
    -5.2310  -5.2019

     occupation numbers 
     1.0000   1.0000   1.0000   1.0000   1.0000   1.0000   1.0000   1.0000
     1.0000   1.0000   1.0000   1.0000   1.0000   1.0000   1.0000   1.0000
     1.0823   0.9686   0.9669   0.7895   0.7643   0.6912   0.0000   0.0000
     0.0000   0.0000

          k = 0.1250 0.1250 0.1244 ( 24242 PWs)   bands (ev):

   -96.8774 -60.4037 -60.4037 -60.4036 -20.1019 -20.0952 -20.0949 -17.8440
    -9.2353  -9.2352  -9.2347  -9.2346  -9.2346  -5.6981  -5.6637  -5.6635
    -5.3115  -5.3020  -5.3019  -5.2974  -5.2970  -5.2953  -5.2498  -5.2415
    -5.2392  -5.1991

     occupation numbers 
     1.0000   1.0000   1.0000   1.0000   1.0000   1.0000   1.0000   1.0000
     1.0000   1.0000   1.0000   1.0000   1.0000   1.0000   1.0000   1.0000
     1.0785   0.9793   0.9782   0.7893   0.7698   0.6769   0.0000   0.0000
     0.0000   0.0000

          k = 0.1250 0.1250 0.2489 ( 24238 PWs)   bands (ev):

   -96.8774 -60.4037 -60.4037 -60.4036 -20.1019 -20.0952 -20.0949 -17.8440
    -9.2353  -9.2352  -9.2347  -9.2346  -9.2346  -5.6687  -5.6626  -5.6604
    -5.3212  -5.3034  -5.3026  -5.2981  -5.2971  -5.2948  -5.2771  -5.2432
    -5.2424  -5.1926

     occupation numbers 
     1.0000   1.0000   1.0000   1.0000   1.0000   1.0000   1.0000   1.0000
     1.0000   1.0000   1.0000   1.0000   1.0000   1.0000   1.0000   1.0000
     1.0206   1.0178   0.9985   0.8261   0.7735   0.6517   0.0337   0.0000
     0.0000   0.0000

          k = 0.1250 0.1250 0.3733 ( 24229 PWs)   bands (ev):

   -96.8774 -60.4037 -60.4037 -60.4036 -20.1018 -20.0952 -20.0949 -17.8440
    -9.2353  -9.2351  -9.2347  -9.2346  -9.2346  -5.6627  -5.6617  -5.6257
    -5.3466  -5.3101  -5.3033  -5.2998  -5.2971  -5.2945  -5.2924  -5.2445
    -5.2433  -5.1866

     occupation numbers 
     1.0000   1.0000   1.0000   1.0000   1.0000   1.0000   1.0000   1.0000
     1.0000   1.0000   1.0000   1.0000   1.0000   1.0000   1.0000   1.0000
     1.0000   1.0826   1.0160   0.9019   0.7723   0.6326   0.5205   0.0000
     0.0000   0.0000

          k = 0.1250 0.1250-0.4977 ( 24236 PWs)   bands (ev):

   -96.8774 -60.4037 -60.4037 -60.4036 -20.1018 -20.0952 -20.0949 -17.8440
    -9.2353  -9.2351  -9.2347  -9.2346  -9.2346  -5.6622  -5.6613  -5.6052
    -5.3659  -5.3136  -5.3036  -5.3002  -5.2970  -5.2944  -5.2939  -5.2450
    -5.2437  -5.1841

     occupation numbers 
     1.0000   1.0000   1.0000   1.0000   1.0000   1.0000   1.0000   1.0000
     1.0000   1.0000   1.0000   1.0000   1.0000   1.0000   1.0000   1.0000
     1.0000   1.0668   1.0224   0.9165   0.7710   0.6267   0.5993   0.0000
     0.0000   0.0000

          k = 0.1250 0.2500 0.0000 ( 24237 PWs)   bands (ev):

   -96.8774 -60.4037 -60.4037 -60.4036 -20.1019 -20.0952 -20.0949 -17.8440
    -9.2353  -9.2352  -9.2347  -9.2346  -9.2346  -5.7092  -5.6631  -5.6287
    -5.3198  -5.3034  -5.3012  -5.2985  -5.2975  -5.2950  -5.2761  -5.2438
    -5.2321  -5.1940

     occupation numbers 
[...]

   -96.8009 -60.3272 -60.3272 -60.3267 -20.1544 -20.0168 -20.0167 -18.0174
    -9.1601  -9.1596  -9.1593  -9.1590  -9.1590  -6.1912  -5.6853  -5.6612
    -5.2969  -5.2765  -5.2554  -5.2386  -5.2331  -5.2299  -5.2248  -5.2186
    -5.2011  -5.1291

     occupation numbers 
     1.0000   1.0000   1.0000   1.0000   1.0000   1.0000   1.0000   1.0000
     1.0000   1.0000   1.0000   1.0000   1.0000   1.0000   1.0000   1.0000
     1.0000   1.0000   1.0184   1.0498   0.8825   0.7273   0.4501   0.1826
     0.0018   0.0000

          k = 0.2500-0.5000 0.0000 ( 24216 PWs)   bands (ev):

   -96.8009 -60.3272 -60.3272 -60.3267 -20.1544 -20.0167 -20.0167 -18.0173
    -9.1601  -9.1596  -9.1594  -9.1590  -9.1590  -6.2251  -5.6876  -5.6527
    -5.2960  -5.2732  -5.2548  -5.2430  -5.2330  -5.2277  -5.2227  -5.2117
    -5.1762  -5.1247

     occupation numbers 
     1.0000   1.0000   1.0000   1.0000   1.0000   1.0000   1.0000   1.0000
     1.0000   1.0000   1.0000   1.0000   1.0000   1.0000   1.0000   1.0000
     1.0000   1.0001   1.0207   1.0833   0.8792   0.6072   0.3460   0.0425
     0.0000   0.0000

          k = 0.2500-0.5000 0.1244 ( 24232 PWs)   bands (ev):

   -96.8009 -60.3272 -60.3272 -60.3267 -20.1544 -20.0167 -20.0167 -18.0173
    -9.1601  -9.1596  -9.1594  -9.1590  -9.1590  -6.2203  -5.6872  -5.6523
    -5.2967  -5.2737  -5.2539  -5.2430  -5.2331  -5.2280  -5.2227  -5.2129
    -5.1813  -5.1254

     occupation numbers 
     1.0000   1.0000   1.0000   1.0000   1.0000   1.0000   1.0000   1.0000
     1.0000   1.0000   1.0000   1.0000   1.0000   1.0000   1.0000   1.0000
     1.0000   1.0000   1.0248   1.0833   0.8820   0.6225   0.3460   0.0572
     0.0000   0.0000

          k = 0.2500-0.5000 0.2489 ( 24260 PWs)   bands (ev):

   -96.8009 -60.3272 -60.3272 -60.3267 -20.1544 -20.0167 -20.0167 -18.0173
    -9.1601  -9.1596  -9.1594  -9.1590  -9.1590  -6.2086  -5.6863  -5.6513
    -5.2989  -5.2749  -5.2525  -5.2419  -5.2339  -5.2288  -5.2227  -5.2169
    -5.1919  -5.1273

     occupation numbers 
     1.0000   1.0000   1.0000   1.0000   1.0000   1.0000   1.0000   1.0000
     1.0000   1.0000   1.0000   1.0000   1.0000   1.0000   1.0000   1.0000
     1.0000   1.0000   1.0325   1.0814   0.9183   0.6698   0.3470   0.1332
     0.0000   0.0000

          k = 0.2500-0.5000 0.3733 ( 24256 PWs)   bands (ev):

   -96.8009 -60.3272 -60.3272 -60.3267 -20.1544 -20.0167 -20.0167 -18.0174
    -9.1601  -9.1596  -9.1594  -9.1590  -9.1590  -6.1964  -5.6853  -5.6503
    -5.3020  -5.2761  -5.2522  -5.2389  -5.2371  -5.2303  -5.2228  -5.2215
    -5.1990  -5.1292

     occupation numbers 
     1.0000   1.0000   1.0000   1.0000   1.0000   1.0000   1.0000   1.0000
     1.0000   1.0000   1.0000   1.0000   1.0000   1.0000   1.0000   1.0000
     1.0000   1.0000   1.0341   1.0545   1.0188   0.7470   0.3489   0.2916
     0.0008   0.0000

          k = 0.2500-0.5000-0.4977 ( 24280 PWs)   bands (ev):

   -96.8009 -60.3272 -60.3272 -60.3267 -20.1544 -20.0167 -20.0167 -18.0174
    -9.1601  -9.1596  -9.1593  -9.1590  -9.1590  -6.1912  -5.6850  -5.6498
    -5.3037  -5.2766  -5.2524  -5.2396  -5.2368  -5.2315  -5.2230  -5.2228
    -5.2011  -5.1301

     occupation numbers 
     1.0000   1.0000   1.0000   1.0000   1.0000   1.0000   1.0000   1.0000
     1.0000   1.0000   1.0000   1.0000   1.0000   1.0000   1.0000   1.0000
     1.0000   1.0000   1.0332   1.0634   1.0111   0.8079   0.3575   0.3501
     0.0018   0.0000

          k = 0.3750 0.3750 0.0000 ( 24220 PWs)   bands (ev):

   -96.8009 -60.3272 -60.3272 -60.3267 -20.1544 -20.0167 -20.0167 -18.0173
    -9.1601  -9.1596  -9.1594  -9.1590  -9.1590  -6.2251  -5.6633  -5.6627
    -5.2950  -5.2780  -5.2573  -5.2386  -5.2368  -5.2272  -5.2251  -5.2202
    -5.1771  -5.1240

     occupation numbers 
     1.0000   1.0000   1.0000   1.0000   1.0000   1.0000   1.0000   1.0000
     1.0000   1.0000   1.0000   1.0000   1.0000   1.0000   1.0000   1.0000
     1.0000   1.0000   1.0119   1.0496   1.0112   0.5816   0.4674   0.2398
     0.0000   0.0000

          k = 0.3750 0.3750 0.1244 ( 24217 PWs)   bands (ev):

   -96.8009 -60.3272 -60.3272 -60.3267 -20.1544 -20.0167 -20.0167 -18.0173
    -9.1601  -9.1596  -9.1594  -9.1590  -9.1590  -6.2204  -5.6629  -5.6624
    -5.2959  -5.2783  -5.2555  -5.2388  -5.2366  -5.2282  -5.2255  -5.2205
    -5.1827  -5.1253

     occupation numbers 
     1.0000   1.0000   1.0000   1.0000   1.0000   1.0000   1.0000   1.0000
     1.0000   1.0000   1.0000   1.0000   1.0000   1.0000   1.0000   1.0000
     1.0000   1.0000   1.0178   1.0524   1.0048   0.6349   0.4846   0.2493
     0.0000   0.0000

          k = 0.3750 0.3750 0.2489 ( 24251 PWs)   bands (ev):

   -96.8009 -60.3272 -60.3272 -60.3267 -20.1544 -20.0167 -20.0167 -18.0173
    -9.1601  -9.1596  -9.1594  -9.1590  -9.1590  -6.2086  -5.6620  -5.6614
    -5.2986  -5.2789  -5.2514  -5.2395  -5.2358  -5.2306  -5.2264  -5.2210
    -5.1956  -5.1285

     occupation numbers 
     1.0000   1.0000   1.0000   1.0000   1.0000   1.0000   1.0000   1.0000
     1.0000   1.0000   1.0000   1.0000   1.0000   1.0000   1.0000   1.0000
     1.0000   1.0000   1.0388   1.0631   0.9848   0.7625   0.5386   0.2689
     0.0002   0.0000

          k = 0.3750 0.3750 0.3733 ( 24295 PWs)   bands (ev):

   -96.8009 -60.3272 -60.3272 -60.3267 -20.1544 -20.0167 -20.0167 -18.0174
    -9.1601  -9.1596  -9.1593  -9.1590  -9.1590  -6.1964  -5.6610  -5.6605
    -5.3022  -5.2795  -5.2490  -5.2401  -5.2349  -5.2323  -5.2278  -5.2213
    -5.2069  -5.1319

     occupation numbers 
     1.0000   1.0000   1.0000   1.0000   1.0000   1.0000   1.0000   1.0000
     1.0000   1.0000   1.0000   1.0000   1.0000   1.0000   1.0000   1.0000
     1.0000   1.0000   1.0553   1.0696   0.9530   0.8469   0.6155   0.2840
     0.0115   0.0000

          k = 0.3750 0.3750-0.4977 ( 24280 PWs)   bands (ev):

   -96.8009 -60.3272 -60.3272 -60.3267 -20.1544 -20.0167 -20.0167 -18.0174
    -9.1601  -9.1596  -9.1593  -9.1590  -9.1590  -6.1912  -5.6606  -5.6601
    -5.3040  -5.2798  -5.2495  -5.2394  -5.2343  -5.2325  -5.2286  -5.2214
    -5.2110  -5.1334

     occupation numbers 
     1.0000   1.0000   1.0000   1.0000   1.0000   1.0000   1.0000   1.0000
     1.0000   1.0000   1.0000   1.0000   1.0000   1.0000   1.0000   1.0000
     1.0000   1.0000   1.0513   1.0609   0.9322   0.8585   0.6573   0.2888
     0.0360   0.0000

          k = 0.3750-0.5000 0.0000 ( 24230 PWs)   bands (ev):

   -96.8009 -60.3272 -60.3272 -60.3267 -20.1544 -20.0167 -20.0167 -18.0173
    -9.1601  -9.1596  -9.1594  -9.1590  -9.1590  -6.2251  -5.6626  -5.6516
    -5.3005  -5.2797  -5.2595  -5.2419  -5.2371  -5.2268  -5.2250  -5.2216
    -5.1777  -5.1230

     occupation numbers 
     1.0000   1.0000   1.0000   1.0000   1.0000   1.0000   1.0000   1.0000
     1.0000   1.0000   1.0000   1.0000   1.0000   1.0000   1.0000   1.0000
     1.0000   1.0000   1.0069   1.0812   1.0195   0.5592   0.4625   0.2933
     0.0000   0.0000

          k = 0.3750-0.5000 0.1244 ( 24248 PWs)   bands (ev):

   -96.8009 -60.3272 -60.3272 -60.3267 -20.1544 -20.0167 -20.0167 -18.0173
    -9.1601  -9.1596  -9.1594  -9.1590  -9.1590  -6.2204  -5.6622  -5.6512
    -5.3014  -5.2798  -5.2574  -5.2421  -5.2370  -5.2271  -5.2259  -5.2216
    -5.1836  -5.1246

     occupation numbers 
     1.0000   1.0000   1.0000   1.0000   1.0000   1.0000   1.0000   1.0000
     1.0000   1.0000   1.0000   1.0000   1.0000   1.0000   1.0000   1.0000
     1.0000   1.0000   1.0116   1.0820   1.0160   0.5776   0.5094   0.2943
     0.0000   0.0000

          k = 0.3750-0.5000 0.2489 ( 24284 PWs)   bands (ev):

   -96.8009 -60.3272 -60.3272 -60.3267 -20.1544 -20.0167 -20.0167 -18.0174
    -9.1601  -9.1596  -9.1594  -9.1590  -9.1590  -6.2086  -5.6613  -5.6503
    -5.3041  -5.2802  -5.2524  -5.2425  -5.2367  -5.2283  -5.2280  -5.2216
    -5.1971  -5.1287

     occupation numbers 
     1.0000   1.0000   1.0000   1.0000   1.0000   1.0000   1.0000   1.0000
     1.0000   1.0000   1.0000   1.0000   1.0000   1.0000   1.0000   1.0000
     1.0000   1.0000   1.0331   1.0828   1.0100   0.6423   0.6267   0.2967
     0.0004   0.0000

          k = 0.3750-0.5000 0.3733 ( 24294 PWs)   bands (ev):

   -96.8009 -60.3272 -60.3272 -60.3267 -20.1544 -20.0167 -20.0167 -18.0174
    -9.1601  -9.1596  -9.1593  -9.1590  -9.1590  -6.1964  -5.6604  -5.6493
    -5.3077  -5.2806  -5.2479  -5.2416  -5.2374  -5.2309  -5.2292  -5.2217
    -5.2090  -5.1333

     occupation numbers 
     1.0000   1.0000   1.0000   1.0000   1.0000   1.0000   1.0000   1.0000
     1.0000   1.0000   1.0000   1.0000   1.0000   1.0000   1.0000   1.0000
     1.0000   1.0000   1.0624   1.0801   1.0251   0.7801   0.6887   0.2985
     0.0215   0.0000

          k = 0.3750-0.5000-0.4977 ( 24292 PWs)   bands (ev):

   -96.8009 -60.3272 -60.3272 -60.3267 -20.1544 -20.0167 -20.0167 -18.0174
    -9.1601  -9.1596  -9.1593  -9.1590  -9.1590  -6.1912  -5.6600  -5.6489
    -5.3096  -5.2808  -5.2469  -5.2401  -5.2385  -5.2316  -5.2298  -5.2217
    -5.2133  -5.1353

     occupation numbers 
     1.0000   1.0000   1.0000   1.0000   1.0000   1.0000   1.0000   1.0000
     1.0000   1.0000   1.0000   1.0000   1.0000   1.0000   1.0000   1.0000
     1.0000   1.0000   1.0690   1.0689   1.0470   0.8146   0.7248   0.2992
     0.0618   0.0000

          k =-0.5000-0.5000 0.0000 ( 24204 PWs)   bands (ev):

   -96.8009 -60.3272 -60.3272 -60.3267 -20.1544 -20.0167 -20.0167 -18.0173
    -9.1600  -9.1596  -9.1594  -9.1590  -9.1590  -6.2251  -5.6511  -5.6511
    -5.3048  -5.2826  -5.2613  -5.2412  -5.2412  -5.2264  -5.2264  -5.2214
    -5.1784  -5.1222

     occupation numbers 
     1.0000   1.0000   1.0000   1.0000   1.0000   1.0000   1.0000   1.0000
     1.0000   1.0000   1.0000   1.0000   1.0000   1.0000   1.0000   1.0000
     1.0000   1.0000   1.0042   1.0783   1.0783   0.5374   0.5374   0.2849
     0.0000   0.0000

          k =-0.5000-0.5000 0.1244 ( 24248 PWs)   bands (ev):

   -96.8009 -60.3272 -60.3272 -60.3267 -20.1544 -20.0167 -20.0167 -18.0173
    -9.1600  -9.1596  -9.1594  -9.1590  -9.1590  -6.2204  -5.6508  -5.6508
    -5.3058  -5.2826  -5.2589  -5.2415  -5.2415  -5.2268  -5.2268  -5.2214
    -5.1846  -5.1242

     occupation numbers 
     1.0000   1.0000   1.0000   1.0000   1.0000   1.0000   1.0000   1.0000
     1.0000   1.0000   1.0000   1.0000   1.0000   1.0000   1.0000   1.0000
     1.0000   1.0000   1.0080   1.0795   1.0795   0.5580   0.5580   0.2853
     0.0000   0.0000

          k =-0.5000-0.5000 0.2489 ( 24296 PWs)   bands (ev):

   -96.8009 -60.3272 -60.3272 -60.3267 -20.1544 -20.0167 -20.0167 -18.0174
    -9.1600  -9.1596  -9.1594  -9.1590  -9.1590  -6.2086  -5.6499  -5.6499
    -5.3086  -5.2826  -5.2528  -5.2420  -5.2420  -5.2277  -5.2277  -5.2214
    -5.1991  -5.1293

     occupation numbers 
     1.0000   1.0000   1.0000   1.0000   1.0000   1.0000   1.0000   1.0000
     1.0000   1.0000   1.0000   1.0000   1.0000   1.0000   1.0000   1.0000
     1.0000   1.0000   1.0305   1.0817   1.0817   0.6065   0.6065   0.2855
     0.0009   0.0000

          k =-0.5000-0.5000 0.3733 ( 24308 PWs)   bands (ev):

   -96.8009 -60.3272 -60.3272 -60.3267 -20.1544 -20.0167 -20.0167 -18.0174
    -9.1600  -9.1596  -9.1593  -9.1590  -9.1590  -6.1964  -5.6489  -5.6489
    -5.3124  -5.2826  -5.2462  -5.2426  -5.2426  -5.2285  -5.2285  -5.2214
    -5.2131  -5.1350

     occupation numbers 
     1.0000   1.0000   1.0000   1.0000   1.0000   1.0000   1.0000   1.0000
     1.0000   1.0000   1.0000   1.0000   1.0000   1.0000   1.0000   1.0000
     1.0000   1.0000   1.0732   1.0830   1.0830   0.6524   0.6524   0.2853
     0.0597   0.0000

          k =-0.5000-0.5000-0.4977 ( 24320 PWs)   bands (ev):

   -96.8009 -60.3272 -60.3272 -60.3267 -20.1544 -20.0167 -20.0167 -18.0174
    -9.1600  -9.1596  -9.1593  -9.1590  -9.1590  -6.1912  -5.6485  -5.6485
    -5.3143  -5.2826  -5.2433  -5.2428  -5.2428  -5.2288  -5.2288  -5.2214
    -5.2187  -5.1376

     occupation numbers 
     1.0000   1.0000   1.0000   1.0000   1.0000   1.0000   1.0000   1.0000
     1.0000   1.0000   1.0000   1.0000   1.0000   1.0000   1.0000   1.0000
     1.0000   1.0000   1.0833   1.0832   1.0832   0.6709   0.6709   0.2852
     0.1839   0.0000

     the Fermi energy is    -5.2238 ev

!    total energy              =    -437.72714712 Ry
     Harris-Foulkes estimate   =    -437.72714712 Ry
     estimated scf accuracy    <          1.6E-10 Ry

     The total energy is the sum of the following terms:

     one-electron contribution =    -451.07103325 Ry
     hartree contribution      =     227.28300797 Ry
     xc contribution           =     -75.30965971 Ry
     ewald contribution        =    -138.62921771 Ry
     smearing contrib. (-TS)   =      -0.00024443 Ry

     convergence has been achieved in  28 iterations

     negative rho (up, down):  1.353E-04 0.000E+00

     Forces acting on atoms (cartesian axes, Ry/au):

     atom    1 type  1   force =     0.00000000    0.00000000   -0.00035620
     atom    2 type  2   force =     0.00000000    0.00000000   -0.04157544
     atom    3 type  3   force =     0.00000000    0.00000000    0.04169647
     atom    4 type  3   force =     0.00000000    0.00000000    0.00011758
     atom    5 type  3   force =     0.00000000    0.00000000    0.00011758
     The non-local contrib.  to forces
     atom    1 type  1   force =     0.00000000    0.00000000    0.00274693
     atom    2 type  2   force =     0.00000000    0.00000000    0.02781801
     atom    3 type  3   force =     0.00000000    0.00000000    0.14983545
     atom    4 type  3   force =     0.00000000    0.00000000    0.00635403
     atom    5 type  3   force =     0.00000000    0.00000000    0.00635403
     The ionic contribution  to forces
     atom    1 type  1   force =    -0.00000000   -0.00000000   -0.25488717
     atom    2 type  2   force =     0.00000000    0.00000000    1.29923462
     atom    3 type  3   force =     0.00000000    0.00000000   -1.53816711
     atom    4 type  3   force =     0.00000000   -0.00000000    0.24690983
     atom    5 type  3   force =    -0.00000000    0.00000000    0.24690983
     The local contribution  to forces
     atom    1 type  1   force =     0.00000000    0.00000000    0.25179426
     atom    2 type  2   force =     0.00000000    0.00000000   -1.37658392
     atom    3 type  3   force =     0.00000000    0.00000000    1.43151796
     atom    4 type  3   force =     0.00000000    0.00000000   -0.25312645
     atom    5 type  3   force =     0.00000000    0.00000000   -0.25312645
     The core correction contribution to forces
     atom    1 type  1   force =     0.00000000    0.00000000   -0.00002725
     atom    2 type  2   force =     0.00000000    0.00000000    0.00794301
     atom    3 type  3   force =     0.00000000    0.00000000   -0.00150651
     atom    4 type  3   force =     0.00000000   -0.00000000   -0.00003600
     atom    5 type  3   force =    -0.00000000    0.00000000   -0.00003600
     The Hubbard contrib.    to forces
     atom    1 type  1   force =     0.00000000    0.00000000    0.00000000
     atom    2 type  2   force =     0.00000000    0.00000000    0.00000000
     atom    3 type  3   force =     0.00000000    0.00000000    0.00000000
     atom    4 type  3   force =     0.00000000    0.00000000    0.00000000
     atom    5 type  3   force =     0.00000000    0.00000000    0.00000000
     The SCF correction term to forces
     atom    1 type  1   force =     0.00000000   -0.00000000    0.00000061
     atom    2 type  2   force =    -0.00000000    0.00000000   -0.00000359
     atom    3 type  3   force =     0.00000000    0.00000000    0.00000025
     atom    4 type  3   force =     0.00000000   -0.00000000   -0.00000026
     atom    5 type  3   force =    -0.00000000   -0.00000000   -0.00000026

     Total force =     0.058884     Total SCF correction =     0.000004

     number of scf cycles    =  29
     number of bfgs steps    =  28

     energy   old            =    -437.7248168383 Ry
     energy   new            =    -437.7271471201 Ry

     CASE: energy  _new < energy  _old


     WARNING: bfgs curvature condition failed, Theta= 0.454
     new trust radius        =       0.0464344735 bohr
     new conv_thr            =       0.0000000023 Ry


ATOMIC_POSITIONS (crystal)
Ag       0.000000000   0.000000000  -0.002444301
Br       0.500000000   0.500000000   0.436313218
O        0.500000000   0.500000000   0.065329069
O        0.500000000   0.000000000   0.514401007
O        0.000000000   0.500000000   0.514401007


     Check: negative starting charge=   -0.000356
     NEW-OLD atomic charge density approx. for the potential
     Check: negative starting charge=   -0.000359

     negative rho (up, down):  1.359E-04 0.000E+00
 
     init_run     :      2.83s CPU      3.01s WALL (       1 calls)
     electrons    :   5365.89s CPU   5580.08s WALL (      50 calls)
     update_pot   :     24.66s CPU     24.80s WALL (      50 calls)
     forces       :     47.26s CPU     48.21s WALL (      50 calls)

     Called by init_run:
     wfcinit      :      2.08s CPU      2.15s WALL (       1 calls)
     wfcinit:atom :      0.04s CPU      0.04s WALL (      75 calls)
     wfcinit:wfcr :      1.87s CPU      1.92s WALL (      75 calls)
     potinit      :      0.14s CPU      0.14s WALL (       1 calls)
     hinit0       :      0.42s CPU      0.49s WALL (       1 calls)

     Called by electrons:
     c_bands      :   4426.11s CPU   4585.96s WALL (     970 calls)
     sum_band     :    852.97s CPU    888.48s WALL (     970 calls)
     v_of_rho     :     12.29s CPU     12.64s WALL (    1021 calls)
     v_h          :      0.85s CPU      0.86s WALL (    1021 calls)
     v_xc         :     12.00s CPU     12.35s WALL (    1071 calls)
     newd         :     73.16s CPU     90.90s WALL (    1021 calls)
     mix_rho      :      4.95s CPU      4.99s WALL (     970 calls)

     Called by c_bands:
     init_us_2    :    136.12s CPU    138.36s WALL (  149325 calls)
     cegterg      :   3967.81s CPU   4123.86s WALL (   72750 calls)

     Called by sum_band:
     sum_band:bec :      2.43s CPU      2.47s WALL (   72750 calls)
     addusdens    :     74.78s CPU     94.41s WALL (     970 calls)

     Called by *egterg:
     h_psi        :   2806.70s CPU   2869.76s WALL (  169732 calls)
     s_psi        :    129.76s CPU    130.90s WALL (  169732 calls)
     g_psi        :     24.23s CPU     24.55s WALL (   96907 calls)
     cdiaghg      :    525.32s CPU    584.90s WALL (  165982 calls)
     cegterg:over :    167.44s CPU    196.93s WALL (   96907 calls)
     cegterg:upda :    106.41s CPU    107.50s WALL (   96907 calls)
     cegterg:last :     69.19s CPU     69.83s WALL (   72877 calls)
     cdiaghg:chol :     27.68s CPU     28.17s WALL (  165982 calls)
     cdiaghg:inve :     17.49s CPU     17.73s WALL (  165982 calls)
     cdiaghg:para :     26.87s CPU     27.24s WALL (  331964 calls)

     Called by h_psi:
     h_psi:pot    :   2785.34s CPU   2848.04s WALL (  169732 calls)
     h_psi:calbec :    142.35s CPU    144.92s WALL (  169732 calls)
     vloc_psi     :   2515.27s CPU   2574.33s WALL (  169732 calls)
     add_vuspsi   :    126.59s CPU    127.87s WALL (  169732 calls)

     General routines
     calbec       :    216.48s CPU    220.46s WALL (  257482 calls)
     fft          :     12.02s CPU     12.17s WALL (   11883 calls)
     ffts         :      0.71s CPU      0.71s WALL (     970 calls)
     fftw         :   2805.03s CPU   2869.67s WALL ( 9947090 calls)
     davcio       :      0.01s CPU      0.23s WALL (      75 calls)
 
     Parallel routines
     fft_scatt_xy :    291.70s CPU    298.62s WALL ( 9959943 calls)
     fft_scatt_yz :   1137.20s CPU   1167.56s WALL ( 9959943 calls)
 
     PWSCF        :     1h30m CPU       30h 1m WALL

      34h
 
   This run was terminated on:   3:39:37  21Mar2019            

=------------------------------------------------------------------------------=
   JOB DONE.
=------------------------------------------------------------------------------=
