
     Program PWSCF v.6.3MaX starts on 21Mar2019 at  5:55:14 

     This program is part of the open-source Quantum ESPRESSO suite
     for quantum simulation of materials; please cite
         "P. Giannozzi et al., J. Phys.:Condens. Matter 21 395502 (2009);
         "P. Giannozzi et al., J. Phys.:Condens. Matter 29 465901 (2017);
          URL http://www.quantum-espresso.org", 
     in publications or presentations arising from this work. More details at
     http://www.quantum-espresso.org/quote

     Parallel version (MPI & OpenMP), running on      20 processor cores
     Number of MPI processes:                20
     Threads/MPI process:                     1

     MPI processes distributed on     1 nodes
     R & G space division:  proc/nbgrp/npool/nimage =      20
     Reading input from /home/azadoks/dftman/projects/ABO3 Tetragonal/PBSJobs/KIO3160vcrelax_0c35cd7b036c/pwscf.in
Warning: card &CELL ignored
Warning: card / ignored

     Current dimensions of program PWSCF are:
     Max number of different atomic species (ntypx) = 10
     Max number of k-points (npk) =  40000
     Max angular momentum in pseudopotentials (lmaxx) =  3
     Message from routine iosys:
     minimal I/O required, wf_collect reset to FALSE

     Subspace diagonalization in iterative solution of the eigenvalue problem:
     one sub-group per band group will be used
     scalapack distributed-memory algorithm (size of sub-group:  3*  3 procs)

 
     Parallelization info
     --------------------
     sticks:   dense  smooth     PW     G-vecs:    dense   smooth      PW
     Min         208     208     56                10146    10146    1452
     Max         209     209     57                10150    10150    1455
     Sum        4165    4165   1137               202965   202965   29087
 


     bravais-lattice index     =            0
     lattice parameter (alat)  =      16.1698  a.u.
     unit-cell volume          =    4247.0472 (a.u.)^3
     number of atoms/cell      =            5
     number of atomic types    =            3
     number of electrons       =        34.00
     number of Kohn-Sham states=           21
     kinetic-energy cutoff     =      50.0000  Ry
     charge density cutoff     =     200.0000  Ry
     convergence threshold     =      1.0E-08
     mixing beta               =       0.7000
     number of iterations used =            8  plain     mixing
     Exchange-correlation      = SLA  PW   PBE  PBE ( 1  4  3  4 0 0)
     nstep                     =           50


     celldm(1)=  16.169820  celldm(2)=   0.000000  celldm(3)=   0.000000
     celldm(4)=   0.000000  celldm(5)=   0.000000  celldm(6)=   0.000000

     crystal axes: (cart. coord. in units of alat)
               a(1) = (   1.000000   0.000000   0.000000 )  
               a(2) = (   0.000000   1.000000   0.000000 )  
               a(3) = (   0.000000   0.000000   1.004550 )  

     reciprocal axes: (cart. coord. in units 2 pi/alat)
               b(1) = (  1.000000  0.000000  0.000000 )  
               b(2) = (  0.000000  1.000000  0.000000 )  
               b(3) = (  0.000000  0.000000  0.995471 )  


     PseudoPot. # 1 for I  read from file:
     /home/azadoks/.local/share/pseudo/GBRV_PBE_US/i_pbe_v1.uspp.F.UPF
     MD5 check sum: 51366c2fb896752a147e77acbb9f6bcb
     Pseudo is Ultrasoft + core correction, Zval =  7.0
     Generated by new atomic code, or converted to UPF format
     Using radial grid of  893 points,  6 beta functions with: 
                l(1) =   0
                l(2) =   0
                l(3) =   1
                l(4) =   1
                l(5) =   2
                l(6) =   2
     Q(r) pseudized with  8 coefficients,  rinner =    1.500   1.500   1.500
                                                       1.500   1.500

     PseudoPot. # 2 for K  read from file:
     /home/azadoks/.local/share/pseudo/GBRV_PBE_US/k_pbe_v1.4.uspp.F.UPF
     MD5 check sum: 1ceb858e892f5994eff9464b1c857b4b
     Pseudo is Ultrasoft + core correction, Zval =  9.0
     Generated by new atomic code, or converted to UPF format
     Using radial grid of  841 points,  6 beta functions with: 
                l(1) =   0
                l(2) =   0
                l(3) =   1
                l(4) =   1
                l(5) =   2
                l(6) =   2
     Q(r) pseudized with  6 coefficients,  rinner =    1.500   1.500   1.500
                                                       1.500   1.500

     PseudoPot. # 3 for O  read from file:
     /home/azadoks/.local/share/pseudo/GBRV_PBE_US/o_pbe_v1.2.uspp.F.UPF
     MD5 check sum: 734c27235a0248c51dbae37a1fbe46ec
     Pseudo is Ultrasoft + core correction, Zval =  6.0
     Generated by new atomic code, or converted to UPF format
     Using radial grid of  737 points,  5 beta functions with: 
                l(1) =   0
                l(2) =   0
                l(3) =   1
                l(4) =   1
                l(5) =   2
     Q(r) pseudized with  8 coefficients,  rinner =    0.900   0.900   0.900
                                                       0.900   0.900

     atomic species   valence    mass     pseudopotential
        I              7.00   126.90450     I ( 1.00)
        K              9.00    39.09830     K ( 1.00)
        O              6.00    15.99940     O ( 1.00)

      8 Sym. Ops. (no inversion) found


                                    s                        frac. trans.

      isym =  1     identity                                     

 cryst.   s( 1) = (     1          0          0      )
                  (     0          1          0      )
                  (     0          0          1      )

 cart.    s( 1) = (  1.0000000  0.0000000  0.0000000 )
                  (  0.0000000  1.0000000  0.0000000 )
                  (  0.0000000  0.0000000  1.0000000 )


      isym =  2     180 deg rotation - cart. axis [0,0,1]        

 cryst.   s( 2) = (    -1          0          0      )
                  (     0         -1          0      )
                  (     0          0          1      )

 cart.    s( 2) = ( -1.0000000  0.0000000  0.0000000 )
                  (  0.0000000 -1.0000000  0.0000000 )
                  (  0.0000000  0.0000000  1.0000000 )


      isym =  3      90 deg rotation - cart. axis [0,0,-1]       

 cryst.   s( 3) = (     0         -1          0      )
                  (     1          0          0      )
                  (     0          0          1      )

 cart.    s( 3) = (  0.0000000  1.0000000  0.0000000 )
                  ( -1.0000000  0.0000000  0.0000000 )
                  (  0.0000000  0.0000000  1.0000000 )


      isym =  4      90 deg rotation - cart. axis [0,0,1]        

 cryst.   s( 4) = (     0          1          0      )
                  (    -1          0          0      )
                  (     0          0          1      )

 cart.    s( 4) = (  0.0000000 -1.0000000  0.0000000 )
                  (  1.0000000  0.0000000  0.0000000 )
                  (  0.0000000  0.0000000  1.0000000 )


      isym =  5     inv. 180 deg rotation - cart. axis [0,1,0]   

 cryst.   s( 5) = (     1          0          0      )
                  (     0         -1          0      )
                  (     0          0          1      )

 cart.    s( 5) = (  1.0000000  0.0000000  0.0000000 )
                  (  0.0000000 -1.0000000  0.0000000 )
                  (  0.0000000  0.0000000  1.0000000 )


      isym =  6     inv. 180 deg rotation - cart. axis [1,0,0]   

 cryst.   s( 6) = (    -1          0          0      )
                  (     0          1          0      )
                  (     0          0          1      )

 cart.    s( 6) = ( -1.0000000  0.0000000  0.0000000 )
                  (  0.0000000  1.0000000  0.0000000 )
                  (  0.0000000  0.0000000  1.0000000 )


      isym =  7     inv. 180 deg rotation - cart. axis [1,1,0]   

 cryst.   s( 7) = (     0         -1          0      )
                  (    -1          0          0      )
                  (     0          0          1      )

 cart.    s( 7) = (  0.0000000 -1.0000000  0.0000000 )
                  ( -1.0000000  0.0000000  0.0000000 )
                  (  0.0000000  0.0000000  1.0000000 )


      isym =  8     inv. 180 deg rotation - cart. axis [1,-1,0]  

 cryst.   s( 8) = (     0          1          0      )
                  (     1          0          0      )
                  (     0          0          1      )

 cart.    s( 8) = (  0.0000000  1.0000000  0.0000000 )
                  (  1.0000000  0.0000000  0.0000000 )
                  (  0.0000000  0.0000000  1.0000000 )


   Cartesian axes

     site n.     atom                  positions (alat units)
         1           K   tau(   1) = (   0.0000000   0.0000000   0.0000000  )
         2           I   tau(   2) = (   0.5000000   0.5000000   0.4841931  )
         3           O   tau(   3) = (   0.5000000   0.5000000   0.0160728  )
         4           O   tau(   4) = (   0.5000000   0.0000000   0.5173433  )
         5           O   tau(   5) = (   0.0000000   0.5000000   0.5173433  )

   Crystallographic axes

     site n.     atom                  positions (cryst. coord.)
         1           K   tau(   1) = (  0.0000000  0.0000000  0.0000000  )
         2           I   tau(   2) = (  0.5000000  0.5000000  0.4820000  )
         3           O   tau(   3) = (  0.5000000  0.5000000  0.0160000  )
         4           O   tau(   4) = (  0.5000000  0.0000000  0.5150000  )
         5           O   tau(   5) = (  0.0000000  0.5000000  0.5150000  )

     number of k points=    75  Marzari-Vanderbilt smearing, width (Ry)=  0.0010
                       cart. coord. in units 2pi/alat
        k(    1) = (   0.0000000   0.0000000   0.0000000), wk =   0.0039062
        k(    2) = (   0.0000000   0.0000000   0.1244338), wk =   0.0078125
        k(    3) = (   0.0000000   0.0000000   0.2488677), wk =   0.0078125
        k(    4) = (   0.0000000   0.0000000   0.3733015), wk =   0.0078125
        k(    5) = (   0.0000000   0.0000000  -0.4977353), wk =   0.0039062
        k(    6) = (   0.0000000   0.1250000   0.0000000), wk =   0.0156250
        k(    7) = (   0.0000000   0.1250000   0.1244338), wk =   0.0312500
        k(    8) = (   0.0000000   0.1250000   0.2488677), wk =   0.0312500
        k(    9) = (   0.0000000   0.1250000   0.3733015), wk =   0.0312500
        k(   10) = (   0.0000000   0.1250000  -0.4977353), wk =   0.0156250
        k(   11) = (   0.0000000   0.2500000   0.0000000), wk =   0.0156250
        k(   12) = (   0.0000000   0.2500000   0.1244338), wk =   0.0312500
        k(   13) = (   0.0000000   0.2500000   0.2488677), wk =   0.0312500
        k(   14) = (   0.0000000   0.2500000   0.3733015), wk =   0.0312500
        k(   15) = (   0.0000000   0.2500000  -0.4977353), wk =   0.0156250
        k(   16) = (   0.0000000   0.3750000   0.0000000), wk =   0.0156250
        k(   17) = (   0.0000000   0.3750000   0.1244338), wk =   0.0312500
        k(   18) = (   0.0000000   0.3750000   0.2488677), wk =   0.0312500
        k(   19) = (   0.0000000   0.3750000   0.3733015), wk =   0.0312500
        k(   20) = (   0.0000000   0.3750000  -0.4977353), wk =   0.0156250
        k(   21) = (   0.0000000  -0.5000000   0.0000000), wk =   0.0078125
        k(   22) = (   0.0000000  -0.5000000   0.1244338), wk =   0.0156250
        k(   23) = (   0.0000000  -0.5000000   0.2488677), wk =   0.0156250
        k(   24) = (   0.0000000  -0.5000000   0.3733015), wk =   0.0156250
        k(   25) = (   0.0000000  -0.5000000  -0.4977353), wk =   0.0078125
        k(   26) = (   0.1250000   0.1250000   0.0000000), wk =   0.0156250
        k(   27) = (   0.1250000   0.1250000   0.1244338), wk =   0.0312500
        k(   28) = (   0.1250000   0.1250000   0.2488677), wk =   0.0312500
        k(   29) = (   0.1250000   0.1250000   0.3733015), wk =   0.0312500
        k(   30) = (   0.1250000   0.1250000  -0.4977353), wk =   0.0156250
        k(   31) = (   0.1250000   0.2500000   0.0000000), wk =   0.0312500
        k(   32) = (   0.1250000   0.2500000   0.1244338), wk =   0.0625000
        k(   33) = (   0.1250000   0.2500000   0.2488677), wk =   0.0625000
        k(   34) = (   0.1250000   0.2500000   0.3733015), wk =   0.0625000
        k(   35) = (   0.1250000   0.2500000  -0.4977353), wk =   0.0312500
        k(   36) = (   0.1250000   0.3750000   0.0000000), wk =   0.0312500
        k(   37) = (   0.1250000   0.3750000   0.1244338), wk =   0.0625000
        k(   38) = (   0.1250000   0.3750000   0.2488677), wk =   0.0625000
        k(   39) = (   0.1250000   0.3750000   0.3733015), wk =   0.0625000
        k(   40) = (   0.1250000   0.3750000  -0.4977353), wk =   0.0312500
        k(   41) = (   0.1250000  -0.5000000   0.0000000), wk =   0.0156250
        k(   42) = (   0.1250000  -0.5000000   0.1244338), wk =   0.0312500
        k(   43) = (   0.1250000  -0.5000000   0.2488677), wk =   0.0312500
        k(   44) = (   0.1250000  -0.5000000   0.3733015), wk =   0.0312500
        k(   45) = (   0.1250000  -0.5000000  -0.4977353), wk =   0.0156250
        k(   46) = (   0.2500000   0.2500000   0.0000000), wk =   0.0156250
        k(   47) = (   0.2500000   0.2500000   0.1244338), wk =   0.0312500
        k(   48) = (   0.2500000   0.2500000   0.2488677), wk =   0.0312500
        k(   49) = (   0.2500000   0.2500000   0.3733015), wk =   0.0312500
        k(   50) = (   0.2500000   0.2500000  -0.4977353), wk =   0.0156250
        k(   51) = (   0.2500000   0.3750000   0.0000000), wk =   0.0312500
        k(   52) = (   0.2500000   0.3750000   0.1244338), wk =   0.0625000
        k(   53) = (   0.2500000   0.3750000   0.2488677), wk =   0.0625000
        k(   54) = (   0.2500000   0.3750000   0.3733015), wk =   0.0625000
        k(   55) = (   0.2500000   0.3750000  -0.4977353), wk =   0.0312500
        k(   56) = (   0.2500000  -0.5000000   0.0000000), wk =   0.0156250
        k(   57) = (   0.2500000  -0.5000000   0.1244338), wk =   0.0312500
        k(   58) = (   0.2500000  -0.5000000   0.2488677), wk =   0.0312500
        k(   59) = (   0.2500000  -0.5000000   0.3733015), wk =   0.0312500
        k(   60) = (   0.2500000  -0.5000000  -0.4977353), wk =   0.0156250
        k(   61) = (   0.3750000   0.3750000   0.0000000), wk =   0.0156250
        k(   62) = (   0.3750000   0.3750000   0.1244338), wk =   0.0312500
        k(   63) = (   0.3750000   0.3750000   0.2488677), wk =   0.0312500
        k(   64) = (   0.3750000   0.3750000   0.3733015), wk =   0.0312500
        k(   65) = (   0.3750000   0.3750000  -0.4977353), wk =   0.0156250
        k(   66) = (   0.3750000  -0.5000000   0.0000000), wk =   0.0156250
        k(   67) = (   0.3750000  -0.5000000   0.1244338), wk =   0.0312500
        k(   68) = (   0.3750000  -0.5000000   0.2488677), wk =   0.0312500
        k(   69) = (   0.3750000  -0.5000000   0.3733015), wk =   0.0312500
        k(   70) = (   0.3750000  -0.5000000  -0.4977353), wk =   0.0156250
        k(   71) = (  -0.5000000  -0.5000000   0.0000000), wk =   0.0039062
        k(   72) = (  -0.5000000  -0.5000000   0.1244338), wk =   0.0078125
        k(   73) = (  -0.5000000  -0.5000000   0.2488677), wk =   0.0078125
        k(   74) = (  -0.5000000  -0.5000000   0.3733015), wk =   0.0078125
        k(   75) = (  -0.5000000  -0.5000000  -0.4977353), wk =   0.0039062

                       cryst. coord.
        k(    1) = (   0.0000000   0.0000000   0.0000000), wk =   0.0039062
        k(    2) = (   0.0000000   0.0000000   0.1250000), wk =   0.0078125
        k(    3) = (   0.0000000   0.0000000   0.2500000), wk =   0.0078125
        k(    4) = (   0.0000000   0.0000000   0.3750000), wk =   0.0078125
        k(    5) = (   0.0000000   0.0000000  -0.5000000), wk =   0.0039062
        k(    6) = (   0.0000000   0.1250000   0.0000000), wk =   0.0156250
        k(    7) = (   0.0000000   0.1250000   0.1250000), wk =   0.0312500
        k(    8) = (   0.0000000   0.1250000   0.2500000), wk =   0.0312500
        k(    9) = (   0.0000000   0.1250000   0.3750000), wk =   0.0312500
        k(   10) = (   0.0000000   0.1250000  -0.5000000), wk =   0.0156250
        k(   11) = (   0.0000000   0.2500000   0.0000000), wk =   0.0156250
        k(   12) = (   0.0000000   0.2500000   0.1250000), wk =   0.0312500
        k(   13) = (   0.0000000   0.2500000   0.2500000), wk =   0.0312500
        k(   14) = (   0.0000000   0.2500000   0.3750000), wk =   0.0312500
        k(   15) = (   0.0000000   0.2500000  -0.5000000), wk =   0.0156250
        k(   16) = (   0.0000000   0.3750000   0.0000000), wk =   0.0156250
        k(   17) = (   0.0000000   0.3750000   0.1250000), wk =   0.0312500
        k(   18) = (   0.0000000   0.3750000   0.2500000), wk =   0.0312500
        k(   19) = (   0.0000000   0.3750000   0.3750000), wk =   0.0312500
        k(   20) = (   0.0000000   0.3750000  -0.5000000), wk =   0.0156250
        k(   21) = (   0.0000000  -0.5000000   0.0000000), wk =   0.0078125
        k(   22) = (   0.0000000  -0.5000000   0.1250000), wk =   0.0156250
        k(   23) = (   0.0000000  -0.5000000   0.2500000), wk =   0.0156250
        k(   24) = (   0.0000000  -0.5000000   0.3750000), wk =   0.0156250
        k(   25) = (   0.0000000  -0.5000000  -0.5000000), wk =   0.0078125
        k(   26) = (   0.1250000   0.1250000   0.0000000), wk =   0.0156250
        k(   27) = (   0.1250000   0.1250000   0.1250000), wk =   0.0312500
        k(   28) = (   0.1250000   0.1250000   0.2500000), wk =   0.0312500
        k(   29) = (   0.1250000   0.1250000   0.3750000), wk =   0.0312500
        k(   30) = (   0.1250000   0.1250000  -0.5000000), wk =   0.0156250
        k(   31) = (   0.1250000   0.2500000   0.0000000), wk =   0.0312500
        k(   32) = (   0.1250000   0.2500000   0.1250000), wk =   0.0625000
        k(   33) = (   0.1250000   0.2500000   0.2500000), wk =   0.0625000
        k(   34) = (   0.1250000   0.2500000   0.3750000), wk =   0.0625000
        k(   35) = (   0.1250000   0.2500000  -0.5000000), wk =   0.0312500
        k(   36) = (   0.1250000   0.3750000   0.0000000), wk =   0.0312500
        k(   37) = (   0.1250000   0.3750000   0.1250000), wk =   0.0625000
        k(   38) = (   0.1250000   0.3750000   0.2500000), wk =   0.0625000
        k(   39) = (   0.1250000   0.3750000   0.3750000), wk =   0.0625000
        k(   40) = (   0.1250000   0.3750000  -0.5000000), wk =   0.0312500
        k(   41) = (   0.1250000  -0.5000000   0.0000000), wk =   0.0156250
        k(   42) = (   0.1250000  -0.5000000   0.1250000), wk =   0.0312500
        k(   43) = (   0.1250000  -0.5000000   0.2500000), wk =   0.0312500
        k(   44) = (   0.1250000  -0.5000000   0.3750000), wk =   0.0312500
        k(   45) = (   0.1250000  -0.5000000  -0.5000000), wk =   0.0156250
        k(   46) = (   0.2500000   0.2500000   0.0000000), wk =   0.0156250
        k(   47) = (   0.2500000   0.2500000   0.1250000), wk =   0.0312500
        k(   48) = (   0.2500000   0.2500000   0.2500000), wk =   0.0312500
        k(   49) = (   0.2500000   0.2500000   0.3750000), wk =   0.0312500
        k(   50) = (   0.2500000   0.2500000  -0.5000000), wk =   0.0156250
        k(   51) = (   0.2500000   0.3750000   0.0000000), wk =   0.0312500
        k(   52) = (   0.2500000   0.3750000   0.1250000), wk =   0.0625000
        k(   53) = (   0.2500000   0.3750000   0.2500000), wk =   0.0625000
        k(   54) = (   0.2500000   0.3750000   0.3750000), wk =   0.0625000
        k(   55) = (   0.2500000   0.3750000  -0.5000000), wk =   0.0312500
        k(   56) = (   0.2500000  -0.5000000   0.0000000), wk =   0.0156250
        k(   57) = (   0.2500000  -0.5000000   0.1250000), wk =   0.0312500
        k(   58) = (   0.2500000  -0.5000000   0.2500000), wk =   0.0312500
        k(   59) = (   0.2500000  -0.5000000   0.3750000), wk =   0.0312500
        k(   60) = (   0.2500000  -0.5000000  -0.5000000), wk =   0.0156250
        k(   61) = (   0.3750000   0.3750000   0.0000000), wk =   0.0156250
        k(   62) = (   0.3750000   0.3750000   0.1250000), wk =   0.0312500
        k(   63) = (   0.3750000   0.3750000   0.2500000), wk =   0.0312500
        k(   64) = (   0.3750000   0.3750000   0.3750000), wk =   0.0312500
        k(   65) = (   0.3750000   0.3750000  -0.5000000), wk =   0.0156250
        k(   66) = (   0.3750000  -0.5000000   0.0000000), wk =   0.0156250
        k(   67) = (   0.3750000  -0.5000000   0.1250000), wk =   0.0312500
        k(   68) = (   0.3750000  -0.5000000   0.2500000), wk =   0.0312500
        k(   69) = (   0.3750000  -0.5000000   0.3750000), wk =   0.0312500
        k(   70) = (   0.3750000  -0.5000000  -0.5000000), wk =   0.0156250
        k(   71) = (  -0.5000000  -0.5000000   0.0000000), wk =   0.0039062
        k(   72) = (  -0.5000000  -0.5000000   0.1250000), wk =   0.0078125
        k(   73) = (  -0.5000000  -0.5000000   0.2500000), wk =   0.0078125
        k(   74) = (  -0.5000000  -0.5000000   0.3750000), wk =   0.0078125
        k(   75) = (  -0.5000000  -0.5000000  -0.5000000), wk =   0.0039062

     Dense  grid:   202965 G-vectors     FFT dimensions: (  75,  75,  75)

     Dynamical RAM for                 wfc:       0.41 MB

     Dynamical RAM for     wfc (w. buffer):      30.86 MB

     Dynamical RAM for           str. fact:       0.46 MB

     Dynamical RAM for           local pot:       0.00 MB

     Dynamical RAM for          nlocal pot:       1.45 MB

     Dynamical RAM for                qrad:       8.76 MB

     Dynamical RAM for          rho,v,vnew:       0.98 MB

     Dynamical RAM for               rhoin:       0.33 MB

     Dynamical RAM for            rho*nmix:       2.48 MB

     Dynamical RAM for           G-vectors:       0.66 MB

     Dynamical RAM for          h,s,v(r/c):       0.04 MB

     Dynamical RAM for          <psi|beta>:       0.02 MB

     Dynamical RAM for                 psi:       1.62 MB

     Dynamical RAM for                hpsi:       1.62 MB

     Dynamical RAM for                spsi:       1.62 MB

     Dynamical RAM for      wfcinit/wfcrot:       0.94 MB

     Dynamical RAM for           addusdens:      29.27 MB

     Dynamical RAM for          addusforce:      30.92 MB

     Estimated static dynamical RAM per process >      47.45 MB

     Estimated max dynamical RAM per process >      78.36 MB

     Estimated total dynamical RAM >       1.53 GB

     Check: negative/imaginary core charge=   -0.000002    0.000000

     Initial potential from superposition of free atoms

     starting charge   33.49647, renormalised to   34.00000
     Starting wfcs are   24 randomized atomic wfcs

     total cpu time spent up to now is        3.0 secs

     Self-consistent Calculation

     iteration #  1     ecut=    50.00 Ry     beta= 0.70
     Davidson diagonalization with overlap
     ethr =  1.00E-02,  avg # of iterations =  2.0

     total cpu time spent up to now is        8.2 secs

     total energy              =    -210.58863473 Ry
     Harris-Foulkes estimate   =    -218.79340018 Ry
     estimated scf accuracy    <       9.76981253 Ry

     iteration #  2     ecut=    50.00 Ry     beta= 0.70
     Davidson diagonalization with overlap
     ethr =  1.00E-02,  avg # of iterations =  8.6

     total cpu time spent up to now is       21.3 secs

     total energy              =    -212.20311183 Ry
     Harris-Foulkes estimate   =    -239.81761622 Ry
     estimated scf accuracy    <      97.56697738 Ry

     iteration #  3     ecut=    50.00 Ry     beta= 0.70
     Davidson diagonalization with overlap
     ethr =  1.00E-02,  avg # of iterations =  8.7

     total cpu time spent up to now is       33.1 secs

     total energy              =    -218.60868513 Ry
     Harris-Foulkes estimate   =    -218.88788329 Ry
     estimated scf accuracy    <       4.36351291 Ry

     iteration #  4     ecut=    50.00 Ry     beta= 0.70
     Davidson diagonalization with overlap
     ethr =  1.00E-02,  avg # of iterations =  1.6

     total cpu time spent up to now is       38.3 secs

     total energy              =    -218.32350787 Ry
     Harris-Foulkes estimate   =    -218.67028284 Ry
     estimated scf accuracy    <       3.27279339 Ry

     iteration #  5     ecut=    50.00 Ry     beta= 0.70
     Davidson diagonalization with overlap
     ethr =  9.63E-03,  avg # of iterations =  1.2

     total cpu time spent up to now is       43.2 secs

     total energy              =    -217.71467885 Ry
     Harris-Foulkes estimate   =    -218.35523499 Ry
     estimated scf accuracy    <       2.41369592 Ry

     iteration #  6     ecut=    50.00 Ry     beta= 0.70
     Davidson diagonalization with overlap
     ethr =  7.10E-03,  avg # of iterations =  2.4

     total cpu time spent up to now is       48.9 secs

     total energy              =    -217.89981875 Ry
     Harris-Foulkes estimate   =    -218.08423670 Ry
     estimated scf accuracy    <       0.69918602 Ry

     iteration #  7     ecut=    50.00 Ry     beta= 0.70
     Davidson diagonalization with overlap
     ethr =  2.06E-03,  avg # of iterations =  6.5

     total cpu time spent up to now is       58.2 secs

     total energy              =    -218.16076775 Ry
     Harris-Foulkes estimate   =    -218.55731331 Ry
     estimated scf accuracy    <       3.76020271 Ry

     iteration #  8     ecut=    50.00 Ry     beta= 0.70
     Davidson diagonalization with overlap
     ethr =  2.06E-03,  avg # of iterations =  1.6

     total cpu time spent up to now is       63.4 secs

     total energy              =    -218.40536683 Ry
     Harris-Foulkes estimate   =    -218.42666754 Ry
     estimated scf accuracy    <       1.08002591 Ry

     iteration #  9     ecut=    50.00 Ry     beta= 0.70
     Davidson diagonalization with overlap
     ethr =  2.06E-03,  avg # of iterations =  1.7

     total cpu time spent up to now is       68.7 secs

     total energy              =    -218.37442046 Ry
     Harris-Foulkes estimate   =    -218.42291993 Ry
     estimated scf accuracy    <       1.18132297 Ry

     iteration # 10     ecut=    50.00 Ry     beta= 0.70
     Davidson diagonalization with overlap
     ethr =  2.06E-03,  avg # of iterations =  2.2

     total cpu time spent up to now is       74.4 secs

     total energy              =    -218.42103592 Ry
     Harris-Foulkes estimate   =    -218.41677282 Ry
     estimated scf accuracy    <       0.73127662 Ry

     iteration # 11     ecut=    50.00 Ry     beta= 0.70
     Davidson diagonalization with overlap
     ethr =  2.06E-03,  avg # of iterations =  1.8

     total cpu time spent up to now is       79.8 secs

     total energy              =    -218.43024402 Ry
     Harris-Foulkes estimate   =    -218.43671846 Ry
     estimated scf accuracy    <       0.83850647 Ry

     iteration # 12     ecut=    50.00 Ry     beta= 0.70
     Davidson diagonalization with overlap
     ethr =  2.06E-03,  avg # of iterations =  1.1

     total cpu time spent up to now is       84.7 secs

     total energy              =    -218.50647878 Ry
     Harris-Foulkes estimate   =    -218.51039950 Ry
     estimated scf accuracy    <       2.44609885 Ry

     iteration # 13     ecut=    50.00 Ry     beta= 0.70
     Davidson diagonalization with overlap
     ethr =  2.06E-03,  avg # of iterations =  1.0

     total cpu time spent up to now is       89.7 secs

     total energy              =    -218.50826479 Ry
     Harris-Foulkes estimate   =    -218.50783851 Ry
     estimated scf accuracy    <       4.09626447 Ry

     iteration # 14     ecut=    50.00 Ry     beta= 0.70
     Davidson diagonalization with overlap
     ethr =  2.06E-03,  avg # of iterations =  1.1

     total cpu time spent up to now is       94.6 secs

     total energy              =    -218.77205542 Ry
     Harris-Foulkes estimate   =    -218.51029519 Ry
     estimated scf accuracy    <       9.74684244 Ry

     iteration # 15     ecut=    50.00 Ry     beta= 0.70
     Davidson diagonalization with overlap
     ethr =  2.06E-03,  avg # of iterations =  1.2

     negative rho (up, down):  4.406E-04 0.000E+00

     total cpu time spent up to now is       99.6 secs

     total energy              =    -218.68897116 Ry
     Harris-Foulkes estimate   =    -218.81820337 Ry
     estimated scf accuracy    <      14.56800444 Ry

     iteration # 16     ecut=    50.00 Ry     beta= 0.70
     Davidson diagonalization with overlap
     ethr =  2.06E-03,  avg # of iterations =  1.4

     negative rho (up, down):  5.327E-06 0.000E+00

     total cpu time spent up to now is      104.7 secs

     total energy              =    -218.81667985 Ry
     Harris-Foulkes estimate   =    -219.74961431 Ry
     estimated scf accuracy    <      10.65386828 Ry

     iteration # 17     ecut=    50.00 Ry     beta= 0.70
     Davidson diagonalization with overlap
     ethr =  2.06E-03,  avg # of iterations =  1.0

     total cpu time spent up to now is      109.6 secs

     total energy              =    -218.60216147 Ry
     Harris-Foulkes estimate   =    -218.96306948 Ry
     estimated scf accuracy    <       3.99712536 Ry

     iteration # 18     ecut=    50.00 Ry     beta= 0.70
     Davidson diagonalization with overlap
     ethr =  2.06E-03,  avg # of iterations =  1.0

     total cpu time spent up to now is      114.5 secs

     total energy              =    -219.00031108 Ry
     Harris-Foulkes estimate   =    -218.88068583 Ry
     estimated scf accuracy    <       5.30735032 Ry

     iteration # 19     ecut=    50.00 Ry     beta= 0.70
     Davidson diagonalization with overlap
     ethr =  2.06E-03,  avg # of iterations =  1.0

     negative rho (up, down):  1.680E-04 0.000E+00

     total cpu time spent up to now is      119.4 secs

     total energy              =    -219.27138838 Ry
     Harris-Foulkes estimate   =    -219.00332844 Ry
     estimated scf accuracy    <       5.57839362 Ry

     iteration # 20     ecut=    50.00 Ry     beta= 0.70
     Davidson diagonalization with overlap
     ethr =  2.06E-03,  avg # of iterations =  2.0

     negative rho (up, down):  3.989E-07 0.000E+00

     total cpu time spent up to now is      125.1 secs

     total energy              =    -218.61189995 Ry
     Harris-Foulkes estimate   =    -219.48514383 Ry
     estimated scf accuracy    <       6.68832461 Ry

     iteration # 21     ecut=    50.00 Ry     beta= 0.70
     Davidson diagonalization with overlap
     ethr =  2.06E-03,  avg # of iterations =  2.0

     negative rho (up, down):  5.606E-06 0.000E+00

     total cpu time spent up to now is      130.6 secs

     total energy              =    -218.86520450 Ry
     Harris-Foulkes estimate   =    -218.94746642 Ry
     estimated scf accuracy    <       5.53970604 Ry

     iteration # 22     ecut=    50.00 Ry     beta= 0.70
     Davidson diagonalization with overlap
     ethr =  2.06E-03,  avg # of iterations =  1.0

     total cpu time spent up to now is      135.5 secs

     total energy              =    -218.89817081 Ry
     Harris-Foulkes estimate   =    -218.86781134 Ry
     estimated scf accuracy    <       5.30093050 Ry

     iteration # 23     ecut=    50.00 Ry     beta= 0.70
     Davidson diagonalization with overlap
     ethr =  2.06E-03,  avg # of iterations =  1.0

     total cpu time spent up to now is      140.4 secs

     total energy              =    -218.93896927 Ry
     Harris-Foulkes estimate   =    -218.92450750 Ry
     estimated scf accuracy    <       5.38762238 Ry

     iteration # 24     ecut=    50.00 Ry     beta= 0.70
     Davidson diagonalization with overlap
     ethr =  2.06E-03,  avg # of iterations =  1.0

     negative rho (up, down):  7.365E-02 0.000E+00

     total cpu time spent up to now is      145.4 secs

     total energy              =    -219.69573536 Ry
     Harris-Foulkes estimate   =    -218.93953411 Ry
     estimated scf accuracy    <       5.40903637 Ry

     iteration # 25     ecut=    50.00 Ry     beta= 0.70
     Davidson diagonalization with overlap
     ethr =  2.06E-03,  avg # of iterations =  6.6

     total cpu time spent up to now is      155.7 secs

     total energy              =    -218.10557023 Ry
     Harris-Foulkes estimate   =    -221.90346372 Ry
     estimated scf accuracy    <      17.62571183 Ry

     iteration # 26     ecut=    50.00 Ry     beta= 0.70
     Davidson diagonalization with overlap
     ethr =  2.06E-03,  avg # of iterations =  9.6

     negative rho (up, down):  4.330E-02 0.000E+00

     total cpu time spent up to now is      168.1 secs

     total energy              =    -217.10578194 Ry
     Harris-Foulkes estimate   =    -218.89652777 Ry
     estimated scf accuracy    <       3.84533160 Ry

     iteration # 27     ecut=    50.00 Ry     beta= 0.70
     Davidson diagonalization with overlap
     ethr =  2.06E-03,  avg # of iterations =  2.8

     total cpu time spent up to now is      174.9 secs

     total energy              =    -217.33602061 Ry
     Harris-Foulkes estimate   =    -220.35809596 Ry
     estimated scf accuracy    <      11.30997017 Ry

     iteration # 28     ecut=    50.00 Ry     beta= 0.70
     Davidson diagonalization with overlap
     ethr =  2.06E-03,  avg # of iterations =  2.5

     total cpu time spent up to now is      181.4 secs

     total energy              =    -218.56020993 Ry
     Harris-Foulkes estimate   =    -218.95463193 Ry
     estimated scf accuracy    <      14.92115556 Ry

     iteration # 29     ecut=    50.00 Ry     beta= 0.70
     Davidson diagonalization with overlap
     ethr =  2.06E-03,  avg # of iterations =  1.0

     total cpu time spent up to now is      186.3 secs

     total energy              =    -218.19780440 Ry
     Harris-Foulkes estimate   =    -218.56418716 Ry
     estimated scf accuracy    <      14.26155005 Ry

     iteration # 30     ecut=    50.00 Ry     beta= 0.70
     Davidson diagonalization with overlap
     ethr =  2.06E-03,  avg # of iterations =  1.1

     total cpu time spent up to now is      191.2 secs

     total energy              =    -218.29022935 Ry
     Harris-Foulkes estimate   =    -218.31664914 Ry
     estimated scf accuracy    <       2.72562918 Ry

     iteration # 31     ecut=    50.00 Ry     beta= 0.70
     Davidson diagonalization with overlap
     ethr =  2.06E-03,  avg # of iterations =  1.1

     negative rho (up, down):  3.053E-08 0.000E+00

     total cpu time spent up to now is      196.1 secs

     total energy              =    -218.19491798 Ry
     Harris-Foulkes estimate   =    -218.29599152 Ry
     estimated scf accuracy    <       2.54590951 Ry

     iteration # 32     ecut=    50.00 Ry     beta= 0.70
     Davidson diagonalization with overlap
     ethr =  2.06E-03,  avg # of iterations =  1.0

     total cpu time spent up to now is      201.1 secs

     total energy              =    -218.47410237 Ry
     Harris-Foulkes estimate   =    -218.29669414 Ry
     estimated scf accuracy    <      10.72533047 Ry

     iteration # 33     ecut=    50.00 Ry     beta= 0.70
     Davidson diagonalization with overlap
     ethr =  2.06E-03,  avg # of iterations =  1.0

     total cpu time spent up to now is      206.0 secs

     total energy              =    -218.45795855 Ry
     Harris-Foulkes estimate   =    -218.50976499 Ry
     estimated scf accuracy    <      14.18646048 Ry

     iteration # 34     ecut=    50.00 Ry     beta= 0.70
     Davidson diagonalization with overlap
     ethr =  2.06E-03,  avg # of iterations =  1.0

     total cpu time spent up to now is      210.9 secs

     total energy              =    -218.23280819 Ry
     Harris-Foulkes estimate   =    -218.46399197 Ry
     estimated scf accuracy    <      13.08905455 Ry

     iteration # 35     ecut=    50.00 Ry     beta= 0.70
     Davidson diagonalization with overlap
     ethr =  2.06E-03,  avg # of iterations =  1.0

     negative rho (up, down):  6.935E-08 0.000E+00

     total cpu time spent up to now is      215.8 secs

     total energy              =    -218.08750404 Ry
     Harris-Foulkes estimate   =    -218.27005663 Ry
     estimated scf accuracy    <       0.31066502 Ry

     iteration # 36     ecut=    50.00 Ry     beta= 0.70
     Davidson diagonalization with overlap
     ethr =  9.14E-04,  avg # of iterations =  2.6

     total cpu time spent up to now is      222.4 secs

     total energy              =    -218.47987168 Ry
     Harris-Foulkes estimate   =    -219.16252305 Ry
     estimated scf accuracy    <       4.81953989 Ry

     iteration # 37     ecut=    50.00 Ry     beta= 0.70
     Davidson diagonalization with overlap
     ethr =  9.14E-04,  avg # of iterations =  2.2

     total cpu time spent up to now is      228.6 secs

     total energy              =    -218.57667981 Ry
     Harris-Foulkes estimate   =    -218.54998018 Ry
     estimated scf accuracy    <       3.92159796 Ry

     iteration # 38     ecut=    50.00 Ry     beta= 0.70
     Davidson diagonalization with overlap
     ethr =  9.14E-04,  avg # of iterations =  1.3

     negative rho (up, down):  1.043E-06 0.000E+00

     total cpu time spent up to now is      233.6 secs

     total energy              =    -218.47070325 Ry
     Harris-Foulkes estimate   =    -218.58421242 Ry
     estimated scf accuracy    <       4.17760297 Ry

     iteration # 39     ecut=    50.00 Ry     beta= 0.70
     Davidson diagonalization with overlap
     ethr =  9.14E-04,  avg # of iterations =  1.3

     negative rho (up, down):  5.174E-05 0.000E+00

     total cpu time spent up to now is      238.7 secs

     total energy              =    -218.35374134 Ry
     Harris-Foulkes estimate   =    -218.48559406 Ry
     estimated scf accuracy    <       4.05935027 Ry

     iteration # 40     ecut=    50.00 Ry     beta= 0.70
     Davidson diagonalization with overlap
     ethr =  9.14E-04,  avg # of iterations =  2.0

     total cpu time spent up to now is      244.1 secs

     total energy              =    -217.17483777 Ry
     Harris-Foulkes estimate   =    -218.68501003 Ry
     estimated scf accuracy    <       8.48361225 Ry

     iteration # 41     ecut=    50.00 Ry     beta= 0.70
     Davidson diagonalization with overlap
     ethr =  9.14E-04,  avg # of iterations =  2.1

     negative rho (up, down):  6.262E-08 0.000E+00

     total cpu time spent up to now is      250.1 secs

     total energy              =    -218.62869914 Ry
     Harris-Foulkes estimate   =    -218.75810258 Ry
     estimated scf accuracy    <      14.41708234 Ry

     iteration # 42     ecut=    50.00 Ry     beta= 0.70
     Davidson diagonalization with overlap
     ethr =  9.14E-04,  avg # of iterations =  1.0

     negative rho (up, down):  2.213E-08 0.000E+00

     total cpu time spent up to now is      255.0 secs

     total energy              =    -218.53200738 Ry
     Harris-Foulkes estimate   =    -218.65194557 Ry
     estimated scf accuracy    <       4.79330070 Ry

     iteration # 43     ecut=    50.00 Ry     beta= 0.70
     Davidson diagonalization with overlap
     ethr =  9.14E-04,  avg # of iterations =  1.0

     total cpu time spent up to now is      260.0 secs

     total energy              =    -218.29931614 Ry
     Harris-Foulkes estimate   =    -218.55356572 Ry
     estimated scf accuracy    <      14.06968537 Ry

     iteration # 44     ecut=    50.00 Ry     beta= 0.70
     Davidson diagonalization with overlap
     ethr =  9.14E-04,  avg # of iterations =  1.1

     negative rho (up, down):  1.102E-05 0.000E+00

     total cpu time spent up to now is      264.9 secs

     total energy              =    -218.31030125 Ry
     Harris-Foulkes estimate   =    -218.43496036 Ry
     estimated scf accuracy    <       4.25158830 Ry

     iteration # 45     ecut=    50.00 Ry     beta= 0.70
     Davidson diagonalization with overlap
     ethr =  9.14E-04,  avg # of iterations =  3.8

     negative rho (up, down):  6.624E-02 0.000E+00

     total cpu time spent up to now is      271.8 secs

     total energy              =    -223.35260429 Ry
     Harris-Foulkes estimate   =    -220.35297325 Ry
     estimated scf accuracy    <      16.18974211 Ry

     iteration # 46     ecut=    50.00 Ry     beta= 0.70
     Davidson diagonalization with overlap
     ethr =  9.14E-04,  avg # of iterations =  8.3

     negative rho (up, down):  1.496E-05 0.000E+00

     total cpu time spent up to now is      282.1 secs

     total energy              =    -218.05587247 Ry
     Harris-Foulkes estimate   =    -223.42119539 Ry
     estimated scf accuracy    <      19.89557852 Ry

     iteration # 47     ecut=    50.00 Ry     beta= 0.70
     Davidson diagonalization with overlap
     ethr =  9.14E-04,  avg # of iterations =  9.6

     negative rho (up, down):  1.934E-06 0.000E+00

     total cpu time spent up to now is      294.6 secs

     total energy              =    -218.52298302 Ry
     Harris-Foulkes estimate   =    -218.64449682 Ry
     estimated scf accuracy    <       4.49573049 Ry

     iteration # 48     ecut=    50.00 Ry     beta= 0.70
     Davidson diagonalization with overlap
     ethr =  9.14E-04,  avg # of iterations =  2.6

     negative rho (up, down):  1.813E-05 0.000E+00

     total cpu time spent up to now is      300.7 secs

     total energy              =    -218.69270024 Ry
     Harris-Foulkes estimate   =    -218.57875385 Ry
     estimated scf accuracy    <       3.74010140 Ry

     iteration # 49     ecut=    50.00 Ry     beta= 0.70
     Davidson diagonalization with overlap
     ethr =  9.14E-04,  avg # of iterations =  2.0

     negative rho (up, down):  1.362E-05 0.000E+00

     total cpu time spent up to now is      306.1 secs

     total energy              =    -219.05488170 Ry
     Harris-Foulkes estimate   =    -219.09777931 Ry
     estimated scf accuracy    <       9.41826206 Ry

     iteration # 50     ecut=    50.00 Ry     beta= 0.70
     Davidson diagonalization with overlap
     ethr =  9.14E-04,  avg # of iterations =  1.0

     negative rho (up, down):  1.928E-05 0.000E+00

     total cpu time spent up to now is      311.0 secs

     total energy              =    -218.25431361 Ry
     Harris-Foulkes estimate   =    -219.05561330 Ry
     estimated scf accuracy    <       9.26301566 Ry

     iteration # 51     ecut=    50.00 Ry     beta= 0.70
     Davidson diagonalization with overlap
     ethr =  9.14E-04,  avg # of iterations =  2.1

     negative rho (up, down):  7.396E-06 0.000E+00

     total cpu time spent up to now is      316.6 secs

     total energy              =    -218.71946251 Ry
     Harris-Foulkes estimate   =    -218.64814491 Ry
     estimated scf accuracy    <       4.30592939 Ry

     iteration # 52     ecut=    50.00 Ry     beta= 0.70
     Davidson diagonalization with overlap
     ethr =  9.14E-04,  avg # of iterations =  1.2

     negative rho (up, down):  4.750E-06 0.000E+00

     total cpu time spent up to now is      321.6 secs

     total energy              =    -218.34853417 Ry
     Harris-Foulkes estimate   =    -218.72991388 Ry
     estimated scf accuracy    <       4.14094344 Ry

     iteration # 53     ecut=    50.00 Ry     beta= 0.70
     Davidson diagonalization with overlap
     ethr =  9.14E-04,  avg # of iterations =  2.1

     negative rho (up, down):  1.197E-05 0.000E+00

     total cpu time spent up to now is      327.1 secs

     total energy              =    -218.22714179 Ry
     Harris-Foulkes estimate   =    -218.37853340 Ry
     estimated scf accuracy    <       4.01232564 Ry

     iteration # 54     ecut=    50.00 Ry     beta= 0.70
     Davidson diagonalization with overlap
     ethr =  9.14E-04,  avg # of iterations =  1.0

     negative rho (up, down):  8.296E-06 0.000E+00

     total cpu time spent up to now is      332.0 secs

     total energy              =    -217.65454729 Ry
     Harris-Foulkes estimate   =    -218.47013048 Ry
     estimated scf accuracy    <      14.07729695 Ry

     iteration # 55     ecut=    50.00 Ry     beta= 0.70
     Davidson diagonalization with overlap
     ethr =  9.14E-04,  avg # of iterations =  2.1

     negative rho (up, down):  1.009E-05 0.000E+00

     total cpu time spent up to now is      337.6 secs

     total energy              =    -218.40222903 Ry
     Harris-Foulkes estimate   =    -218.49259892 Ry
     estimated scf accuracy    <       3.48396254 Ry

     iteration # 56     ecut=    50.00 Ry     beta= 0.70
     Davidson diagonalization with overlap
     ethr =  9.14E-04,  avg # of iterations =  1.0

     negative rho (up, down):  3.823E-06 0.000E+00

     total cpu time spent up to now is      342.5 secs

     total energy              =    -218.42559076 Ry
     Harris-Foulkes estimate   =    -218.40672840 Ry
     estimated scf accuracy    <       3.76557926 Ry

     iteration # 57     ecut=    50.00 Ry     beta= 0.70
     Davidson diagonalization with overlap
     ethr =  9.14E-04,  avg # of iterations =  1.0

     negative rho (up, down):  1.684E-02 0.000E+00

     total cpu time spent up to now is      347.4 secs

     total energy              =    -219.72639242 Ry
     Harris-Foulkes estimate   =    -218.42837539 Ry
     estimated scf accuracy    <       3.32357733 Ry

     iteration # 58     ecut=    50.00 Ry     beta= 0.70
     Davidson diagonalization with overlap
     ethr =  9.14E-04,  avg # of iterations =  7.6

     negative rho (up, down):  1.906E-01 0.000E+00

     total cpu time spent up to now is      357.7 secs

     total energy              =    -223.96725066 Ry
     Harris-Foulkes estimate   =    -222.77763374 Ry
     estimated scf accuracy    <      16.41315831 Ry

     iteration # 59     ecut=    50.00 Ry     beta= 0.70
     Davidson diagonalization with overlap
     ethr =  9.14E-04,  avg # of iterations =  6.5

     negative rho (up, down):  2.099E-05 0.000E+00

     total cpu time spent up to now is      365.8 secs

     total energy              =    -219.60479153 Ry
     Harris-Foulkes estimate   =    -223.97506014 Ry
     estimated scf accuracy    <      17.72807293 Ry

     iteration # 60     ecut=    50.00 Ry     beta= 0.70
     Davidson diagonalization with overlap
     ethr =  9.14E-04,  avg # of iterations =  6.7

     total cpu time spent up to now is      376.9 secs

     total energy              =    -218.70257358 Ry
     Harris-Foulkes estimate   =    -220.41193428 Ry
     estimated scf accuracy    <       8.73923442 Ry

     iteration # 61     ecut=    50.00 Ry     beta= 0.70
     Davidson diagonalization with overlap
     ethr =  9.14E-04,  avg # of iterations =  2.2

     total cpu time spent up to now is      383.1 secs

     total energy              =    -218.66909657 Ry
     Harris-Foulkes estimate   =    -218.87627068 Ry
     estimated scf accuracy    <       3.35357085 Ry

     iteration # 62     ecut=    50.00 Ry     beta= 0.70
     Davidson diagonalization with overlap
     ethr =  9.14E-04,  avg # of iterations =  1.0

     total cpu time spent up to now is      388.0 secs

     total energy              =    -218.60700443 Ry
     Harris-Foulkes estimate   =    -218.67847458 Ry
     estimated scf accuracy    <       2.86789842 Ry

     iteration # 63     ecut=    50.00 Ry     beta= 0.70
     Davidson diagonalization with overlap
     ethr =  9.14E-04,  avg # of iterations =  1.0

     negative rho (up, down):  4.873E-07 0.000E+00

     total cpu time spent up to now is      392.9 secs

     total energy              =    -216.92658750 Ry
     Harris-Foulkes estimate   =    -218.61704885 Ry
     estimated scf accuracy    <       3.26099820 Ry

     iteration # 64     ecut=    50.00 Ry     beta= 0.70
     Davidson diagonalization with overlap
     ethr =  9.14E-04,  avg # of iterations =  7.9

     total cpu time spent up to now is      403.8 secs

     total energy              =    -217.99987116 Ry
     Harris-Foulkes estimate   =    -224.67213039 Ry
     estimated scf accuracy    <      22.35701133 Ry

     iteration # 65     ecut=    50.00 Ry     beta= 0.70
     Davidson diagonalization with overlap
     ethr =  9.14E-04,  avg # of iterations = 10.2

     total cpu time spent up to now is      416.6 secs

     total energy              =    -218.28903649 Ry
     Harris-Foulkes estimate   =    -218.32541469 Ry
     estimated scf accuracy    <       2.47459523 Ry

     iteration # 66     ecut=    50.00 Ry     beta= 0.70
     Davidson diagonalization with overlap
     ethr =  9.14E-04,  avg # of iterations =  1.2

     total cpu time spent up to now is      421.6 secs

     total energy              =    -217.15157380 Ry
     Harris-Foulkes estimate   =    -218.35968271 Ry
     estimated scf accuracy    <      13.69241860 Ry

     iteration # 67     ecut=    50.00 Ry     beta= 0.70
     Davidson diagonalization with overlap
     ethr =  9.14E-04,  avg # of iterations =  2.6

     total cpu time spent up to now is      427.6 secs

     total energy              =    -218.49318764 Ry
     Harris-Foulkes estimate   =    -218.60675894 Ry
     estimated scf accuracy    <       2.35676618 Ry

     iteration # 68     ecut=    50.00 Ry     beta= 0.70
     Davidson diagonalization with overlap
     ethr =  9.14E-04,  avg # of iterations =  1.2

     total cpu time spent up to now is      432.9 secs

     total energy              =    -218.48219811 Ry
     Harris-Foulkes estimate   =    -218.51183595 Ry
     estimated scf accuracy    <       2.19130066 Ry

     iteration # 69     ecut=    50.00 Ry     beta= 0.70
     Davidson diagonalization with overlap
     ethr =  9.14E-04,  avg # of iterations =  1.1

     total cpu time spent up to now is      437.9 secs

     total energy              =    -218.57104453 Ry
     Harris-Foulkes estimate   =    -218.48947869 Ry
     estimated scf accuracy    <       2.55743518 Ry

     iteration # 70     ecut=    50.00 Ry     beta= 0.70
     Davidson diagonalization with overlap
     ethr =  9.14E-04,  avg # of iterations =  1.3

     total cpu time spent up to now is      443.0 secs

     total energy              =    -218.45554453 Ry
     Harris-Foulkes estimate   =    -218.59812367 Ry
     estimated scf accuracy    <       2.72076978 Ry

     iteration # 71     ecut=    50.00 Ry     beta= 0.70
     Davidson diagonalization with overlap
     ethr =  9.14E-04,  avg # of iterations =  1.0

     negative rho (up, down):  1.837E-07 0.000E+00

     total cpu time spent up to now is      447.9 secs

     total energy              =    -218.70313107 Ry
     Harris-Foulkes estimate   =    -218.46546345 Ry
     estimated scf accuracy    <       3.11348604 Ry

     iteration # 72     ecut=    50.00 Ry     beta= 0.70
     Davidson diagonalization with overlap
     ethr =  9.14E-04,  avg # of iterations =  2.1

     total cpu time spent up to now is      453.5 secs

     total energy              =    -218.70874554 Ry
     Harris-Foulkes estimate   =    -218.74954200 Ry
     estimated scf accuracy    <       2.59170755 Ry

     iteration # 73     ecut=    50.00 Ry     beta= 0.70
     Davidson diagonalization with overlap
     ethr =  9.14E-04,  avg # of iterations =  1.5

     total cpu time spent up to now is      458.6 secs

     total energy              =    -218.51466485 Ry
     Harris-Foulkes estimate   =    -218.73818350 Ry
     estimated scf accuracy    <       3.10565092 Ry

     iteration # 74     ecut=    50.00 Ry     beta= 0.70
     Davidson diagonalization with overlap
     ethr =  9.14E-04,  avg # of iterations =  1.0

     total cpu time spent up to now is      463.5 secs

     total energy              =    -218.49391649 Ry
     Harris-Foulkes estimate   =    -218.52714159 Ry
     estimated scf accuracy    <       3.19464400 Ry

     iteration # 75     ecut=    50.00 Ry     beta= 0.70
     Davidson diagonalization with overlap
     ethr =  9.14E-04,  avg # of iterations =  1.1

     negative rho (up, down):  2.585E-03 0.000E+00

     total cpu time spent up to now is      468.5 secs

     total energy              =    -218.16395184 Ry
     Harris-Foulkes estimate   =    -218.49611345 Ry
     estimated scf accuracy    <       3.42333860 Ry

     iteration # 76     ecut=    50.00 Ry     beta= 0.70
     Davidson diagonalization with overlap
     ethr =  9.14E-04,  avg # of iterations =  2.0

     negative rho (up, down):  1.206E-05 0.000E+00

     total cpu time spent up to now is      474.0 secs

     total energy              =    -217.87564677 Ry
     Harris-Foulkes estimate   =    -218.49942161 Ry
     estimated scf accuracy    <      14.20736792 Ry

     iteration # 77     ecut=    50.00 Ry     beta= 0.70
     Davidson diagonalization with overlap
     ethr =  9.14E-04,  avg # of iterations =  1.4

     negative rho (up, down):  2.369E-05 0.000E+00

     total cpu time spent up to now is      479.1 secs

     total energy              =    -218.60920086 Ry
     Harris-Foulkes estimate   =    -218.37490928 Ry
     estimated scf accuracy    <       2.42551577 Ry

     iteration # 78     ecut=    50.00 Ry     beta= 0.70
     Davidson diagonalization with overlap
     ethr =  9.14E-04,  avg # of iterations =  1.1

     negative rho (up, down):  4.496E-03 0.000E+00

     total cpu time spent up to now is      484.1 secs

     total energy              =    -218.96898877 Ry
     Harris-Foulkes estimate   =    -218.61912371 Ry
     estimated scf accuracy    <       3.16337379 Ry

     iteration # 79     ecut=    50.00 Ry     beta= 0.70
     Davidson diagonalization with overlap
     ethr =  9.14E-04,  avg # of iterations =  2.4

     negative rho (up, down):  4.659E-05 0.000E+00

     total cpu time spent up to now is      489.7 secs

     total energy              =    -218.75503876 Ry
     Harris-Foulkes estimate   =    -218.99384126 Ry
     estimated scf accuracy    <       4.53149436 Ry

     iteration # 80     ecut=    50.00 Ry     beta= 0.70
     Davidson diagonalization with overlap
     ethr =  9.14E-04,  avg # of iterations =  1.0

     negative rho (up, down):  5.596E-05 0.000E+00

     total cpu time spent up to now is      494.5 secs

     total energy              =    -218.74278422 Ry
     Harris-Foulkes estimate   =    -218.75799256 Ry
     estimated scf accuracy    <       3.89557458 Ry

     iteration # 81     ecut=    50.00 Ry     beta= 0.70
     Davidson diagonalization with overlap
     ethr =  9.14E-04,  avg # of iterations =  1.1

     negative rho (up, down):  2.425E-06 0.000E+00

     total cpu time spent up to now is      499.5 secs

     total energy              =    -218.61046655 Ry
     Harris-Foulkes estimate   =    -218.74777216 Ry
     estimated scf accuracy    <       3.97355788 Ry

     iteration # 82     ecut=    50.00 Ry     beta= 0.70
     Davidson diagonalization with overlap
     ethr =  9.14E-04,  avg # of iterations =  1.0

     negative rho (up, down):  8.112E-06 0.000E+00

     total cpu time spent up to now is      504.5 secs

     total energy              =    -218.57055787 Ry
     Harris-Foulkes estimate   =    -218.61994918 Ry
     estimated scf accuracy    <       2.60265498 Ry

     iteration # 83     ecut=    50.00 Ry     beta= 0.70
     Davidson diagonalization with overlap
     ethr =  9.14E-04,  avg # of iterations =  1.0

     negative rho (up, down):  9.548E-06 0.000E+00

     total cpu time spent up to now is      509.4 secs

     total energy              =    -218.62105729 Ry
     Harris-Foulkes estimate   =    -218.57187070 Ry
     estimated scf accuracy    <       2.60423944 Ry

     iteration # 84     ecut=    50.00 Ry     beta= 0.70
     Davidson diagonalization with overlap
     ethr =  9.14E-04,  avg # of iterations =  1.1

     negative rho (up, down):  2.152E-05 0.000E+00

     total cpu time spent up to now is      514.3 secs

     total energy              =    -218.60328604 Ry
     Harris-Foulkes estimate   =    -218.62967681 Ry
     estimated scf accuracy    <       2.99772863 Ry

     iteration # 85     ecut=    50.00 Ry     beta= 0.70
     Davidson diagonalization with overlap
     ethr =  9.14E-04,  avg # of iterations =  1.1

     negative rho (up, down):  2.006E-03 0.000E+00

     total cpu time spent up to now is      519.3 secs

     total energy              =    -218.37135671 Ry
     Harris-Foulkes estimate   =    -218.60568740 Ry
     estimated scf accuracy    <       2.74459945 Ry

     iteration # 86     ecut=    50.00 Ry     beta= 0.70
     Davidson diagonalization with overlap
     ethr =  9.14E-04,  avg # of iterations =  1.0

     negative rho (up, down):  4.275E-04 0.000E+00

     total cpu time spent up to now is      524.2 secs

     total energy              =    -218.47424373 Ry
     Harris-Foulkes estimate   =    -218.53266280 Ry
     estimated scf accuracy    <       7.87767537 Ry

     iteration # 87     ecut=    50.00 Ry     beta= 0.70
     Davidson diagonalization with overlap
     ethr =  9.14E-04,  avg # of iterations =  1.0

     negative rho (up, down):  3.019E-03 0.000E+00

     total cpu time spent up to now is      529.1 secs

     total energy              =    -219.03762079 Ry
     Harris-Foulkes estimate   =    -218.48363578 Ry
     estimated scf accuracy    <       5.76721861 Ry

     iteration # 88     ecut=    50.00 Ry     beta= 0.70
     Davidson diagonalization with overlap
     ethr =  9.14E-04,  avg # of iterations =  2.0

     negative rho (up, down):  2.312E-03 0.000E+00

     total cpu time spent up to now is      534.7 secs

     total energy              =    -219.00534291 Ry
     Harris-Foulkes estimate   =    -219.45067014 Ry
     estimated scf accuracy    <      11.02886377 Ry

     iteration # 89     ecut=    50.00 Ry     beta= 0.70
     Davidson diagonalization with overlap
     ethr =  9.14E-04,  avg # of iterations =  2.0

     negative rho (up, down):  3.642E-05 0.000E+00

     total cpu time spent up to now is      540.3 secs

     total energy              =    -218.29283069 Ry
     Harris-Foulkes estimate   =    -219.01681762 Ry
     estimated scf accuracy    <      10.14401213 Ry

     iteration # 90     ecut=    50.00 Ry     beta= 0.70
     Davidson diagonalization with overlap
     ethr =  9.14E-04,  avg # of iterations =  2.0

     negative rho (up, down):  1.574E-06 0.000E+00

     total cpu time spent up to now is      545.7 secs

     total energy              =    -218.07310768 Ry
     Harris-Foulkes estimate   =    -219.26110395 Ry
     estimated scf accuracy    <      15.45141992 Ry

     iteration # 91     ecut=    50.00 Ry     beta= 0.70
     Davidson diagonalization with overlap
     ethr =  9.14E-04,  avg # of iterations =  2.0

     negative rho (up, down):  1.071E-06 0.000E+00

     total cpu time spent up to now is      551.2 secs

     total energy              =    -218.39852949 Ry
     Harris-Foulkes estimate   =    -218.37689197 Ry
     estimated scf accuracy    <       6.31996677 Ry

     iteration # 92     ecut=    50.00 Ry     beta= 0.70
     Davidson diagonalization with overlap
     ethr =  9.14E-04,  avg # of iterations =  1.0

     negative rho (up, down):  1.058E-06 0.000E+00

     total cpu time spent up to now is      556.1 secs

     total energy              =    -218.40321072 Ry
     Harris-Foulkes estimate   =    -218.41178867 Ry
     estimated scf accuracy    <       3.30941304 Ry

     iteration # 93     ecut=    50.00 Ry     beta= 0.70
     Davidson diagonalization with overlap
     ethr =  9.14E-04,  avg # of iterations =  1.0

     negative rho (up, down):  2.406E-06 0.000E+00

     total cpu time spent up to now is      561.0 secs

     total energy              =    -218.65402945 Ry
     Harris-Foulkes estimate   =    -218.40349330 Ry
     estimated scf accuracy    <       3.36946841 Ry

     iteration # 94     ecut=    50.00 Ry     beta= 0.70
     Davidson diagonalization with overlap
     ethr =  9.14E-04,  avg # of iterations =  1.1

     negative rho (up, down):  1.153E-06 0.000E+00

     total cpu time spent up to now is      566.0 secs

     total energy              =    -217.98722937 Ry
     Harris-Foulkes estimate   =    -218.66872289 Ry
     estimated scf accuracy    <       2.95413511 Ry

     iteration # 95     ecut=    50.00 Ry     beta= 0.70
     Davidson diagonalization with overlap
     ethr =  9.14E-04,  avg # of iterations =  2.1

     negative rho (up, down):  4.525E-06 0.000E+00

     total cpu time spent up to now is      571.6 secs

     total energy              =    -217.79326971 Ry
     Harris-Foulkes estimate   =    -218.79052110 Ry
     estimated scf accuracy    <      14.79079915 Ry

     iteration # 96     ecut=    50.00 Ry     beta= 0.70
     Davidson diagonalization with overlap
     ethr =  9.14E-04,  avg # of iterations =  2.0

     negative rho (up, down):  5.882E-07 0.000E+00

     total cpu time spent up to now is      577.2 secs

     total energy              =    -218.29140487 Ry
     Harris-Foulkes estimate   =    -218.44825506 Ry
     estimated scf accuracy    <       3.83553853 Ry

     iteration # 97     ecut=    50.00 Ry     beta= 0.70
     Davidson diagonalization with overlap
     ethr =  9.14E-04,  avg # of iterations =  1.0

     negative rho (up, down):  7.367E-07 0.000E+00

     total cpu time spent up to now is      582.1 secs

     total energy              =    -218.28985890 Ry
     Harris-Foulkes estimate   =    -218.30776783 Ry
     estimated scf accuracy    <       2.75962051 Ry

     iteration # 98     ecut=    50.00 Ry     beta= 0.70
     Davidson diagonalization with overlap
     ethr =  9.14E-04,  avg # of iterations =  1.0

     negative rho (up, down):  9.003E-07 0.000E+00

     total cpu time spent up to now is      587.0 secs

     total energy              =    -218.28741828 Ry
     Harris-Foulkes estimate   =    -218.29039127 Ry
     estimated scf accuracy    <       2.68742075 Ry

     iteration # 99     ecut=    50.00 Ry     beta= 0.70
     Davidson diagonalization with overlap
     ethr =  9.14E-04,  avg # of iterations =  1.0

     negative rho (up, down):  6.454E-07 0.000E+00

     total cpu time spent up to now is      592.0 secs

     total energy              =    -218.35209870 Ry
     Harris-Foulkes estimate   =    -218.28806398 Ry
     estimated scf accuracy    <       2.83826573 Ry

     iteration #100     ecut=    50.00 Ry     beta= 0.70
     Davidson diagonalization with overlap
     ethr =  9.14E-04,  avg # of iterations =  1.0

     negative rho (up, down):  6.724E-07 0.000E+00

     total cpu time spent up to now is      596.9 secs

     total energy              =    -218.36235660 Ry
     Harris-Foulkes estimate   =    -218.35786651 Ry
     estimated scf accuracy    <       2.42653319 Ry

     iteration #101     ecut=    50.00 Ry     beta= 0.70
     Davidson diagonalization with overlap
     ethr =  9.14E-04,  avg # of iterations =  1.0

     negative rho (up, down):  6.945E-07 0.000E+00

     total cpu time spent up to now is      601.8 secs

     total energy              =    -218.37847558 Ry
     Harris-Foulkes estimate   =    -218.36282833 Ry
     estimated scf accuracy    <       2.32182985 Ry

     iteration #102     ecut=    50.00 Ry     beta= 0.70
     Davidson diagonalization with overlap
     ethr =  9.14E-04,  avg # of iterations =  1.0

     negative rho (up, down):  1.013E-06 0.000E+00

     total cpu time spent up to now is      606.7 secs

     total energy              =    -218.45255757 Ry
     Harris-Foulkes estimate   =    -218.37890242 Ry
     estimated scf accuracy    <       2.49213596 Ry

     iteration #103     ecut=    50.00 Ry     beta= 0.70
     Davidson diagonalization with overlap
     ethr =  9.14E-04,  avg # of iterations =  1.0

     negative rho (up, down):  1.170E-06 0.000E+00

     total cpu time spent up to now is      611.7 secs

     total energy              =    -218.33638509 Ry
     Harris-Foulkes estimate   =    -218.45601662 Ry
     estimated scf accuracy    <       3.14578379 Ry

     iteration #104     ecut=    50.00 Ry     beta= 0.70
     Davidson diagonalization with overlap
     ethr =  9.14E-04,  avg # of iterations =  1.0

     negative rho (up, down):  2.652E-02 0.000E+00

     total cpu time spent up to now is      616.6 secs

     total energy              =    -217.27923420 Ry
     Harris-Foulkes estimate   =    -218.36811591 Ry
     estimated scf accuracy    <       2.79591608 Ry

     iteration #105     ecut=    50.00 Ry     beta= 0.70
     Davidson diagonalization with overlap
     ethr =  9.14E-04,  avg # of iterations =  9.0

     negative rho (up, down):  1.248E-05 0.000E+00

     total cpu time spent up to now is      628.2 secs

     total energy              =    -218.51514381 Ry
     Harris-Foulkes estimate   =    -221.99072294 Ry
     estimated scf accuracy    <      19.29581551 Ry

     iteration #106     ecut=    50.00 Ry     beta= 0.70
     Davidson diagonalization with overlap
     ethr =  9.14E-04,  avg # of iterations =  6.9

     negative rho (up, down):  1.612E-06 0.000E+00

     total cpu time spent up to now is      638.0 secs

     total energy              =    -218.22567161 Ry
     Harris-Foulkes estimate   =    -218.58480782 Ry
     estimated scf accuracy    <      14.23525573 Ry

     iteration #107     ecut=    50.00 Ry     beta= 0.70
     Davidson diagonalization with overlap
     ethr =  9.14E-04,  avg # of iterations =  1.5

     negative rho (up, down):  8.597E-07 0.000E+00

     total cpu time spent up to now is      643.2 secs

     total energy              =    -218.20658981 Ry
     Harris-Foulkes estimate   =    -218.26205977 Ry
     estimated scf accuracy    <       1.43347314 Ry

     iteration #108     ecut=    50.00 Ry     beta= 0.70
     Davidson diagonalization with overlap
     ethr =  9.14E-04,  avg # of iterations =  1.4

     negative rho (up, down):  1.414E-06 0.000E+00

     total cpu time spent up to now is      648.4 secs

     total energy              =    -218.19996678 Ry
     Harris-Foulkes estimate   =    -218.30144720 Ry
     estimated scf accuracy    <       0.71798647 Ry

     iteration #109     ecut=    50.00 Ry     beta= 0.70
     Davidson diagonalization with overlap
     ethr =  9.14E-04,  avg # of iterations =  1.0

     negative rho (up, down):  8.929E-06 0.000E+00

     total cpu time spent up to now is      653.3 secs

     total energy              =    -218.66444081 Ry
     Harris-Foulkes estimate   =    -218.38374482 Ry
     estimated scf accuracy    <      13.55791518 Ry

     iteration #110     ecut=    50.00 Ry     beta= 0.70
     Davidson diagonalization with overlap
     ethr =  9.14E-04,  avg # of iterations =  1.0

     negative rho (up, down):  8.546E-06 0.000E+00

     total cpu time spent up to now is      658.2 secs

     total energy              =    -219.22593953 Ry
     Harris-Foulkes estimate   =    -218.66838608 Ry
     estimated scf accuracy    <      14.42534152 Ry

     iteration #111     ecut=    50.00 Ry     beta= 0.70
     Davidson diagonalization with overlap
     ethr =  9.14E-04,  avg # of iterations =  1.0

     negative rho (up, down):  3.326E-06 0.000E+00

     total cpu time spent up to now is      663.1 secs

     total energy              =    -219.29195365 Ry
     Harris-Foulkes estimate   =    -219.22983362 Ry
     estimated scf accuracy    <      15.32896478 Ry

     iteration #112     ecut=    50.00 Ry     beta= 0.70
     Davidson diagonalization with overlap
     ethr =  9.14E-04,  avg # of iterations =  1.0

     negative rho (up, down):  4.689E-06 0.000E+00

     total cpu time spent up to now is      668.0 secs

     total energy              =    -218.69569540 Ry
     Harris-Foulkes estimate   =    -219.29310246 Ry
     estimated scf accuracy    <      15.45156371 Ry

     iteration #113     ecut=    50.00 Ry     beta= 0.70
     Davidson diagonalization with overlap
     ethr =  9.14E-04,  avg # of iterations =  1.1

     negative rho (up, down):  3.103E-05 0.000E+00

     total cpu time spent up to now is      673.0 secs

     total energy              =    -218.89306381 Ry
     Harris-Foulkes estimate   =    -218.69795358 Ry
     estimated scf accuracy    <      14.54457644 Ry

     iteration #114     ecut=    50.00 Ry     beta= 0.70
     Davidson diagonalization with overlap
     ethr =  9.14E-04,  avg # of iterations =  1.1

     negative rho (up, down):  1.178E-04 0.000E+00

     total cpu time spent up to now is      677.9 secs

     total energy              =    -218.95736915 Ry
     Harris-Foulkes estimate   =    -218.89444019 Ry
     estimated scf accuracy    <      14.78708684 Ry

     iteration #115     ecut=    50.00 Ry     beta= 0.70
     Davidson diagonalization with overlap
     ethr =  9.14E-04,  avg # of iterations =  1.1

     negative rho (up, down):  1.991E-05 0.000E+00

     total cpu time spent up to now is      682.9 secs

     total energy              =    -218.99594414 Ry
     Harris-Foulkes estimate   =    -218.95838781 Ry
     estimated scf accuracy    <      14.84783098 Ry

     iteration #116     ecut=    50.00 Ry     beta= 0.70
     Davidson diagonalization with overlap
     ethr =  9.14E-04,  avg # of iterations =  1.0

     negative rho (up, down):  5.511E-07 0.000E+00

     total cpu time spent up to now is      687.8 secs

     total energy              =    -218.78715421 Ry
     Harris-Foulkes estimate   =    -218.99935222 Ry
     estimated scf accuracy    <      14.82668203 Ry

     iteration #117     ecut=    50.00 Ry     beta= 0.70
     Davidson diagonalization with overlap
     ethr =  9.14E-04,  avg # of iterations =  2.2

     negative rho (up, down):  4.926E-01 0.000E+00

     total cpu time spent up to now is      693.4 secs

     total energy              =    -219.03217676 Ry
     Harris-Foulkes estimate   =    -218.80331792 Ry
     estimated scf accuracy    <      12.86327137 Ry

     iteration #118     ecut=    50.00 Ry     beta= 0.70
     Davidson diagonalization with overlap
     ethr =  9.14E-04,  avg # of iterations = 11.6

     negative rho (up, down):  1.064E-02 0.000E+00

     total cpu time spent up to now is      707.9 secs

     total energy              =    -213.60973212 Ry
     Harris-Foulkes estimate   =    -225.03699466 Ry
     estimated scf accuracy    <      43.90778302 Ry

     iteration #119     ecut=    50.00 Ry     beta= 0.70
     Davidson diagonalization with overlap
     ethr =  9.14E-04,  avg # of iterations = 11.9

     total cpu time spent up to now is      724.8 secs

     total energy              =    -218.54341421 Ry
     Harris-Foulkes estimate   =    -225.47273943 Ry
     estimated scf accuracy    <      20.69696641 Ry

     iteration #120     ecut=    50.00 Ry     beta= 0.70
     Davidson diagonalization with overlap
     ethr =  9.14E-04,  avg # of iterations =  6.3

     total cpu time spent up to now is      735.6 secs

     total energy              =    -219.34271060 Ry
     Harris-Foulkes estimate   =    -219.35595683 Ry
     estimated scf accuracy    <       6.02806800 Ry

     iteration #121     ecut=    50.00 Ry     beta= 0.70
     Davidson diagonalization with overlap
     ethr =  9.14E-04,  avg # of iterations =  1.1

     total cpu time spent up to now is      740.6 secs

     total energy              =    -219.00777604 Ry
     Harris-Foulkes estimate   =    -219.40498085 Ry
     estimated scf accuracy    <       4.53103662 Ry

     iteration #122     ecut=    50.00 Ry     beta= 0.70
     Davidson diagonalization with overlap
     ethr =  9.14E-04,  avg # of iterations =  2.1

     total cpu time spent up to now is      746.2 secs

     total energy              =    -218.09371206 Ry
     Harris-Foulkes estimate   =    -219.13119936 Ry
     estimated scf accuracy    <       7.85858575 Ry

     iteration #123     ecut=    50.00 Ry     beta= 0.70
     Davidson diagonalization with overlap
     ethr =  9.14E-04,  avg # of iterations =  2.2

     negative rho (up, down):  1.860E-08 0.000E+00

     total cpu time spent up to now is      752.1 secs

     total energy              =    -218.75975036 Ry
     Harris-Foulkes estimate   =    -218.94648742 Ry
     estimated scf accuracy    <       5.55001737 Ry

     iteration #124     ecut=    50.00 Ry     beta= 0.70
     Davidson diagonalization with overlap
     ethr =  9.14E-04,  avg # of iterations =  1.1

     negative rho (up, down):  1.253E-06 0.000E+00

     total cpu time spent up to now is      757.0 secs

     total energy              =    -218.48576597 Ry
     Harris-Foulkes estimate   =    -218.76254215 Ry
     estimated scf accuracy    <       5.06334238 Ry

     iteration #125     ecut=    50.00 Ry     beta= 0.70
     Davidson diagonalization with overlap
     ethr =  9.14E-04,  avg # of iterations =  1.2

     negative rho (up, down):  1.559E-08 0.000E+00

     total cpu time spent up to now is      762.0 secs

     total energy              =    -218.64885434 Ry
     Harris-Foulkes estimate   =    -218.50348480 Ry
     estimated scf accuracy    <       4.05603388 Ry

     iteration #126     ecut=    50.00 Ry     beta= 0.70
     Davidson diagonalization with overlap
     ethr =  9.14E-04,  avg # of iterations =  1.0

     negative rho (up, down):  3.144E-01 0.000E+00

     total cpu time spent up to now is      766.9 secs

     total energy              =    -216.94450180 Ry
     Harris-Foulkes estimate   =    -218.68192434 Ry
     estimated scf accuracy    <       4.86089812 Ry

     iteration #127     ecut=    50.00 Ry     beta= 0.70
     Davidson diagonalization with overlap
     ethr =  9.14E-04,  avg # of iterations =  8.1

     negative rho (up, down):  2.137E-06 0.000E+00

     total cpu time spent up to now is      778.0 secs

     total energy              =    -219.12787221 Ry
     Harris-Foulkes estimate   =    -222.90213937 Ry
     estimated scf accuracy    <      20.20395404 Ry

     iteration #128     ecut=    50.00 Ry     beta= 0.70
     Davidson diagonalization with overlap
     ethr =  9.14E-04,  avg # of iterations =  7.7

     negative rho (up, down):  1.254E-07 0.000E+00

     total cpu time spent up to now is      787.8 secs

     total energy              =    -218.51962110 Ry
     Harris-Foulkes estimate   =    -219.18142533 Ry
     estimated scf accuracy    <      15.12866207 Ry

     iteration #129     ecut=    50.00 Ry     beta= 0.70
     Davidson diagonalization with overlap
     ethr =  9.14E-04,  avg # of iterations =  2.2

     negative rho (up, down):  6.785E-08 0.000E+00

     total cpu time spent up to now is      793.3 secs

     total energy              =    -218.34320921 Ry
     Harris-Foulkes estimate   =    -218.52244082 Ry
     estimated scf accuracy    <      14.18219080 Ry

     iteration #130     ecut=    50.00 Ry     beta= 0.70
     Davidson diagonalization with overlap
     ethr =  9.14E-04,  avg # of iterations =  1.3

     negative rho (up, down):  3.695E-08 0.000E+00

     total cpu time spent up to now is      798.4 secs

     total energy              =    -217.52781554 Ry
     Harris-Foulkes estimate   =    -218.34451982 Ry
     estimated scf accuracy    <      13.74114489 Ry

     iteration #131     ecut=    50.00 Ry     beta= 0.70
     Davidson diagonalization with overlap
     ethr =  9.14E-04,  avg # of iterations =  3.7

     negative rho (up, down):  2.250E-07 0.000E+00

     total cpu time spent up to now is      805.2 secs

     total energy              =    -218.57637055 Ry
     Harris-Foulkes estimate   =    -218.43005463 Ry
     estimated scf accuracy    <       1.77959426 Ry

     iteration #132     ecut=    50.00 Ry     beta= 0.70
     Davidson diagonalization with overlap
     ethr =  9.14E-04,  avg # of iterations =  2.9

     negative rho (up, down):  9.822E-08 0.000E+00

     total cpu time spent up to now is      811.4 secs

     total energy              =    -217.80886817 Ry
     Harris-Foulkes estimate   =    -219.08933687 Ry
     estimated scf accuracy    <       8.75747361 Ry

     iteration #133     ecut=    50.00 Ry     beta= 0.70
     Davidson diagonalization with overlap
     ethr =  9.14E-04,  avg # of iterations =  2.2

     total cpu time spent up to now is      817.4 secs

     total energy              =    -218.57356207 Ry
     Harris-Foulkes estimate   =    -218.50113306 Ry
     estimated scf accuracy    <       3.35706459 Ry

     iteration #134     ecut=    50.00 Ry     beta= 0.70
     Davidson diagonalization with overlap
     ethr =  9.14E-04,  avg # of iterations =  1.2

     negative rho (up, down):  1.714E-07 0.000E+00

     total cpu time spent up to now is      822.4 secs

     total energy              =    -218.71312168 Ry
     Harris-Foulkes estimate   =    -218.60347273 Ry
     estimated scf accuracy    <       3.61429618 Ry

     iteration #135     ecut=    50.00 Ry     beta= 0.70
     Davidson diagonalization with overlap
     ethr =  9.14E-04,  avg # of iterations =  1.1

     negative rho (up, down):  1.005E-07 0.000E+00

     total cpu time spent up to now is      827.3 secs

     total energy              =    -218.77676778 Ry
     Harris-Foulkes estimate   =    -218.72908342 Ry
     estimated scf accuracy    <       3.87680944 Ry

     iteration #136     ecut=    50.00 Ry     beta= 0.70
     Davidson diagonalization with overlap
     ethr =  9.14E-04,  avg # of iterations =  1.0

     total cpu time spent up to now is      832.3 secs

     total energy              =    -218.90000056 Ry
     Harris-Foulkes estimate   =    -218.77816073 Ry
     estimated scf accuracy    <       3.94116026 Ry

     iteration #137     ecut=    50.00 Ry     beta= 0.70
     Davidson diagonalization with overlap
     ethr =  9.14E-04,  avg # of iterations =  1.1

     total cpu time spent up to now is      837.3 secs

     total energy              =    -218.90732593 Ry
     Harris-Foulkes estimate   =    -218.93159744 Ry
     estimated scf accuracy    <       4.47970643 Ry

     iteration #138     ecut=    50.00 Ry     beta= 0.70
     Davidson diagonalization with overlap
     ethr =  9.14E-04,  avg # of iterations =  1.1

     negative rho (up, down):  1.786E-08 0.000E+00

     total cpu time spent up to now is      842.3 secs

     total energy              =    -218.75015379 Ry
     Harris-Foulkes estimate   =    -218.94696293 Ry
     estimated scf accuracy    <       3.74075451 Ry

     iteration #139     ecut=    50.00 Ry     beta= 0.70
     Davidson diagonalization with overlap
     ethr =  9.14E-04,  avg # of iterations =  1.2

     negative rho (up, down):  3.500E-04 0.000E+00

     total cpu time spent up to now is      847.3 secs

     total energy              =    -218.93436896 Ry
     Harris-Foulkes estimate   =    -218.79533670 Ry
     estimated scf accuracy    <       4.50494652 Ry

     iteration #140     ecut=    50.00 Ry     beta= 0.70
     Davidson diagonalization with overlap
     ethr =  9.14E-04,  avg # of iterations =  2.2

     negative rho (up, down):  3.819E-05 0.000E+00

     total cpu time spent up to now is      853.0 secs

     total energy              =    -217.70020704 Ry
     Harris-Foulkes estimate   =    -219.33855572 Ry
     estimated scf accuracy    <       9.91431865 Ry

     iteration #141     ecut=    50.00 Ry     beta= 0.70
     Davidson diagonalization with overlap
     ethr =  9.14E-04,  avg # of iterations =  2.4

     negative rho (up, down):  7.703E-07 0.000E+00

     total cpu time spent up to now is      859.1 secs

     total energy              =    -218.30809057 Ry
     Harris-Foulkes estimate   =    -218.89355099 Ry
     estimated scf accuracy    <      14.76266765 Ry

     iteration #142     ecut=    50.00 Ry     beta= 0.70
     Davidson diagonalization with overlap
     ethr =  9.14E-04,  avg # of iterations =  1.0

     negative rho (up, down):  5.095E-07 0.000E+00

     total cpu time spent up to now is      864.0 secs

     total energy              =    -218.30376104 Ry
     Harris-Foulkes estimate   =    -218.31927368 Ry
     estimated scf accuracy    <       1.27726612 Ry

     iteration #143     ecut=    50.00 Ry     beta= 0.70
     Davidson diagonalization with overlap
     ethr =  9.14E-04,  avg # of iterations =  1.0

[...]
    -4.6387  -4.6334  -4.6162  -4.5716  -1.1653

     occupation numbers 
     1.0000   1.0000   1.0000   1.0000   1.0000   1.0000   1.0000   1.0000
     1.0000   1.0000   1.0000   1.0000   1.0747   1.0793   0.9967   0.9758
     0.5671   0.3015   0.0057   0.0000   0.0000

          k = 0.1250-0.5000 0.3733 ( 25358 PWs)   bands (ev):

   -36.2125 -19.6416 -19.6416 -19.6414 -19.4109 -19.4021 -19.4021 -15.3453
    -5.1003  -5.0471  -4.9579  -4.7531  -4.6970  -4.6563  -4.6500  -4.6473
    -4.6373  -4.6351  -4.6344  -4.5736  -1.1386

     occupation numbers 
     1.0000   1.0000   1.0000   1.0000   1.0000   1.0000   1.0000   1.0000
     1.0000   1.0000   1.0000   1.0000   1.0000   1.0808   1.0437   0.9757
     0.4900   0.3796   0.3454   0.0000   0.0000

          k = 0.1250-0.5000-0.4977 ( 25384 PWs)   bands (ev):

   -36.2125 -19.6416 -19.6416 -19.6414 -19.4109 -19.4021 -19.4021 -15.3453
    -5.0998  -5.0190  -4.9570  -4.7567  -4.7232  -4.6575  -4.6506  -4.6472
    -4.6368  -4.6364  -4.6352  -4.5744  -1.1270

     occupation numbers 
     1.0000   1.0000   1.0000   1.0000   1.0000   1.0000   1.0000   1.0000
     1.0000   1.0000   1.0000   1.0000   1.0000   1.0753   1.0538   0.9751
     0.4659   0.4424   0.3831   0.0000   0.0000

          k = 0.2500 0.2500 0.0000 ( 25348 PWs)   bands (ev):

   -36.2125 -19.6416 -19.6416 -19.6414 -19.4109 -19.4022 -19.4020 -15.3451
    -5.1576  -5.0589  -5.0583  -4.6667  -4.6618  -4.6494  -4.6476  -4.6447
    -4.6396  -4.6131  -4.6076  -4.5537  -1.2269

     occupation numbers 
     1.0000   1.0000   1.0000   1.0000   1.0000   1.0000   1.0000   1.0000
     1.0000   1.0000   1.0000   1.0200   1.0475   1.0327   0.9867   0.8798
     0.6180   0.0019   0.0002   0.0000   0.0000

          k = 0.2500 0.2500 0.1244 ( 25345 PWs)   bands (ev):

   -36.2125 -19.6416 -19.6416 -19.6414 -19.4109 -19.4022 -19.4020 -15.3451
    -5.1426  -5.0583  -5.0578  -4.6666  -4.6617  -4.6512  -4.6467  -4.6447
    -4.6394  -4.6152  -4.6087  -4.5707  -1.2155

     occupation numbers 
     1.0000   1.0000   1.0000   1.0000   1.0000   1.0000   1.0000   1.0000
     1.0000   1.0000   1.0000   1.0206   1.0482   1.0626   0.9578   0.8794
     0.6061   0.0040   0.0004   0.0000   0.0000

          k = 0.2500 0.2500 0.2489 ( 25355 PWs)   bands (ev):

   -36.2125 -19.6416 -19.6416 -19.6414 -19.4109 -19.4022 -19.4020 -15.3452
    -5.1019  -5.0564  -5.0561  -4.6670  -4.6615  -4.6584  -4.6477  -4.6446
    -4.6388  -4.6256  -4.6116  -4.6047  -1.1867

     occupation numbers 
     1.0000   1.0000   1.0000   1.0000   1.0000   1.0000   1.0000   1.0000
     1.0000   1.0000   1.0000   1.0188   1.0497   1.0706   0.9893   0.8750
     0.5743   0.0707   0.0011   0.0001   0.0000

          k = 0.2500 0.2500 0.3733 ( 25347 PWs)   bands (ev):

   -36.2125 -19.6416 -19.6416 -19.6414 -19.4109 -19.4022 -19.4020 -15.3452
    -5.0619  -5.0551  -5.0421  -4.7020  -4.6646  -4.6613  -4.6507  -4.6444
    -4.6381  -4.6342  -4.6160  -4.6146  -1.1558

     occupation numbers 
     1.0000   1.0000   1.0000   1.0000   1.0000   1.0000   1.0000   1.0000
     1.0000   1.0000   1.0000   1.0000   1.0303   1.0512   1.0550   0.8646
     0.5351   0.3377   0.0053   0.0033   0.0000

          k = 0.2500 0.2500-0.4977 ( 25342 PWs)   bands (ev):

   -36.2125 -19.6416 -19.6416 -19.6414 -19.4109 -19.4022 -19.4020 -15.3453
    -5.0580  -5.0545  -5.0172  -4.7314  -4.6645  -4.6612  -4.6515  -4.6442
    -4.6377  -4.6343  -4.6187  -4.6160  -1.1423

     occupation numbers 
     1.0000   1.0000   1.0000   1.0000   1.0000   1.0000   1.0000   1.0000
     1.0000   1.0000   1.0000   1.0000   1.0309   1.0516   1.0660   0.8586
     0.5155   0.3409   0.0120   0.0052   0.0000

          k = 0.2500 0.3750 0.0000 ( 25375 PWs)   bands (ev):

   -36.2125 -19.6416 -19.6416 -19.6414 -19.4109 -19.4022 -19.4021 -15.3451
    -5.1567  -5.0573  -4.9973  -4.7137  -4.6620  -4.6518  -4.6473  -4.6454
    -4.6390  -4.6309  -4.6130  -4.5555  -1.1901

     occupation numbers 
     1.0000   1.0000   1.0000   1.0000   1.0000   1.0000   1.0000   1.0000
     1.0000   1.0000   1.0000   1.0000   1.0463   1.0693   0.9770   0.9076
     0.5836   0.2031   0.0019   0.0000   0.0000

          k = 0.2500 0.3750 0.1244 ( 25370 PWs)   bands (ev):

   -36.2125 -19.6416 -19.6416 -19.6414 -19.4109 -19.4022 -19.4021 -15.3452
    -5.1416  -5.0566  -4.9966  -4.7136  -4.6620  -4.6524  -4.6476  -4.6458
    -4.6385  -4.6316  -4.6148  -4.5732  -1.1800

     occupation numbers 
     1.0000   1.0000   1.0000   1.0000   1.0000   1.0000   1.0000   1.0000
     1.0000   1.0000   1.0000   1.0000   1.0464   1.0744   0.9869   0.9260
     0.5594   0.2266   0.0035   0.0000   0.0000

          k = 0.2500 0.3750 0.2489 ( 25358 PWs)   bands (ev):

   -36.2125 -19.6416 -19.6416 -19.6414 -19.4109 -19.4022 -19.4021 -15.3452
    -5.1006  -5.0549  -4.9948  -4.7134  -4.6625  -4.6559  -4.6500  -4.6475
    -4.6377  -4.6340  -4.6238  -4.6097  -1.1546

     occupation numbers 
     1.0000   1.0000   1.0000   1.0000   1.0000   1.0000   1.0000   1.0000
     1.0000   1.0000   1.0000   1.0000   1.0428   1.0817   1.0443   0.9845
     0.5121   0.3272   0.0469   0.0006   0.0000

          k = 0.2500 0.3750 0.3733 ( 25348 PWs)   bands (ev):

   -36.2125 -19.6416 -19.6416 -19.6414 -19.4109 -19.4022 -19.4021 -15.3453
    -5.0581  -5.0435  -4.9928  -4.7172  -4.6938  -4.6612  -4.6539  -4.6494
    -4.6372  -4.6365  -4.6326  -4.6192  -1.1276

     occupation numbers 
     1.0000   1.0000   1.0000   1.0000   1.0000   1.0000   1.0000   1.0000
     1.0000   1.0000   1.0000   1.0000   1.0000   1.0519   1.0823   1.0331
     0.4867   0.4518   0.2667   0.0140   0.0000

          k = 0.2500 0.3750-0.4977 ( 25360 PWs)   bands (ev):

   -36.2125 -19.6416 -19.6416 -19.6414 -19.4109 -19.4022 -19.4021 -15.3453
    -5.0550  -5.0183  -4.9914  -4.7345  -4.7063  -4.6613  -4.6550  -4.6498
    -4.6366  -4.6356  -4.6343  -4.6217  -1.1158

     occupation numbers 
     1.0000   1.0000   1.0000   1.0000   1.0000   1.0000   1.0000   1.0000
     1.0000   1.0000   1.0000   1.0000   1.0000   1.0511   1.0832   1.0400
     0.4549   0.4059   0.3381   0.0274   0.0000

          k = 0.2500-0.5000 0.0000 ( 25368 PWs)   bands (ev):

   -36.2125 -19.6416 -19.6416 -19.6414 -19.4109 -19.4021 -19.4021 -15.3452
    -5.1563  -5.0567  -4.9609  -4.7509  -4.6608  -4.6533  -4.6465  -4.6460
    -4.6393  -4.6329  -4.6144  -4.5563  -1.1739

     occupation numbers 
     1.0000   1.0000   1.0000   1.0000   1.0000   1.0000   1.0000   1.0000
     1.0000   1.0000   1.0000   1.0000   1.0544   1.0803   0.9516   0.9338
     0.5997   0.2785   0.0031   0.0000   0.0000

          k = 0.2500-0.5000 0.1244 ( 25368 PWs)   bands (ev):

   -36.2125 -19.6416 -19.6416 -19.6414 -19.4109 -19.4021 -19.4021 -15.3452
    -5.1412  -5.0561  -4.9600  -4.7510  -4.6609  -4.6535  -4.6477  -4.6465
    -4.6384  -4.6331  -4.6163  -4.5742  -1.1644

     occupation numbers 
     1.0000   1.0000   1.0000   1.0000   1.0000   1.0000   1.0000   1.0000
     1.0000   1.0000   1.0000   1.0000   1.0536   1.0808   0.9879   0.9487
     0.5542   0.2848   0.0059   0.0000   0.0000

          k = 0.2500-0.5000 0.2489 ( 25342 PWs)   bands (ev):

   -36.2125 -19.6416 -19.6416 -19.6414 -19.4109 -19.4021 -19.4021 -15.3453
    -5.1001  -5.0543  -4.9579  -4.7514  -4.6617  -4.6543  -4.6503  -4.6501
    -4.6371  -4.6335  -4.6273  -4.6112  -1.1406

     occupation numbers 
     1.0000   1.0000   1.0000   1.0000   1.0000   1.0000   1.0000   1.0000
     1.0000   1.0000   1.0000   1.0000   1.0482   1.0830   1.0485   1.0464
     0.4826   0.3034   0.1035   0.0010   0.0000

          k = 0.2500-0.5000 0.3733 ( 25368 PWs)   bands (ev):

   -36.2125 -19.6416 -19.6416 -19.6414 -19.4109 -19.4021 -19.4021 -15.3453
    -5.0574  -5.0427  -4.9557  -4.7532  -4.6949  -4.6603  -4.6563  -4.6513
    -4.6366  -4.6360  -4.6342  -4.6212  -1.1153

     occupation numbers 
     1.0000   1.0000   1.0000   1.0000   1.0000   1.0000   1.0000   1.0000
     1.0000   1.0000   1.0000   1.0000   1.0000   1.0581   1.0806   1.0634
     0.4577   0.4242   0.3344   0.0241   0.0000

          k = 0.2500-0.5000-0.4977 ( 25368 PWs)   bands (ev):

   -36.2125 -19.6416 -19.6416 -19.6414 -19.4109 -19.4021 -19.4021 -15.3454
    -5.0544  -5.0168  -4.9548  -4.7568  -4.7219  -4.6606  -4.6574  -4.6514
    -4.6358  -4.6352  -4.6349  -4.6241  -1.1043

     occupation numbers 
     1.0000   1.0000   1.0000   1.0000   1.0000   1.0000   1.0000   1.0000
     1.0000   1.0000   1.0000   1.0000   1.0000   1.0560   1.0761   1.0651
     0.4155   0.3826   0.3684   0.0504   0.0000

          k = 0.3750 0.3750 0.0000 ( 25408 PWs)   bands (ev):

   -36.2125 -19.6416 -19.6416 -19.6414 -19.4109 -19.4021 -19.4021 -15.3452
    -5.1558  -4.9960  -4.9951  -4.7174  -4.7077  -4.6556  -4.6467  -4.6456
    -4.6373  -4.6347  -4.6313  -4.5574  -1.1591

     occupation numbers 
     1.0000   1.0000   1.0000   1.0000   1.0000   1.0000   1.0000   1.0000
     1.0000   1.0000   1.0000   1.0000   1.0000   1.0825   0.9567   0.9185
     0.4910   0.3575   0.2163   0.0000   0.0000

          k = 0.3750 0.3750 0.1244 ( 25369 PWs)   bands (ev):

   -36.2125 -19.6416 -19.6416 -19.6414 -19.4109 -19.4021 -19.4021 -15.3452
    -5.1407  -4.9952  -4.9944  -4.7174  -4.7075  -4.6556  -4.6478  -4.6467
    -4.6370  -4.6352  -4.6317  -4.5758  -1.1499

     occupation numbers 
     1.0000   1.0000   1.0000   1.0000   1.0000   1.0000   1.0000   1.0000
     1.0000   1.0000   1.0000   1.0000   1.0000   1.0825   0.9929   0.9577
     0.4773   0.3830   0.2301   0.0000   0.0000

          k = 0.3750 0.3750 0.2489 ( 25349 PWs)   bands (ev):

   -36.2125 -19.6416 -19.6416 -19.6414 -19.4109 -19.4021 -19.4021 -15.3453
    -5.0992  -4.9934  -4.9927  -4.7176  -4.7067  -4.6561  -4.6526  -4.6493
    -4.6383  -4.6365  -4.6326  -4.6204  -1.1265

     occupation numbers 
     1.0000   1.0000   1.0000   1.0000   1.0000   1.0000   1.0000   1.0000
     1.0000   1.0000   1.0000   1.0000   1.0000   1.0812   1.0759   1.0306
     0.5460   0.4501   0.2643   0.0197   0.0000

          k = 0.3750 0.3750 0.3733 ( 25359 PWs)   bands (ev):

   -36.2125 -19.6416 -19.6416 -19.6414 -19.4109 -19.4021 -19.4021 -15.3454
    -5.0468  -4.9910  -4.9909  -4.7225  -4.7059  -4.6890  -4.6558  -4.6520
    -4.6483  -4.6360  -4.6340  -4.6335  -1.1017

     occupation numbers 
     1.0000   1.0000   1.0000   1.0000   1.0000   1.0000   1.0000   1.0000
     1.0000   1.0000   1.0000   1.0000   1.0000   1.0000   1.0820   1.0715
     1.0053   0.4245   0.3276   0.3020   0.0000

          k = 0.3750 0.3750-0.4977 ( 25346 PWs)   bands (ev):

   -36.2125 -19.6416 -19.6416 -19.6414 -19.4109 -19.4021 -19.4021 -15.3454
    -5.0196  -4.9902  -4.9891  -4.7375  -4.7056  -4.7046  -4.6562  -4.6532
    -4.6498  -4.6358  -4.6348  -4.6339  -1.0910

     occupation numbers 
     1.0000   1.0000   1.0000   1.0000   1.0000   1.0000   1.0000   1.0000
     1.0000   1.0000   1.0000   1.0000   1.0000   1.0000   1.0810   1.0795
     1.0394   0.4122   0.3621   0.3200   0.0000

          k = 0.3750-0.5000 0.0000 ( 25366 PWs)   bands (ev):

   -36.2125 -19.6416 -19.6416 -19.6414 -19.4109 -19.4021 -19.4021 -15.3452
    -5.1554  -4.9948  -4.9586  -4.7515  -4.7114  -4.6570  -4.6461  -4.6460
    -4.6378  -4.6346  -4.6335  -4.5582  -1.1456

     occupation numbers 
     1.0000   1.0000   1.0000   1.0000   1.0000   1.0000   1.0000   1.0000
     1.0000   1.0000   1.0000   1.0000   1.0000   1.0777   0.9376   0.9326
     0.5180   0.3550   0.3035   0.0000   0.0000

          k = 0.3750-0.5000 0.1244 ( 25364 PWs)   bands (ev):

   -36.2125 -19.6416 -19.6416 -19.6414 -19.4109 -19.4021 -19.4021 -15.3453
    -5.1403  -4.9941  -4.9577  -4.7516  -4.7112  -4.6570  -4.6477  -4.6473
    -4.6371  -4.6350  -4.6335  -4.5769  -1.1367

     occupation numbers 
     1.0000   1.0000   1.0000   1.0000   1.0000   1.0000   1.0000   1.0000
     1.0000   1.0000   1.0000   1.0000   1.0000   1.0779   0.9887   0.9757
     0.4834   0.3737   0.3058   0.0000   0.0000

          k = 0.3750-0.5000 0.2489 ( 25360 PWs)   bands (ev):

   -36.2125 -19.6416 -19.6416 -19.6414 -19.4109 -19.4021 -19.4021 -15.3454
    -5.0987  -4.9923  -4.9556  -4.7521  -4.7108  -4.6569  -4.6513  -4.6511
    -4.6374  -4.6361  -4.6337  -4.6236  -1.1143

     occupation numbers 
     1.0000   1.0000   1.0000   1.0000   1.0000   1.0000   1.0000   1.0000
     1.0000   1.0000   1.0000   1.0000   1.0000   1.0782   1.0643   1.0613
     0.5003   0.4305   0.3125   0.0449   0.0000

          k = 0.3750-0.5000 0.3733 ( 25358 PWs)   bands (ev):

   -36.2125 -19.6416 -19.6416 -19.6414 -19.4109 -19.4021 -19.4021 -15.3454
    -5.0459  -4.9902  -4.9535  -4.7540  -4.7125  -4.6884  -4.6571  -4.6539
    -4.6503  -4.6354  -4.6349  -4.6339  -1.0905

     occupation numbers 
     1.0000   1.0000   1.0000   1.0000   1.0000   1.0000   1.0000   1.0000
     1.0000   1.0000   1.0000   1.0000   1.0000   1.0000   1.0772   1.0823
     1.0490   0.3945   0.3667   0.3226   0.0000

          k = 0.3750-0.5000-0.4977 ( 25376 PWs)   bands (ev):

   -36.2125 -19.6416 -19.6416 -19.6414 -19.4109 -19.4021 -19.4021 -15.3455
    -5.0181  -4.9889  -4.9525  -4.7580  -4.7239  -4.7043  -4.6575  -4.6548
    -4.6519  -4.6353  -4.6351  -4.6341  -1.0802

     occupation numbers 
     1.0000   1.0000   1.0000   1.0000   1.0000   1.0000   1.0000   1.0000
     1.0000   1.0000   1.0000   1.0000   1.0000   1.0000   1.0754   1.0833
     1.0707   0.3873   0.3808   0.3292   0.0000

          k =-0.5000-0.5000 0.0000 ( 25420 PWs)   bands (ev):

   -36.2125 -19.6416 -19.6416 -19.6414 -19.4109 -19.4021 -19.4021 -15.3453
    -5.1550  -4.9577  -4.9577  -4.7570  -4.7444  -4.6585  -4.6460  -4.6460
    -4.6371  -4.6371  -4.6339  -4.5590  -1.1333

     occupation numbers 
     1.0000   1.0000   1.0000   1.0000   1.0000   1.0000   1.0000   1.0000
     1.0000   1.0000   1.0000   1.0000   1.0000   1.0698   0.9322   0.9322
     0.4837   0.4837   0.3211   0.0000   0.0000

          k =-0.5000-0.5000 0.1244 ( 25400 PWs)   bands (ev):

   -36.2125 -19.6416 -19.6416 -19.6414 -19.4109 -19.4021 -19.4021 -15.3453
    -5.1398  -4.9568  -4.9568  -4.7571  -4.7444  -4.6584  -4.6477  -4.6477
    -4.6366  -4.6366  -4.6339  -4.5780  -1.1246

     occupation numbers 
     1.0000   1.0000   1.0000   1.0000   1.0000   1.0000   1.0000   1.0000
     1.0000   1.0000   1.0000   1.0000   1.0000   1.0704   0.9884   0.9884
     0.4538   0.4538   0.3207   0.0000   0.0000

          k =-0.5000-0.5000 0.2489 ( 25348 PWs)   bands (ev):

   -36.2125 -19.6416 -19.6416 -19.6414 -19.4109 -19.4021 -19.4021 -15.3454
    -5.0982  -4.9547  -4.9547  -4.7579  -4.7444  -4.6582  -4.6512  -4.6512
    -4.6357  -4.6357  -4.6338  -4.6283  -1.1028

     occupation numbers 
     1.0000   1.0000   1.0000   1.0000   1.0000   1.0000   1.0000   1.0000
     1.0000   1.0000   1.0000   1.0000   1.0000   1.0716   1.0623   1.0623
     0.4107   0.4107   0.3194   0.1255   0.0000

          k =-0.5000-0.5000 0.3733 ( 25348 PWs)   bands (ev):

   -36.2125 -19.6416 -19.6416 -19.6414 -19.4109 -19.4021 -19.4021 -15.3455
    -5.0451  -4.9525  -4.9525  -4.7606  -4.7444  -4.6881  -4.6580  -4.6544
    -4.6544  -4.6353  -4.6353  -4.6338  -1.0798

     occupation numbers 
     1.0000   1.0000   1.0000   1.0000   1.0000   1.0000   1.0000   1.0000
     1.0000   1.0000   1.0000   1.0000   1.0000   1.0000   1.0727   1.0831
     1.0831   0.3866   0.3866   0.3180   0.0000

          k =-0.5000-0.5000-0.4977 ( 25360 PWs)   bands (ev):

   -36.2125 -19.6416 -19.6416 -19.6414 -19.4109 -19.4021 -19.4021 -15.3455
    -5.0166  -4.9516  -4.9516  -4.7651  -4.7444  -4.7160  -4.6579  -4.6557
    -4.6557  -4.6351  -4.6351  -4.6338  -1.0698

     occupation numbers 
     1.0000   1.0000   1.0000   1.0000   1.0000   1.0000   1.0000   1.0000
     1.0000   1.0000   1.0000   1.0000   1.0000   1.0000   1.0732   1.0823
     1.0823   0.3804   0.3804   0.3176   0.0000

     the Fermi energy is    -4.6355 ev

!    total energy              =    -218.25176401 Ry
     Harris-Foulkes estimate   =    -218.25176401 Ry
     estimated scf accuracy    <          4.7E-11 Ry

     The total energy is the sum of the following terms:

     one-electron contribution =    -156.12769848 Ry
     hartree contribution      =      84.49245392 Ry
     xc contribution           =     -77.81735156 Ry
     ewald contribution        =     -68.79922201 Ry
     smearing contrib. (-TS)   =       0.00005412 Ry

     convergence has been achieved in 304 iterations

     negative rho (up, down):  1.373E-07 0.000E+00

     Forces acting on atoms (cartesian axes, Ry/au):

     atom    1 type  2   force =     0.00000000    0.00000000   -0.00050918
     atom    2 type  1   force =     0.00000000    0.00000000   -0.00725748
     atom    3 type  3   force =     0.00000000    0.00000000    0.00837635
     atom    4 type  3   force =     0.00000000    0.00000000   -0.00030484
     atom    5 type  3   force =     0.00000000    0.00000000   -0.00030484
     The non-local contrib.  to forces
     atom    1 type  2   force =     0.00000000    0.00000000    0.00036944
     atom    2 type  1   force =     0.00000000    0.00000000   -0.01082439
     atom    3 type  3   force =     0.00000000    0.00000000    0.02966960
     atom    4 type  3   force =     0.00000000    0.00000000   -0.00152702
     atom    5 type  3   force =     0.00000000    0.00000000   -0.00152702
     The ionic contribution  to forces
     atom    1 type  2   force =    -0.00000000   -0.00000000    0.03947177
     atom    2 type  1   force =     0.00000000    0.00000000    0.18109633
     atom    3 type  3   force =     0.00000000    0.00000000   -0.34912102
     atom    4 type  3   force =     0.00000000   -0.00000000    0.06427646
     atom    5 type  3   force =    -0.00000000    0.00000000    0.06427646
     The local contribution  to forces
     atom    1 type  2   force =    -0.00000000   -0.00000000   -0.04035906
     atom    2 type  1   force =    -0.00000000   -0.00000000   -0.17913585
     atom    3 type  3   force =     0.00000000    0.00000000    0.32811598
     atom    4 type  3   force =     0.00000000   -0.00000000   -0.06308342
     atom    5 type  3   force =    -0.00000000    0.00000000   -0.06308342
     The core correction contribution to forces
     atom    1 type  2   force =     0.00000000    0.00000000    0.00000332
     atom    2 type  1   force =    -0.00000000   -0.00000000    0.00160032
     atom    3 type  3   force =    -0.00000000   -0.00000000   -0.00029202
     atom    4 type  3   force =     0.00000000    0.00000000    0.00002493
     atom    5 type  3   force =     0.00000000   -0.00000000    0.00002493
     The Hubbard contrib.    to forces
     atom    1 type  2   force =     0.00000000    0.00000000    0.00000000
     atom    2 type  1   force =     0.00000000    0.00000000    0.00000000
     atom    3 type  3   force =     0.00000000    0.00000000    0.00000000
     atom    4 type  3   force =     0.00000000    0.00000000    0.00000000
     atom    5 type  3   force =     0.00000000    0.00000000    0.00000000
     The SCF correction term to forces
     atom    1 type  2   force =    -0.00000000    0.00000000    0.00000121
     atom    2 type  1   force =     0.00000000   -0.00000000    0.00000195
     atom    3 type  3   force =    -0.00000000   -0.00000000   -0.00000033
     atom    4 type  3   force =    -0.00000000   -0.00000000    0.00000005
     atom    5 type  3   force =    -0.00000000   -0.00000000    0.00000005

     Total force =     0.011103     Total SCF correction =     0.000002

     number of scf cycles    =   2
     number of bfgs steps    =   1

     energy   old            =    -270.4276802235 Ry
     energy   new            =    -218.2517640070 Ry

     CASE: energy  _new > energy  _old


 %%%%%%%%%%%%%%%%%%%%%%%%%%%%%%%%%%%%%%%%%%%%%%%%%%%%%%%%%%%%%%%%%%%%%%%%%%%%%%
     Error in routine bfgs (1):
     dE0s is positive which should never happen
 %%%%%%%%%%%%%%%%%%%%%%%%%%%%%%%%%%%%%%%%%%%%%%%%%%%%%%%%%%%%%%%%%%%%%%%%%%%%%%

     stopping ...
