
     Program PWSCF v.6.3MaX starts on  8Mar2019 at  2:59:38 

     This program is part of the open-source Quantum ESPRESSO suite
     for quantum simulation of materials; please cite
         "P. Giannozzi et al., J. Phys.:Condens. Matter 21 395502 (2009);
         "P. Giannozzi et al., J. Phys.:Condens. Matter 29 465901 (2017);
          URL http://www.quantum-espresso.org", 
     in publications or presentations arising from this work. More details at
     http://www.quantum-espresso.org/quote

     Parallel version (MPI & OpenMP), running on      20 processor cores
     Number of MPI processes:                20
     Threads/MPI process:                     1

     MPI processes distributed on     1 nodes
     R & G space division:  proc/nbgrp/npool/nimage =      20
     Reading input from /home/azadoks/dftman/projects/ABO3 Tetragonal/PBSJobs/SrTcO3221_8a268dc6fa60/pwscf.in
Warning: card &CELL ignored
Warning: card / ignored

     Current dimensions of program PWSCF are:
     Max number of different atomic species (ntypx) = 10
     Max number of k-points (npk) =  40000
     Max angular momentum in pseudopotentials (lmaxx) =  3
     Message from routine iosys:
     minimal I/O required, wf_collect reset to FALSE

     Subspace diagonalization in iterative solution of the eigenvalue problem:
     one sub-group per band group will be used
     scalapack distributed-memory algorithm (size of sub-group:  3*  3 procs)

 
     Parallelization info
     --------------------
     sticks:   dense  smooth     PW     G-vecs:    dense   smooth      PW
     Min          44      44     13                 1018     1018     169
     Max          45      45     14                 1021     1021     172
     Sum         885     885    277                20375    20375    3407
 


     bravais-lattice index     =            0
     lattice parameter (alat)  =       7.5324  a.u.
     unit-cell volume          =     429.3126 (a.u.)^3
     number of atoms/cell      =            5
     number of atomic types    =            3
     number of electrons       =        43.00
     number of Kohn-Sham states=           26
     kinetic-energy cutoff     =      50.0000  Ry
     charge density cutoff     =     200.0000  Ry
     convergence threshold     =      1.0E-08
     mixing beta               =       0.7000
     number of iterations used =            8  plain     mixing
     Exchange-correlation      = SLA  PW   PBE  PBE ( 1  4  3  4 0 0)
     nstep                     =           50


     celldm(1)=   7.532411  celldm(2)=   0.000000  celldm(3)=   0.000000
     celldm(4)=   0.000000  celldm(5)=   0.000000  celldm(6)=   0.000000

     crystal axes: (cart. coord. in units of alat)
               a(1) = (   1.000000   0.000000   0.000000 )  
               a(2) = (   0.000000   1.000000   0.000000 )  
               a(3) = (   0.000000   0.000000   1.004550 )  

     reciprocal axes: (cart. coord. in units 2 pi/alat)
               b(1) = (  1.000000  0.000000  0.000000 )  
               b(2) = (  0.000000  1.000000  0.000000 )  
               b(3) = (  0.000000  0.000000  0.995470 )  


     PseudoPot. # 1 for O  read from file:
     /home/azadoks/.local/share/pseudo/GBRV_PBE_US/o_pbe_v1.2.uspp.F.UPF
     MD5 check sum: 734c27235a0248c51dbae37a1fbe46ec
     Pseudo is Ultrasoft + core correction, Zval =  6.0
     Generated by new atomic code, or converted to UPF format
     Using radial grid of  737 points,  5 beta functions with: 
                l(1) =   0
                l(2) =   0
                l(3) =   1
                l(4) =   1
                l(5) =   2
     Q(r) pseudized with  8 coefficients,  rinner =    0.900   0.900   0.900
                                                       0.900   0.900

     PseudoPot. # 2 for Sr read from file:
     /home/azadoks/.local/share/pseudo/GBRV_PBE_US/sr_pbe_v1.uspp.F.UPF
     MD5 check sum: 6b418c05fbe9db5448babca5e47b7a5b
     Pseudo is Ultrasoft + core correction, Zval = 10.0
     Generated by new atomic code, or converted to UPF format
     Using radial grid of  883 points,  6 beta functions with: 
                l(1) =   0
                l(2) =   0
                l(3) =   1
                l(4) =   1
                l(5) =   2
                l(6) =   2
     Q(r) pseudized with  6 coefficients,  rinner =    1.400   1.400   1.400
                                                       1.400   1.400

     PseudoPot. # 3 for Tc read from file:
     /home/azadoks/.local/share/pseudo/GBRV_PBE_US/tc_pbe_v1.uspp.F.UPF
     MD5 check sum: 9eb49e5b028550b2339a02317eb7b844
     Pseudo is Ultrasoft + core correction, Zval = 15.0
     Generated by new atomic code, or converted to UPF format
     Using radial grid of  965 points,  6 beta functions with: 
                l(1) =   0
                l(2) =   0
                l(3) =   1
                l(4) =   1
                l(5) =   2
                l(6) =   2
     Q(r) pseudized with  8 coefficients,  rinner =    1.300   1.300   1.300
                                                       1.300   1.300

     atomic species   valence    mass     pseudopotential
        O              6.00    15.99940     O ( 1.00)
        Sr            10.00    87.62000     Sr( 1.00)
        Tc            15.00    98.00000     Tc( 1.00)

      8 Sym. Ops. (no inversion) found


                                    s                        frac. trans.

      isym =  1     identity                                     

 cryst.   s( 1) = (     1          0          0      )
                  (     0          1          0      )
                  (     0          0          1      )

 cart.    s( 1) = (  1.0000000  0.0000000  0.0000000 )
                  (  0.0000000  1.0000000  0.0000000 )
                  (  0.0000000  0.0000000  1.0000000 )


      isym =  2     180 deg rotation - cart. axis [0,0,1]        

 cryst.   s( 2) = (    -1          0          0      )
                  (     0         -1          0      )
                  (     0          0          1      )

 cart.    s( 2) = ( -1.0000000  0.0000000  0.0000000 )
                  (  0.0000000 -1.0000000  0.0000000 )
                  (  0.0000000  0.0000000  1.0000000 )


      isym =  3      90 deg rotation - cart. axis [0,0,-1]       

 cryst.   s( 3) = (     0         -1          0      )
                  (     1          0          0      )
                  (     0          0          1      )

 cart.    s( 3) = (  0.0000000  1.0000000  0.0000000 )
                  ( -1.0000000  0.0000000  0.0000000 )
                  (  0.0000000  0.0000000  1.0000000 )


      isym =  4      90 deg rotation - cart. axis [0,0,1]        

 cryst.   s( 4) = (     0          1          0      )
                  (    -1          0          0      )
                  (     0          0          1      )

 cart.    s( 4) = (  0.0000000 -1.0000000  0.0000000 )
                  (  1.0000000  0.0000000  0.0000000 )
                  (  0.0000000  0.0000000  1.0000000 )


      isym =  5     inv. 180 deg rotation - cart. axis [0,1,0]   

 cryst.   s( 5) = (     1          0          0      )
                  (     0         -1          0      )
                  (     0          0          1      )

 cart.    s( 5) = (  1.0000000  0.0000000  0.0000000 )
                  (  0.0000000 -1.0000000  0.0000000 )
                  (  0.0000000  0.0000000  1.0000000 )


      isym =  6     inv. 180 deg rotation - cart. axis [1,0,0]   

 cryst.   s( 6) = (    -1          0          0      )
                  (     0          1          0      )
                  (     0          0          1      )

 cart.    s( 6) = ( -1.0000000  0.0000000  0.0000000 )
                  (  0.0000000  1.0000000  0.0000000 )
                  (  0.0000000  0.0000000  1.0000000 )


      isym =  7     inv. 180 deg rotation - cart. axis [1,1,0]   

 cryst.   s( 7) = (     0         -1          0      )
                  (    -1          0          0      )
                  (     0          0          1      )

 cart.    s( 7) = (  0.0000000 -1.0000000  0.0000000 )
                  ( -1.0000000  0.0000000  0.0000000 )
                  (  0.0000000  0.0000000  1.0000000 )


      isym =  8     inv. 180 deg rotation - cart. axis [1,-1,0]  

 cryst.   s( 8) = (     0          1          0      )
                  (     1          0          0      )
                  (     0          0          1      )

 cart.    s( 8) = (  0.0000000  1.0000000  0.0000000 )
                  (  1.0000000  0.0000000  0.0000000 )
                  (  0.0000000  0.0000000  1.0000000 )


   Cartesian axes

     site n.     atom                  positions (alat units)
         1           Sr  tau(   1) = (   0.0000000   0.0000000   0.0000000  )
         2           Tc  tau(   2) = (   0.5000000   0.5000000   0.4841932  )
         3           O   tau(   3) = (   0.5000000   0.5000000   0.0160728  )
         4           O   tau(   4) = (   0.5000000   0.0000000   0.5173434  )
         5           O   tau(   5) = (   0.0000000   0.5000000   0.5173434  )

   Crystallographic axes

     site n.     atom                  positions (cryst. coord.)
         1           Sr  tau(   1) = (  0.0000000  0.0000000  0.0000000  )
         2           Tc  tau(   2) = (  0.5000000  0.5000000  0.4820000  )
         3           O   tau(   3) = (  0.5000000  0.5000000  0.0160000  )
         4           O   tau(   4) = (  0.5000000  0.0000000  0.5150000  )
         5           O   tau(   5) = (  0.0000000  0.5000000  0.5150000  )

     number of k points=   405  Marzari-Vanderbilt smearing, width (Ry)=  0.0010
                       cart. coord. in units 2pi/alat
        k(    1) = (   0.0000000   0.0000000   0.0000000), wk =   0.0004883
        k(    2) = (   0.0000000   0.0000000   0.0622169), wk =   0.0009766
        k(    3) = (   0.0000000   0.0000000   0.1244338), wk =   0.0009766
        k(    4) = (   0.0000000   0.0000000   0.1866507), wk =   0.0009766
        k(    5) = (   0.0000000   0.0000000   0.2488676), wk =   0.0009766
        k(    6) = (   0.0000000   0.0000000   0.3110845), wk =   0.0009766
        k(    7) = (   0.0000000   0.0000000   0.3733014), wk =   0.0009766
        k(    8) = (   0.0000000   0.0000000   0.4355183), wk =   0.0009766
        k(    9) = (   0.0000000   0.0000000  -0.4977352), wk =   0.0004883
        k(   10) = (   0.0000000   0.0625000   0.0000000), wk =   0.0019531
        k(   11) = (   0.0000000   0.0625000   0.0622169), wk =   0.0039062
        k(   12) = (   0.0000000   0.0625000   0.1244338), wk =   0.0039062
        k(   13) = (   0.0000000   0.0625000   0.1866507), wk =   0.0039062
        k(   14) = (   0.0000000   0.0625000   0.2488676), wk =   0.0039062
        k(   15) = (   0.0000000   0.0625000   0.3110845), wk =   0.0039062
        k(   16) = (   0.0000000   0.0625000   0.3733014), wk =   0.0039062
        k(   17) = (   0.0000000   0.0625000   0.4355183), wk =   0.0039062
        k(   18) = (   0.0000000   0.0625000  -0.4977352), wk =   0.0019531
        k(   19) = (   0.0000000   0.1250000   0.0000000), wk =   0.0019531
        k(   20) = (   0.0000000   0.1250000   0.0622169), wk =   0.0039062
        k(   21) = (   0.0000000   0.1250000   0.1244338), wk =   0.0039062
        k(   22) = (   0.0000000   0.1250000   0.1866507), wk =   0.0039062
        k(   23) = (   0.0000000   0.1250000   0.2488676), wk =   0.0039062
        k(   24) = (   0.0000000   0.1250000   0.3110845), wk =   0.0039062
        k(   25) = (   0.0000000   0.1250000   0.3733014), wk =   0.0039062
        k(   26) = (   0.0000000   0.1250000   0.4355183), wk =   0.0039062
        k(   27) = (   0.0000000   0.1250000  -0.4977352), wk =   0.0019531
        k(   28) = (   0.0000000   0.1875000   0.0000000), wk =   0.0019531
        k(   29) = (   0.0000000   0.1875000   0.0622169), wk =   0.0039062
        k(   30) = (   0.0000000   0.1875000   0.1244338), wk =   0.0039062
        k(   31) = (   0.0000000   0.1875000   0.1866507), wk =   0.0039062
        k(   32) = (   0.0000000   0.1875000   0.2488676), wk =   0.0039062
        k(   33) = (   0.0000000   0.1875000   0.3110845), wk =   0.0039062
        k(   34) = (   0.0000000   0.1875000   0.3733014), wk =   0.0039062
        k(   35) = (   0.0000000   0.1875000   0.4355183), wk =   0.0039062
        k(   36) = (   0.0000000   0.1875000  -0.4977352), wk =   0.0019531
        k(   37) = (   0.0000000   0.2500000   0.0000000), wk =   0.0019531
        k(   38) = (   0.0000000   0.2500000   0.0622169), wk =   0.0039062
        k(   39) = (   0.0000000   0.2500000   0.1244338), wk =   0.0039062
        k(   40) = (   0.0000000   0.2500000   0.1866507), wk =   0.0039062
        k(   41) = (   0.0000000   0.2500000   0.2488676), wk =   0.0039062
        k(   42) = (   0.0000000   0.2500000   0.3110845), wk =   0.0039062
        k(   43) = (   0.0000000   0.2500000   0.3733014), wk =   0.0039062
        k(   44) = (   0.0000000   0.2500000   0.4355183), wk =   0.0039062
        k(   45) = (   0.0000000   0.2500000  -0.4977352), wk =   0.0019531
        k(   46) = (   0.0000000   0.3125000   0.0000000), wk =   0.0019531
        k(   47) = (   0.0000000   0.3125000   0.0622169), wk =   0.0039062
        k(   48) = (   0.0000000   0.3125000   0.1244338), wk =   0.0039062
        k(   49) = (   0.0000000   0.3125000   0.1866507), wk =   0.0039062
        k(   50) = (   0.0000000   0.3125000   0.2488676), wk =   0.0039062
        k(   51) = (   0.0000000   0.3125000   0.3110845), wk =   0.0039062
        k(   52) = (   0.0000000   0.3125000   0.3733014), wk =   0.0039062
        k(   53) = (   0.0000000   0.3125000   0.4355183), wk =   0.0039062
        k(   54) = (   0.0000000   0.3125000  -0.4977352), wk =   0.0019531
        k(   55) = (   0.0000000   0.3750000   0.0000000), wk =   0.0019531
        k(   56) = (   0.0000000   0.3750000   0.0622169), wk =   0.0039062
        k(   57) = (   0.0000000   0.3750000   0.1244338), wk =   0.0039062
        k(   58) = (   0.0000000   0.3750000   0.1866507), wk =   0.0039062
        k(   59) = (   0.0000000   0.3750000   0.2488676), wk =   0.0039062
        k(   60) = (   0.0000000   0.3750000   0.3110845), wk =   0.0039062
        k(   61) = (   0.0000000   0.3750000   0.3733014), wk =   0.0039062
        k(   62) = (   0.0000000   0.3750000   0.4355183), wk =   0.0039062
        k(   63) = (   0.0000000   0.3750000  -0.4977352), wk =   0.0019531
        k(   64) = (   0.0000000   0.4375000   0.0000000), wk =   0.0019531
        k(   65) = (   0.0000000   0.4375000   0.0622169), wk =   0.0039062
        k(   66) = (   0.0000000   0.4375000   0.1244338), wk =   0.0039062
        k(   67) = (   0.0000000   0.4375000   0.1866507), wk =   0.0039062
        k(   68) = (   0.0000000   0.4375000   0.2488676), wk =   0.0039062
        k(   69) = (   0.0000000   0.4375000   0.3110845), wk =   0.0039062
        k(   70) = (   0.0000000   0.4375000   0.3733014), wk =   0.0039062
        k(   71) = (   0.0000000   0.4375000   0.4355183), wk =   0.0039062
        k(   72) = (   0.0000000   0.4375000  -0.4977352), wk =   0.0019531
        k(   73) = (   0.0000000  -0.5000000   0.0000000), wk =   0.0009766
        k(   74) = (   0.0000000  -0.5000000   0.0622169), wk =   0.0019531
        k(   75) = (   0.0000000  -0.5000000   0.1244338), wk =   0.0019531
        k(   76) = (   0.0000000  -0.5000000   0.1866507), wk =   0.0019531
        k(   77) = (   0.0000000  -0.5000000   0.2488676), wk =   0.0019531
        k(   78) = (   0.0000000  -0.5000000   0.3110845), wk =   0.0019531
        k(   79) = (   0.0000000  -0.5000000   0.3733014), wk =   0.0019531
        k(   80) = (   0.0000000  -0.5000000   0.4355183), wk =   0.0019531
        k(   81) = (   0.0000000  -0.5000000  -0.4977352), wk =   0.0009766
        k(   82) = (   0.0625000   0.0625000   0.0000000), wk =   0.0019531
        k(   83) = (   0.0625000   0.0625000   0.0622169), wk =   0.0039062
        k(   84) = (   0.0625000   0.0625000   0.1244338), wk =   0.0039062
        k(   85) = (   0.0625000   0.0625000   0.1866507), wk =   0.0039062
        k(   86) = (   0.0625000   0.0625000   0.2488676), wk =   0.0039062
        k(   87) = (   0.0625000   0.0625000   0.3110845), wk =   0.0039062
        k(   88) = (   0.0625000   0.0625000   0.3733014), wk =   0.0039062
        k(   89) = (   0.0625000   0.0625000   0.4355183), wk =   0.0039062
        k(   90) = (   0.0625000   0.0625000  -0.4977352), wk =   0.0019531
        k(   91) = (   0.0625000   0.1250000   0.0000000), wk =   0.0039062
        k(   92) = (   0.0625000   0.1250000   0.0622169), wk =   0.0078125
        k(   93) = (   0.0625000   0.1250000   0.1244338), wk =   0.0078125
        k(   94) = (   0.0625000   0.1250000   0.1866507), wk =   0.0078125
        k(   95) = (   0.0625000   0.1250000   0.2488676), wk =   0.0078125
        k(   96) = (   0.0625000   0.1250000   0.3110845), wk =   0.0078125
        k(   97) = (   0.0625000   0.1250000   0.3733014), wk =   0.0078125
        k(   98) = (   0.0625000   0.1250000   0.4355183), wk =   0.0078125
        k(   99) = (   0.0625000   0.1250000  -0.4977352), wk =   0.0039062
        k(  100) = (   0.0625000   0.1875000   0.0000000), wk =   0.0039062
        k(  101) = (   0.0625000   0.1875000   0.0622169), wk =   0.0078125
        k(  102) = (   0.0625000   0.1875000   0.1244338), wk =   0.0078125
        k(  103) = (   0.0625000   0.1875000   0.1866507), wk =   0.0078125
        k(  104) = (   0.0625000   0.1875000   0.2488676), wk =   0.0078125
        k(  105) = (   0.0625000   0.1875000   0.3110845), wk =   0.0078125
        k(  106) = (   0.0625000   0.1875000   0.3733014), wk =   0.0078125
        k(  107) = (   0.0625000   0.1875000   0.4355183), wk =   0.0078125
        k(  108) = (   0.0625000   0.1875000  -0.4977352), wk =   0.0039062
        k(  109) = (   0.0625000   0.2500000   0.0000000), wk =   0.0039062
        k(  110) = (   0.0625000   0.2500000   0.0622169), wk =   0.0078125
        k(  111) = (   0.0625000   0.2500000   0.1244338), wk =   0.0078125
        k(  112) = (   0.0625000   0.2500000   0.1866507), wk =   0.0078125
        k(  113) = (   0.0625000   0.2500000   0.2488676), wk =   0.0078125
        k(  114) = (   0.0625000   0.2500000   0.3110845), wk =   0.0078125
        k(  115) = (   0.0625000   0.2500000   0.3733014), wk =   0.0078125
        k(  116) = (   0.0625000   0.2500000   0.4355183), wk =   0.0078125
        k(  117) = (   0.0625000   0.2500000  -0.4977352), wk =   0.0039062
        k(  118) = (   0.0625000   0.3125000   0.0000000), wk =   0.0039062
        k(  119) = (   0.0625000   0.3125000   0.0622169), wk =   0.0078125
        k(  120) = (   0.0625000   0.3125000   0.1244338), wk =   0.0078125
        k(  121) = (   0.0625000   0.3125000   0.1866507), wk =   0.0078125
        k(  122) = (   0.0625000   0.3125000   0.2488676), wk =   0.0078125
        k(  123) = (   0.0625000   0.3125000   0.3110845), wk =   0.0078125
        k(  124) = (   0.0625000   0.3125000   0.3733014), wk =   0.0078125
        k(  125) = (   0.0625000   0.3125000   0.4355183), wk =   0.0078125
        k(  126) = (   0.0625000   0.3125000  -0.4977352), wk =   0.0039062
        k(  127) = (   0.0625000   0.3750000   0.0000000), wk =   0.0039062
        k(  128) = (   0.0625000   0.3750000   0.0622169), wk =   0.0078125
        k(  129) = (   0.0625000   0.3750000   0.1244338), wk =   0.0078125
        k(  130) = (   0.0625000   0.3750000   0.1866507), wk =   0.0078125
        k(  131) = (   0.0625000   0.3750000   0.2488676), wk =   0.0078125
        k(  132) = (   0.0625000   0.3750000   0.3110845), wk =   0.0078125
        k(  133) = (   0.0625000   0.3750000   0.3733014), wk =   0.0078125
        k(  134) = (   0.0625000   0.3750000   0.4355183), wk =   0.0078125
        k(  135) = (   0.0625000   0.3750000  -0.4977352), wk =   0.0039062
        k(  136) = (   0.0625000   0.4375000   0.0000000), wk =   0.0039062
        k(  137) = (   0.0625000   0.4375000   0.0622169), wk =   0.0078125
        k(  138) = (   0.0625000   0.4375000   0.1244338), wk =   0.0078125
        k(  139) = (   0.0625000   0.4375000   0.1866507), wk =   0.0078125
        k(  140) = (   0.0625000   0.4375000   0.2488676), wk =   0.0078125
        k(  141) = (   0.0625000   0.4375000   0.3110845), wk =   0.0078125
        k(  142) = (   0.0625000   0.4375000   0.3733014), wk =   0.0078125
        k(  143) = (   0.0625000   0.4375000   0.4355183), wk =   0.0078125
        k(  144) = (   0.0625000   0.4375000  -0.4977352), wk =   0.0039062
        k(  145) = (   0.0625000  -0.5000000   0.0000000), wk =   0.0019531
        k(  146) = (   0.0625000  -0.5000000   0.0622169), wk =   0.0039062
        k(  147) = (   0.0625000  -0.5000000   0.1244338), wk =   0.0039062
        k(  148) = (   0.0625000  -0.5000000   0.1866507), wk =   0.0039062
        k(  149) = (   0.0625000  -0.5000000   0.2488676), wk =   0.0039062
        k(  150) = (   0.0625000  -0.5000000   0.3110845), wk =   0.0039062
        k(  151) = (   0.0625000  -0.5000000   0.3733014), wk =   0.0039062
        k(  152) = (   0.0625000  -0.5000000   0.4355183), wk =   0.0039062
        k(  153) = (   0.0625000  -0.5000000  -0.4977352), wk =   0.0019531
        k(  154) = (   0.1250000   0.1250000   0.0000000), wk =   0.0019531
        k(  155) = (   0.1250000   0.1250000   0.0622169), wk =   0.0039062
        k(  156) = (   0.1250000   0.1250000   0.1244338), wk =   0.0039062
        k(  157) = (   0.1250000   0.1250000   0.1866507), wk =   0.0039062
        k(  158) = (   0.1250000   0.1250000   0.2488676), wk =   0.0039062
        k(  159) = (   0.1250000   0.1250000   0.3110845), wk =   0.0039062
        k(  160) = (   0.1250000   0.1250000   0.3733014), wk =   0.0039062
        k(  161) = (   0.1250000   0.1250000   0.4355183), wk =   0.0039062
        k(  162) = (   0.1250000   0.1250000  -0.4977352), wk =   0.0019531
        k(  163) = (   0.1250000   0.1875000   0.0000000), wk =   0.0039062
        k(  164) = (   0.1250000   0.1875000   0.0622169), wk =   0.0078125
        k(  165) = (   0.1250000   0.1875000   0.1244338), wk =   0.0078125
        k(  166) = (   0.1250000   0.1875000   0.1866507), wk =   0.0078125
        k(  167) = (   0.1250000   0.1875000   0.2488676), wk =   0.0078125
        k(  168) = (   0.1250000   0.1875000   0.3110845), wk =   0.0078125
        k(  169) = (   0.1250000   0.1875000   0.3733014), wk =   0.0078125
        k(  170) = (   0.1250000   0.1875000   0.4355183), wk =   0.0078125
        k(  171) = (   0.1250000   0.1875000  -0.4977352), wk =   0.0039062
        k(  172) = (   0.1250000   0.2500000   0.0000000), wk =   0.0039062
        k(  173) = (   0.1250000   0.2500000   0.0622169), wk =   0.0078125
        k(  174) = (   0.1250000   0.2500000   0.1244338), wk =   0.0078125
        k(  175) = (   0.1250000   0.2500000   0.1866507), wk =   0.0078125
        k(  176) = (   0.1250000   0.2500000   0.2488676), wk =   0.0078125
        k(  177) = (   0.1250000   0.2500000   0.3110845), wk =   0.0078125
        k(  178) = (   0.1250000   0.2500000   0.3733014), wk =   0.0078125
        k(  179) = (   0.1250000   0.2500000   0.4355183), wk =   0.0078125
        k(  180) = (   0.1250000   0.2500000  -0.4977352), wk =   0.0039062
        k(  181) = (   0.1250000   0.3125000   0.0000000), wk =   0.0039062
        k(  182) = (   0.1250000   0.3125000   0.0622169), wk =   0.0078125
        k(  183) = (   0.1250000   0.3125000   0.1244338), wk =   0.0078125
        k(  184) = (   0.1250000   0.3125000   0.1866507), wk =   0.0078125
        k(  185) = (   0.1250000   0.3125000   0.2488676), wk =   0.0078125
        k(  186) = (   0.1250000   0.3125000   0.3110845), wk =   0.0078125
        k(  187) = (   0.1250000   0.3125000   0.3733014), wk =   0.0078125
        k(  188) = (   0.1250000   0.3125000   0.4355183), wk =   0.0078125
        k(  189) = (   0.1250000   0.3125000  -0.4977352), wk =   0.0039062
        k(  190) = (   0.1250000   0.3750000   0.0000000), wk =   0.0039062
        k(  191) = (   0.1250000   0.3750000   0.0622169), wk =   0.0078125
        k(  192) = (   0.1250000   0.3750000   0.1244338), wk =   0.0078125
        k(  193) = (   0.1250000   0.3750000   0.1866507), wk =   0.0078125
        k(  194) = (   0.1250000   0.3750000   0.2488676), wk =   0.0078125
        k(  195) = (   0.1250000   0.3750000   0.3110845), wk =   0.0078125
        k(  196) = (   0.1250000   0.3750000   0.3733014), wk =   0.0078125
        k(  197) = (   0.1250000   0.3750000   0.4355183), wk =   0.0078125
        k(  198) = (   0.1250000   0.3750000  -0.4977352), wk =   0.0039062
        k(  199) = (   0.1250000   0.4375000   0.0000000), wk =   0.0039062
        k(  200) = (   0.1250000   0.4375000   0.0622169), wk =   0.0078125
        k(  201) = (   0.1250000   0.4375000   0.1244338), wk =   0.0078125
        k(  202) = (   0.1250000   0.4375000   0.1866507), wk =   0.0078125
        k(  203) = (   0.1250000   0.4375000   0.2488676), wk =   0.0078125
        k(  204) = (   0.1250000   0.4375000   0.3110845), wk =   0.0078125
        k(  205) = (   0.1250000   0.4375000   0.3733014), wk =   0.0078125
        k(  206) = (   0.1250000   0.4375000   0.4355183), wk =   0.0078125
        k(  207) = (   0.1250000   0.4375000  -0.4977352), wk =   0.0039062
        k(  208) = (   0.1250000  -0.5000000   0.0000000), wk =   0.0019531
        k(  209) = (   0.1250000  -0.5000000   0.0622169), wk =   0.0039062
        k(  210) = (   0.1250000  -0.5000000   0.1244338), wk =   0.0039062
        k(  211) = (   0.1250000  -0.5000000   0.1866507), wk =   0.0039062
        k(  212) = (   0.1250000  -0.5000000   0.2488676), wk =   0.0039062
        k(  213) = (   0.1250000  -0.5000000   0.3110845), wk =   0.0039062
        k(  214) = (   0.1250000  -0.5000000   0.3733014), wk =   0.0039062
        k(  215) = (   0.1250000  -0.5000000   0.4355183), wk =   0.0039062
        k(  216) = (   0.1250000  -0.5000000  -0.4977352), wk =   0.0019531
        k(  217) = (   0.1875000   0.1875000   0.0000000), wk =   0.0019531
        k(  218) = (   0.1875000   0.1875000   0.0622169), wk =   0.0039062
        k(  219) = (   0.1875000   0.1875000   0.1244338), wk =   0.0039062
        k(  220) = (   0.1875000   0.1875000   0.1866507), wk =   0.0039062
        k(  221) = (   0.1875000   0.1875000   0.2488676), wk =   0.0039062
        k(  222) = (   0.1875000   0.1875000   0.3110845), wk =   0.0039062
        k(  223) = (   0.1875000   0.1875000   0.3733014), wk =   0.0039062
        k(  224) = (   0.1875000   0.1875000   0.4355183), wk =   0.0039062
        k(  225) = (   0.1875000   0.1875000  -0.4977352), wk =   0.0019531
        k(  226) = (   0.1875000   0.2500000   0.0000000), wk =   0.0039062
        k(  227) = (   0.1875000   0.2500000   0.0622169), wk =   0.0078125
        k(  228) = (   0.1875000   0.2500000   0.1244338), wk =   0.0078125
        k(  229) = (   0.1875000   0.2500000   0.1866507), wk =   0.0078125
        k(  230) = (   0.1875000   0.2500000   0.2488676), wk =   0.0078125
        k(  231) = (   0.1875000   0.2500000   0.3110845), wk =   0.0078125
        k(  232) = (   0.1875000   0.2500000   0.3733014), wk =   0.0078125
        k(  233) = (   0.1875000   0.2500000   0.4355183), wk =   0.0078125
        k(  234) = (   0.1875000   0.2500000  -0.4977352), wk =   0.0039062
        k(  235) = (   0.1875000   0.3125000   0.0000000), wk =   0.0039062
        k(  236) = (   0.1875000   0.3125000   0.0622169), wk =   0.0078125
        k(  237) = (   0.1875000   0.3125000   0.1244338), wk =   0.0078125
        k(  238) = (   0.1875000   0.3125000   0.1866507), wk =   0.0078125
        k(  239) = (   0.1875000   0.3125000   0.2488676), wk =   0.0078125
        k(  240) = (   0.1875000   0.3125000   0.3110845), wk =   0.0078125
        k(  241) = (   0.1875000   0.3125000   0.3733014), wk =   0.0078125
        k(  242) = (   0.1875000   0.3125000   0.4355183), wk =   0.0078125
        k(  243) = (   0.1875000   0.3125000  -0.4977352), wk =   0.0039062
        k(  244) = (   0.1875000   0.3750000   0.0000000), wk =   0.0039062
        k(  245) = (   0.1875000   0.3750000   0.0622169), wk =   0.0078125
        k(  246) = (   0.1875000   0.3750000   0.1244338), wk =   0.0078125
        k(  247) = (   0.1875000   0.3750000   0.1866507), wk =   0.0078125
        k(  248) = (   0.1875000   0.3750000   0.2488676), wk =   0.0078125
        k(  249) = (   0.1875000   0.3750000   0.3110845), wk =   0.0078125
        k(  250) = (   0.1875000   0.3750000   0.3733014), wk =   0.0078125
        k(  251) = (   0.1875000   0.3750000   0.4355183), wk =   0.0078125
        k(  252) = (   0.1875000   0.3750000  -0.4977352), wk =   0.0039062
        k(  253) = (   0.1875000   0.4375000   0.0000000), wk =   0.0039062
        k(  254) = (   0.1875000   0.4375000   0.0622169), wk =   0.0078125
        k(  255) = (   0.1875000   0.4375000   0.1244338), wk =   0.0078125
        k(  256) = (   0.1875000   0.4375000   0.1866507), wk =   0.0078125
        k(  257) = (   0.1875000   0.4375000   0.2488676), wk =   0.0078125
        k(  258) = (   0.1875000   0.4375000   0.3110845), wk =   0.0078125
        k(  259) = (   0.1875000   0.4375000   0.3733014), wk =   0.0078125
        k(  260) = (   0.1875000   0.4375000   0.4355183), wk =   0.0078125
        k(  261) = (   0.1875000   0.4375000  -0.4977352), wk =   0.0039062
        k(  262) = (   0.1875000  -0.5000000   0.0000000), wk =   0.0019531
        k(  263) = (   0.1875000  -0.5000000   0.0622169), wk =   0.0039062
        k(  264) = (   0.1875000  -0.5000000   0.1244338), wk =   0.0039062
        k(  265) = (   0.1875000  -0.5000000   0.1866507), wk =   0.0039062
        k(  266) = (   0.1875000  -0.5000000   0.2488676), wk =   0.0039062
        k(  267) = (   0.1875000  -0.5000000   0.3110845), wk =   0.0039062
        k(  268) = (   0.1875000  -0.5000000   0.3733014), wk =   0.0039062
        k(  269) = (   0.1875000  -0.5000000   0.4355183), wk =   0.0039062
        k(  270) = (   0.1875000  -0.5000000  -0.4977352), wk =   0.0019531
        k(  271) = (   0.2500000   0.2500000   0.0000000), wk =   0.0019531
        k(  272) = (   0.2500000   0.2500000   0.0622169), wk =   0.0039062
        k(  273) = (   0.2500000   0.2500000   0.1244338), wk =   0.0039062
        k(  274) = (   0.2500000   0.2500000   0.1866507), wk =   0.0039062
        k(  275) = (   0.2500000   0.2500000   0.2488676), wk =   0.0039062
        k(  276) = (   0.2500000   0.2500000   0.3110845), wk =   0.0039062
        k(  277) = (   0.2500000   0.2500000   0.3733014), wk =   0.0039062
        k(  278) = (   0.2500000   0.2500000   0.4355183), wk =   0.0039062
        k(  279) = (   0.2500000   0.2500000  -0.4977352), wk =   0.0019531
        k(  280) = (   0.2500000   0.3125000   0.0000000), wk =   0.0039062
        k(  281) = (   0.2500000   0.3125000   0.0622169), wk =   0.0078125
        k(  282) = (   0.2500000   0.3125000   0.1244338), wk =   0.0078125
        k(  283) = (   0.2500000   0.3125000   0.1866507), wk =   0.0078125
        k(  284) = (   0.2500000   0.3125000   0.2488676), wk =   0.0078125
        k(  285) = (   0.2500000   0.3125000   0.3110845), wk =   0.0078125
        k(  286) = (   0.2500000   0.3125000   0.3733014), wk =   0.0078125
        k(  287) = (   0.2500000   0.3125000   0.4355183), wk =   0.0078125
        k(  288) = (   0.2500000   0.3125000  -0.4977352), wk =   0.0039062
        k(  289) = (   0.2500000   0.3750000   0.0000000), wk =   0.0039062
        k(  290) = (   0.2500000   0.3750000   0.0622169), wk =   0.0078125
        k(  291) = (   0.2500000   0.3750000   0.1244338), wk =   0.0078125
        k(  292) = (   0.2500000   0.3750000   0.1866507), wk =   0.0078125
        k(  293) = (   0.2500000   0.3750000   0.2488676), wk =   0.0078125
        k(  294) = (   0.2500000   0.3750000   0.3110845), wk =   0.0078125
        k(  295) = (   0.2500000   0.3750000   0.3733014), wk =   0.0078125
        k(  296) = (   0.2500000   0.3750000   0.4355183), wk =   0.0078125
        k(  297) = (   0.2500000   0.3750000  -0.4977352), wk =   0.0039062
        k(  298) = (   0.2500000   0.4375000   0.0000000), wk =   0.0039062
        k(  299) = (   0.2500000   0.4375000   0.0622169), wk =   0.0078125
        k(  300) = (   0.2500000   0.4375000   0.1244338), wk =   0.0078125
        k(  301) = (   0.2500000   0.4375000   0.1866507), wk =   0.0078125
        k(  302) = (   0.2500000   0.4375000   0.2488676), wk =   0.0078125
        k(  303) = (   0.2500000   0.4375000   0.3110845), wk =   0.0078125
        k(  304) = (   0.2500000   0.4375000   0.3733014), wk =   0.0078125
        k(  305) = (   0.2500000   0.4375000   0.4355183), wk =   0.0078125
        k(  306) = (   0.2500000   0.4375000  -0.4977352), wk =   0.0039062
        k(  307) = (   0.2500000  -0.5000000   0.0000000), wk =   0.0019531
        k(  308) = (   0.2500000  -0.5000000   0.0622169), wk =   0.0039062
        k(  309) = (   0.2500000  -0.5000000   0.1244338), wk =   0.0039062
        k(  310) = (   0.2500000  -0.5000000   0.1866507), wk =   0.0039062
        k(  311) = (   0.2500000  -0.5000000   0.2488676), wk =   0.0039062
        k(  312) = (   0.2500000  -0.5000000   0.3110845), wk =   0.0039062
        k(  313) = (   0.2500000  -0.5000000   0.3733014), wk =   0.0039062
        k(  314) = (   0.2500000  -0.5000000   0.4355183), wk =   0.0039062
        k(  315) = (   0.2500000  -0.5000000  -0.4977352), wk =   0.0019531
        k(  316) = (   0.3125000   0.3125000   0.0000000), wk =   0.0019531
        k(  317) = (   0.3125000   0.3125000   0.0622169), wk =   0.0039062
        k(  318) = (   0.3125000   0.3125000   0.1244338), wk =   0.0039062
        k(  319) = (   0.3125000   0.3125000   0.1866507), wk =   0.0039062
        k(  320) = (   0.3125000   0.3125000   0.2488676), wk =   0.0039062
        k(  321) = (   0.3125000   0.3125000   0.3110845), wk =   0.0039062
        k(  322) = (   0.3125000   0.3125000   0.3733014), wk =   0.0039062
        k(  323) = (   0.3125000   0.3125000   0.4355183), wk =   0.0039062
        k(  324) = (   0.3125000   0.3125000  -0.4977352), wk =   0.0019531
        k(  325) = (   0.3125000   0.3750000   0.0000000), wk =   0.0039062
        k(  326) = (   0.3125000   0.3750000   0.0622169), wk =   0.0078125
        k(  327) = (   0.3125000   0.3750000   0.1244338), wk =   0.0078125
        k(  328) = (   0.3125000   0.3750000   0.1866507), wk =   0.0078125
        k(  329) = (   0.3125000   0.3750000   0.2488676), wk =   0.0078125
        k(  330) = (   0.3125000   0.3750000   0.3110845), wk =   0.0078125
        k(  331) = (   0.3125000   0.3750000   0.3733014), wk =   0.0078125
        k(  332) = (   0.3125000   0.3750000   0.4355183), wk =   0.0078125
        k(  333) = (   0.3125000   0.3750000  -0.4977352), wk =   0.0039062
        k(  334) = (   0.3125000   0.4375000   0.0000000), wk =   0.0039062
        k(  335) = (   0.3125000   0.4375000   0.0622169), wk =   0.0078125
        k(  336) = (   0.3125000   0.4375000   0.1244338), wk =   0.0078125
        k(  337) = (   0.3125000   0.4375000   0.1866507), wk =   0.0078125
        k(  338) = (   0.3125000   0.4375000   0.2488676), wk =   0.0078125
        k(  339) = (   0.3125000   0.4375000   0.3110845), wk =   0.0078125
        k(  340) = (   0.3125000   0.4375000   0.3733014), wk =   0.0078125
        k(  341) = (   0.3125000   0.4375000   0.4355183), wk =   0.0078125
        k(  342) = (   0.3125000   0.4375000  -0.4977352), wk =   0.0039062
        k(  343) = (   0.3125000  -0.5000000   0.0000000), wk =   0.0019531
        k(  344) = (   0.3125000  -0.5000000   0.0622169), wk =   0.0039062
        k(  345) = (   0.3125000  -0.5000000   0.1244338), wk =   0.0039062
        k(  346) = (   0.3125000  -0.5000000   0.1866507), wk =   0.0039062
        k(  347) = (   0.3125000  -0.5000000   0.2488676), wk =   0.0039062
        k(  348) = (   0.3125000  -0.5000000   0.3110845), wk =   0.0039062
        k(  349) = (   0.3125000  -0.5000000   0.3733014), wk =   0.0039062
        k(  350) = (   0.3125000  -0.5000000   0.4355183), wk =   0.0039062
        k(  351) = (   0.3125000  -0.5000000  -0.4977352), wk =   0.0019531
        k(  352) = (   0.3750000   0.3750000   0.0000000), wk =   0.0019531
        k(  353) = (   0.3750000   0.3750000   0.0622169), wk =   0.0039062
        k(  354) = (   0.3750000   0.3750000   0.1244338), wk =   0.0039062
        k(  355) = (   0.3750000   0.3750000   0.1866507), wk =   0.0039062
        k(  356) = (   0.3750000   0.3750000   0.2488676), wk =   0.0039062
        k(  357) = (   0.3750000   0.3750000   0.3110845), wk =   0.0039062
        k(  358) = (   0.3750000   0.3750000   0.3733014), wk =   0.0039062
        k(  359) = (   0.3750000   0.3750000   0.4355183), wk =   0.0039062
        k(  360) = (   0.3750000   0.3750000  -0.4977352), wk =   0.0019531
        k(  361) = (   0.3750000   0.4375000   0.0000000), wk =   0.0039062
        k(  362) = (   0.3750000   0.4375000   0.0622169), wk =   0.0078125
        k(  363) = (   0.3750000   0.4375000   0.1244338), wk =   0.0078125
        k(  364) = (   0.3750000   0.4375000   0.1866507), wk =   0.0078125
        k(  365) = (   0.3750000   0.4375000   0.2488676), wk =   0.0078125
        k(  366) = (   0.3750000   0.4375000   0.3110845), wk =   0.0078125
        k(  367) = (   0.3750000   0.4375000   0.3733014), wk =   0.0078125
        k(  368) = (   0.3750000   0.4375000   0.4355183), wk =   0.0078125
        k(  369) = (   0.3750000   0.4375000  -0.4977352), wk =   0.0039062
        k(  370) = (   0.3750000  -0.5000000   0.0000000), wk =   0.0019531
        k(  371) = (   0.3750000  -0.5000000   0.0622169), wk =   0.0039062
        k(  372) = (   0.3750000  -0.5000000   0.1244338), wk =   0.0039062
        k(  373) = (   0.3750000  -0.5000000   0.1866507), wk =   0.0039062
        k(  374) = (   0.3750000  -0.5000000   0.2488676), wk =   0.0039062
        k(  375) = (   0.3750000  -0.5000000   0.3110845), wk =   0.0039062
        k(  376) = (   0.3750000  -0.5000000   0.3733014), wk =   0.0039062
        k(  377) = (   0.3750000  -0.5000000   0.4355183), wk =   0.0039062
        k(  378) = (   0.3750000  -0.5000000  -0.4977352), wk =   0.0019531
        k(  379) = (   0.4375000   0.4375000   0.0000000), wk =   0.0019531
        k(  380) = (   0.4375000   0.4375000   0.0622169), wk =   0.0039062
        k(  381) = (   0.4375000   0.4375000   0.1244338), wk =   0.0039062
        k(  382) = (   0.4375000   0.4375000   0.1866507), wk =   0.0039062
        k(  383) = (   0.4375000   0.4375000   0.2488676), wk =   0.0039062
        k(  384) = (   0.4375000   0.4375000   0.3110845), wk =   0.0039062
        k(  385) = (   0.4375000   0.4375000   0.3733014), wk =   0.0039062
        k(  386) = (   0.4375000   0.4375000   0.4355183), wk =   0.0039062
        k(  387) = (   0.4375000   0.4375000  -0.4977352), wk =   0.0019531
        k(  388) = (   0.4375000  -0.5000000   0.0000000), wk =   0.0019531
        k(  389) = (   0.4375000  -0.5000000   0.0622169), wk =   0.0039062
        k(  390) = (   0.4375000  -0.5000000   0.1244338), wk =   0.0039062
        k(  391) = (   0.4375000  -0.5000000   0.1866507), wk =   0.0039062
        k(  392) = (   0.4375000  -0.5000000   0.2488676), wk =   0.0039062
        k(  393) = (   0.4375000  -0.5000000   0.3110845), wk =   0.0039062
        k(  394) = (   0.4375000  -0.5000000   0.3733014), wk =   0.0039062
        k(  395) = (   0.4375000  -0.5000000   0.4355183), wk =   0.0039062
        k(  396) = (   0.4375000  -0.5000000  -0.4977352), wk =   0.0019531
        k(  397) = (  -0.5000000  -0.5000000   0.0000000), wk =   0.0004883
        k(  398) = (  -0.5000000  -0.5000000   0.0622169), wk =   0.0009766
        k(  399) = (  -0.5000000  -0.5000000   0.1244338), wk =   0.0009766
        k(  400) = (  -0.5000000  -0.5000000   0.1866507), wk =   0.0009766
        k(  401) = (  -0.5000000  -0.5000000   0.2488676), wk =   0.0009766
        k(  402) = (  -0.5000000  -0.5000000   0.3110845), wk =   0.0009766
        k(  403) = (  -0.5000000  -0.5000000   0.3733014), wk =   0.0009766
        k(  404) = (  -0.5000000  -0.5000000   0.4355183), wk =   0.0009766
        k(  405) = (  -0.5000000  -0.5000000  -0.4977352), wk =   0.0004883

                       cryst. coord.
        k(    1) = (   0.0000000   0.0000000   0.0000000), wk =   0.0004883
        k(    2) = (   0.0000000   0.0000000   0.0625000), wk =   0.0009766
        k(    3) = (   0.0000000   0.0000000   0.1250000), wk =   0.0009766
        k(    4) = (   0.0000000   0.0000000   0.1875000), wk =   0.0009766
        k(    5) = (   0.0000000   0.0000000   0.2500000), wk =   0.0009766
        k(    6) = (   0.0000000   0.0000000   0.3125000), wk =   0.0009766
        k(    7) = (   0.0000000   0.0000000   0.3750000), wk =   0.0009766
        k(    8) = (   0.0000000   0.0000000   0.4375000), wk =   0.0009766
        k(    9) = (   0.0000000   0.0000000  -0.5000000), wk =   0.0004883
        k(   10) = (   0.0000000   0.0625000   0.0000000), wk =   0.0019531
        k(   11) = (   0.0000000   0.0625000   0.0625000), wk =   0.0039062
        k(   12) = (   0.0000000   0.0625000   0.1250000), wk =   0.0039062
        k(   13) = (   0.0000000   0.0625000   0.1875000), wk =   0.0039062
        k(   14) = (   0.0000000   0.0625000   0.2500000), wk =   0.0039062
        k(   15) = (   0.0000000   0.0625000   0.3125000), wk =   0.0039062
        k(   16) = (   0.0000000   0.0625000   0.3750000), wk =   0.0039062
        k(   17) = (   0.0000000   0.0625000   0.4375000), wk =   0.0039062
        k(   18) = (   0.0000000   0.0625000  -0.5000000), wk =   0.0019531
        k(   19) = (   0.0000000   0.1250000   0.0000000), wk =   0.0019531
        k(   20) = (   0.0000000   0.1250000   0.0625000), wk =   0.0039062
        k(   21) = (   0.0000000   0.1250000   0.1250000), wk =   0.0039062
        k(   22) = (   0.0000000   0.1250000   0.1875000), wk =   0.0039062
        k(   23) = (   0.0000000   0.1250000   0.2500000), wk =   0.0039062
        k(   24) = (   0.0000000   0.1250000   0.3125000), wk =   0.0039062
        k(   25) = (   0.0000000   0.1250000   0.3750000), wk =   0.0039062
        k(   26) = (   0.0000000   0.1250000   0.4375000), wk =   0.0039062
        k(   27) = (   0.0000000   0.1250000  -0.5000000), wk =   0.0019531
        k(   28) = (   0.0000000   0.1875000   0.0000000), wk =   0.0019531
        k(   29) = (   0.0000000   0.1875000   0.0625000), wk =   0.0039062
        k(   30) = (   0.0000000   0.1875000   0.1250000), wk =   0.0039062
        k(   31) = (   0.0000000   0.1875000   0.1875000), wk =   0.0039062
        k(   32) = (   0.0000000   0.1875000   0.2500000), wk =   0.0039062
        k(   33) = (   0.0000000   0.1875000   0.3125000), wk =   0.0039062
        k(   34) = (   0.0000000   0.1875000   0.3750000), wk =   0.0039062
        k(   35) = (   0.0000000   0.1875000   0.4375000), wk =   0.0039062
        k(   36) = (   0.0000000   0.1875000  -0.5000000), wk =   0.0019531
        k(   37) = (   0.0000000   0.2500000   0.0000000), wk =   0.0019531
        k(   38) = (   0.0000000   0.2500000   0.0625000), wk =   0.0039062
        k(   39) = (   0.0000000   0.2500000   0.1250000), wk =   0.0039062
        k(   40) = (   0.0000000   0.2500000   0.1875000), wk =   0.0039062
        k(   41) = (   0.0000000   0.2500000   0.2500000), wk =   0.0039062
        k(   42) = (   0.0000000   0.2500000   0.3125000), wk =   0.0039062
        k(   43) = (   0.0000000   0.2500000   0.3750000), wk =   0.0039062
        k(   44) = (   0.0000000   0.2500000   0.4375000), wk =   0.0039062
        k(   45) = (   0.0000000   0.2500000  -0.5000000), wk =   0.0019531
        k(   46) = (   0.0000000   0.3125000   0.0000000), wk =   0.0019531
        k(   47) = (   0.0000000   0.3125000   0.0625000), wk =   0.0039062
        k(   48) = (   0.0000000   0.3125000   0.1250000), wk =   0.0039062
        k(   49) = (   0.0000000   0.3125000   0.1875000), wk =   0.0039062
        k(   50) = (   0.0000000   0.3125000   0.2500000), wk =   0.0039062
        k(   51) = (   0.0000000   0.3125000   0.3125000), wk =   0.0039062
        k(   52) = (   0.0000000   0.3125000   0.3750000), wk =   0.0039062
        k(   53) = (   0.0000000   0.3125000   0.4375000), wk =   0.0039062
        k(   54) = (   0.0000000   0.3125000  -0.5000000), wk =   0.0019531
        k(   55) = (   0.0000000   0.3750000   0.0000000), wk =   0.0019531
        k(   56) = (   0.0000000   0.3750000   0.0625000), wk =   0.0039062
        k(   57) = (   0.0000000   0.3750000   0.1250000), wk =   0.0039062
        k(   58) = (   0.0000000   0.3750000   0.1875000), wk =   0.0039062
        k(   59) = (   0.0000000   0.3750000   0.2500000), wk =   0.0039062
        k(   60) = (   0.0000000   0.3750000   0.3125000), wk =   0.0039062
        k(   61) = (   0.0000000   0.3750000   0.3750000), wk =   0.0039062
        k(   62) = (   0.0000000   0.3750000   0.4375000), wk =   0.0039062
        k(   63) = (   0.0000000   0.3750000  -0.5000000), wk =   0.0019531
        k(   64) = (   0.0000000   0.4375000   0.0000000), wk =   0.0019531
        k(   65) = (   0.0000000   0.4375000   0.0625000), wk =   0.0039062
        k(   66) = (   0.0000000   0.4375000   0.1250000), wk =   0.0039062
        k(   67) = (   0.0000000   0.4375000   0.1875000), wk =   0.0039062
        k(   68) = (   0.0000000   0.4375000   0.2500000), wk =   0.0039062
        k(   69) = (   0.0000000   0.4375000   0.3125000), wk =   0.0039062
        k(   70) = (   0.0000000   0.4375000   0.3750000), wk =   0.0039062
        k(   71) = (   0.0000000   0.4375000   0.4375000), wk =   0.0039062
        k(   72) = (   0.0000000   0.4375000  -0.5000000), wk =   0.0019531
        k(   73) = (   0.0000000  -0.5000000   0.0000000), wk =   0.0009766
        k(   74) = (   0.0000000  -0.5000000   0.0625000), wk =   0.0019531
        k(   75) = (   0.0000000  -0.5000000   0.1250000), wk =   0.0019531
        k(   76) = (   0.0000000  -0.5000000   0.1875000), wk =   0.0019531
        k(   77) = (   0.0000000  -0.5000000   0.2500000), wk =   0.0019531
        k(   78) = (   0.0000000  -0.5000000   0.3125000), wk =   0.0019531
        k(   79) = (   0.0000000  -0.5000000   0.3750000), wk =   0.0019531
        k(   80) = (   0.0000000  -0.5000000   0.4375000), wk =   0.0019531
        k(   81) = (   0.0000000  -0.5000000  -0.5000000), wk =   0.0009766
        k(   82) = (   0.0625000   0.0625000   0.0000000), wk =   0.0019531
        k(   83) = (   0.0625000   0.0625000   0.0625000), wk =   0.0039062
        k(   84) = (   0.0625000   0.0625000   0.1250000), wk =   0.0039062
        k(   85) = (   0.0625000   0.0625000   0.1875000), wk =   0.0039062
        k(   86) = (   0.0625000   0.0625000   0.2500000), wk =   0.0039062
        k(   87) = (   0.0625000   0.0625000   0.3125000), wk =   0.0039062
        k(   88) = (   0.0625000   0.0625000   0.3750000), wk =   0.0039062
        k(   89) = (   0.0625000   0.0625000   0.4375000), wk =   0.0039062
        k(   90) = (   0.0625000   0.0625000  -0.5000000), wk =   0.0019531
        k(   91) = (   0.0625000   0.1250000   0.0000000), wk =   0.0039062
        k(   92) = (   0.0625000   0.1250000   0.0625000), wk =   0.0078125
        k(   93) = (   0.0625000   0.1250000   0.1250000), wk =   0.0078125
        k(   94) = (   0.0625000   0.1250000   0.1875000), wk =   0.0078125
        k(   95) = (   0.0625000   0.1250000   0.2500000), wk =   0.0078125
        k(   96) = (   0.0625000   0.1250000   0.3125000), wk =   0.0078125
        k(   97) = (   0.0625000   0.1250000   0.3750000), wk =   0.0078125
        k(   98) = (   0.0625000   0.1250000   0.4375000), wk =   0.0078125
        k(   99) = (   0.0625000   0.1250000  -0.5000000), wk =   0.0039062
        k(  100) = (   0.0625000   0.1875000   0.0000000), wk =   0.0039062
        k(  101) = (   0.0625000   0.1875000   0.0625000), wk =   0.0078125
        k(  102) = (   0.0625000   0.1875000   0.1250000), wk =   0.0078125
        k(  103) = (   0.0625000   0.1875000   0.1875000), wk =   0.0078125
        k(  104) = (   0.0625000   0.1875000   0.2500000), wk =   0.0078125
        k(  105) = (   0.0625000   0.1875000   0.3125000), wk =   0.0078125
        k(  106) = (   0.0625000   0.1875000   0.3750000), wk =   0.0078125
        k(  107) = (   0.0625000   0.1875000   0.4375000), wk =   0.0078125
        k(  108) = (   0.0625000   0.1875000  -0.5000000), wk =   0.0039062
        k(  109) = (   0.0625000   0.2500000   0.0000000), wk =   0.0039062
        k(  110) = (   0.0625000   0.2500000   0.0625000), wk =   0.0078125
        k(  111) = (   0.0625000   0.2500000   0.1250000), wk =   0.0078125
        k(  112) = (   0.0625000   0.2500000   0.1875000), wk =   0.0078125
        k(  113) = (   0.0625000   0.2500000   0.2500000), wk =   0.0078125
        k(  114) = (   0.0625000   0.2500000   0.3125000), wk =   0.0078125
        k(  115) = (   0.0625000   0.2500000   0.3750000), wk =   0.0078125
        k(  116) = (   0.0625000   0.2500000   0.4375000), wk =   0.0078125
        k(  117) = (   0.0625000   0.2500000  -0.5000000), wk =   0.0039062
        k(  118) = (   0.0625000   0.3125000   0.0000000), wk =   0.0039062
        k(  119) = (   0.0625000   0.3125000   0.0625000), wk =   0.0078125
        k(  120) = (   0.0625000   0.3125000   0.1250000), wk =   0.0078125
        k(  121) = (   0.0625000   0.3125000   0.1875000), wk =   0.0078125
        k(  122) = (   0.0625000   0.3125000   0.2500000), wk =   0.0078125
        k(  123) = (   0.0625000   0.3125000   0.3125000), wk =   0.0078125
        k(  124) = (   0.0625000   0.3125000   0.3750000), wk =   0.0078125
        k(  125) = (   0.0625000   0.3125000   0.4375000), wk =   0.0078125
        k(  126) = (   0.0625000   0.3125000  -0.5000000), wk =   0.0039062
        k(  127) = (   0.0625000   0.3750000   0.0000000), wk =   0.0039062
        k(  128) = (   0.0625000   0.3750000   0.0625000), wk =   0.0078125
        k(  129) = (   0.0625000   0.3750000   0.1250000), wk =   0.0078125
        k(  130) = (   0.0625000   0.3750000   0.1875000), wk =   0.0078125
        k(  131) = (   0.0625000   0.3750000   0.2500000), wk =   0.0078125
        k(  132) = (   0.0625000   0.3750000   0.3125000), wk =   0.0078125
        k(  133) = (   0.0625000   0.3750000   0.3750000), wk =   0.0078125
        k(  134) = (   0.0625000   0.3750000   0.4375000), wk =   0.0078125
        k(  135) = (   0.0625000   0.3750000  -0.5000000), wk =   0.0039062
        k(  136) = (   0.0625000   0.4375000   0.0000000), wk =   0.0039062
        k(  137) = (   0.0625000   0.4375000   0.0625000), wk =   0.0078125
        k(  138) = (   0.0625000   0.4375000   0.1250000), wk =   0.0078125
        k(  139) = (   0.0625000   0.4375000   0.1875000), wk =   0.0078125
        k(  140) = (   0.0625000   0.4375000   0.2500000), wk =   0.0078125
        k(  141) = (   0.0625000   0.4375000   0.3125000), wk =   0.0078125
        k(  142) = (   0.0625000   0.4375000   0.3750000), wk =   0.0078125
        k(  143) = (   0.0625000   0.4375000   0.4375000), wk =   0.0078125
        k(  144) = (   0.0625000   0.4375000  -0.5000000), wk =   0.0039062
        k(  145) = (   0.0625000  -0.5000000   0.0000000), wk =   0.0019531
        k(  146) = (   0.0625000  -0.5000000   0.0625000), wk =   0.0039062
        k(  147) = (   0.0625000  -0.5000000   0.1250000), wk =   0.0039062
        k(  148) = (   0.0625000  -0.5000000   0.1875000), wk =   0.0039062
        k(  149) = (   0.0625000  -0.5000000   0.2500000), wk =   0.0039062
        k(  150) = (   0.0625000  -0.5000000   0.3125000), wk =   0.0039062
        k(  151) = (   0.0625000  -0.5000000   0.3750000), wk =   0.0039062
        k(  152) = (   0.0625000  -0.5000000   0.4375000), wk =   0.0039062
        k(  153) = (   0.0625000  -0.5000000  -0.5000000), wk =   0.0019531
        k(  154) = (   0.1250000   0.1250000   0.0000000), wk =   0.0019531
        k(  155) = (   0.1250000   0.1250000   0.0625000), wk =   0.0039062
        k(  156) = (   0.1250000   0.1250000   0.1250000), wk =   0.0039062
        k(  157) = (   0.1250000   0.1250000   0.1875000), wk =   0.0039062
        k(  158) = (   0.1250000   0.1250000   0.2500000), wk =   0.0039062
        k(  159) = (   0.1250000   0.1250000   0.3125000), wk =   0.0039062
        k(  160) = (   0.1250000   0.1250000   0.3750000), wk =   0.0039062
        k(  161) = (   0.1250000   0.1250000   0.4375000), wk =   0.0039062
        k(  162) = (   0.1250000   0.1250000  -0.5000000), wk =   0.0019531
        k(  163) = (   0.1250000   0.1875000   0.0000000), wk =   0.0039062
        k(  164) = (   0.1250000   0.1875000   0.0625000), wk =   0.0078125
        k(  165) = (   0.1250000   0.1875000   0.1250000), wk =   0.0078125
        k(  166) = (   0.1250000   0.1875000   0.1875000), wk =   0.0078125
        k(  167) = (   0.1250000   0.1875000   0.2500000), wk =   0.0078125
        k(  168) = (   0.1250000   0.1875000   0.3125000), wk =   0.0078125
        k(  169) = (   0.1250000   0.1875000   0.3750000), wk =   0.0078125
        k(  170) = (   0.1250000   0.1875000   0.4375000), wk =   0.0078125
        k(  171) = (   0.1250000   0.1875000  -0.5000000), wk =   0.0039062
        k(  172) = (   0.1250000   0.2500000   0.0000000), wk =   0.0039062
        k(  173) = (   0.1250000   0.2500000   0.0625000), wk =   0.0078125
        k(  174) = (   0.1250000   0.2500000   0.1250000), wk =   0.0078125
        k(  175) = (   0.1250000   0.2500000   0.1875000), wk =   0.0078125
        k(  176) = (   0.1250000   0.2500000   0.2500000), wk =   0.0078125
        k(  177) = (   0.1250000   0.2500000   0.3125000), wk =   0.0078125
        k(  178) = (   0.1250000   0.2500000   0.3750000), wk =   0.0078125
        k(  179) = (   0.1250000   0.2500000   0.4375000), wk =   0.0078125
        k(  180) = (   0.1250000   0.2500000  -0.5000000), wk =   0.0039062
        k(  181) = (   0.1250000   0.3125000   0.0000000), wk =   0.0039062
        k(  182) = (   0.1250000   0.3125000   0.0625000), wk =   0.0078125
        k(  183) = (   0.1250000   0.3125000   0.1250000), wk =   0.0078125
        k(  184) = (   0.1250000   0.3125000   0.1875000), wk =   0.0078125
        k(  185) = (   0.1250000   0.3125000   0.2500000), wk =   0.0078125
        k(  186) = (   0.1250000   0.3125000   0.3125000), wk =   0.0078125
        k(  187) = (   0.1250000   0.3125000   0.3750000), wk =   0.0078125
        k(  188) = (   0.1250000   0.3125000   0.4375000), wk =   0.0078125
        k(  189) = (   0.1250000   0.3125000  -0.5000000), wk =   0.0039062
        k(  190) = (   0.1250000   0.3750000   0.0000000), wk =   0.0039062
        k(  191) = (   0.1250000   0.3750000   0.0625000), wk =   0.0078125
        k(  192) = (   0.1250000   0.3750000   0.1250000), wk =   0.0078125
        k(  193) = (   0.1250000   0.3750000   0.1875000), wk =   0.0078125
        k(  194) = (   0.1250000   0.3750000   0.2500000), wk =   0.0078125
        k(  195) = (   0.1250000   0.3750000   0.3125000), wk =   0.0078125
        k(  196) = (   0.1250000   0.3750000   0.3750000), wk =   0.0078125
        k(  197) = (   0.1250000   0.3750000   0.4375000), wk =   0.0078125
        k(  198) = (   0.1250000   0.3750000  -0.5000000), wk =   0.0039062
        k(  199) = (   0.1250000   0.4375000   0.0000000), wk =   0.0039062
        k(  200) = (   0.1250000   0.4375000   0.0625000), wk =   0.0078125
        k(  201) = (   0.1250000   0.4375000   0.1250000), wk =   0.0078125
        k(  202) = (   0.1250000   0.4375000   0.1875000), wk =   0.0078125
        k(  203) = (   0.1250000   0.4375000   0.2500000), wk =   0.0078125
        k(  204) = (   0.1250000   0.4375000   0.3125000), wk =   0.0078125
        k(  205) = (   0.1250000   0.4375000   0.3750000), wk =   0.0078125
        k(  206) = (   0.1250000   0.4375000   0.4375000), wk =   0.0078125
        k(  207) = (   0.1250000   0.4375000  -0.5000000), wk =   0.0039062
        k(  208) = (   0.1250000  -0.5000000   0.0000000), wk =   0.0019531
        k(  209) = (   0.1250000  -0.5000000   0.0625000), wk =   0.0039062
        k(  210) = (   0.1250000  -0.5000000   0.1250000), wk =   0.0039062
        k(  211) = (   0.1250000  -0.5000000   0.1875000), wk =   0.0039062
        k(  212) = (   0.1250000  -0.5000000   0.2500000), wk =   0.0039062
        k(  213) = (   0.1250000  -0.5000000   0.3125000), wk =   0.0039062
        k(  214) = (   0.1250000  -0.5000000   0.3750000), wk =   0.0039062
        k(  215) = (   0.1250000  -0.5000000   0.4375000), wk =   0.0039062
        k(  216) = (   0.1250000  -0.5000000  -0.5000000), wk =   0.0019531
        k(  217) = (   0.1875000   0.1875000   0.0000000), wk =   0.0019531
        k(  218) = (   0.1875000   0.1875000   0.0625000), wk =   0.0039062
        k(  219) = (   0.1875000   0.1875000   0.1250000), wk =   0.0039062
        k(  220) = (   0.1875000   0.1875000   0.1875000), wk =   0.0039062
        k(  221) = (   0.1875000   0.1875000   0.2500000), wk =   0.0039062
        k(  222) = (   0.1875000   0.1875000   0.3125000), wk =   0.0039062
        k(  223) = (   0.1875000   0.1875000   0.3750000), wk =   0.0039062
        k(  224) = (   0.1875000   0.1875000   0.4375000), wk =   0.0039062
        k(  225) = (   0.1875000   0.1875000  -0.5000000), wk =   0.0019531
        k(  226) = (   0.1875000   0.2500000   0.0000000), wk =   0.0039062
        k(  227) = (   0.1875000   0.2500000   0.0625000), wk =   0.0078125
        k(  228) = (   0.1875000   0.2500000   0.1250000), wk =   0.0078125
        k(  229) = (   0.1875000   0.2500000   0.1875000), wk =   0.0078125
        k(  230) = (   0.1875000   0.2500000   0.2500000), wk =   0.0078125
        k(  231) = (   0.1875000   0.2500000   0.3125000), wk =   0.0078125
        k(  232) = (   0.1875000   0.2500000   0.3750000), wk =   0.0078125
        k(  233) = (   0.1875000   0.2500000   0.4375000), wk =   0.0078125
        k(  234) = (   0.1875000   0.2500000  -0.5000000), wk =   0.0039062
        k(  235) = (   0.1875000   0.3125000   0.0000000), wk =   0.0039062
        k(  236) = (   0.1875000   0.3125000   0.0625000), wk =   0.0078125
        k(  237) = (   0.1875000   0.3125000   0.1250000), wk =   0.0078125
        k(  238) = (   0.1875000   0.3125000   0.1875000), wk =   0.0078125
        k(  239) = (   0.1875000   0.3125000   0.2500000), wk =   0.0078125
        k(  240) = (   0.1875000   0.3125000   0.3125000), wk =   0.0078125
        k(  241) = (   0.1875000   0.3125000   0.3750000), wk =   0.0078125
        k(  242) = (   0.1875000   0.3125000   0.4375000), wk =   0.0078125
        k(  243) = (   0.1875000   0.3125000  -0.5000000), wk =   0.0039062
        k(  244) = (   0.1875000   0.3750000   0.0000000), wk =   0.0039062
        k(  245) = (   0.1875000   0.3750000   0.0625000), wk =   0.0078125
        k(  246) = (   0.1875000   0.3750000   0.1250000), wk =   0.0078125
        k(  247) = (   0.1875000   0.3750000   0.1875000), wk =   0.0078125
        k(  248) = (   0.1875000   0.3750000   0.2500000), wk =   0.0078125
        k(  249) = (   0.1875000   0.3750000   0.3125000), wk =   0.0078125
        k(  250) = (   0.1875000   0.3750000   0.3750000), wk =   0.0078125
        k(  251) = (   0.1875000   0.3750000   0.4375000), wk =   0.0078125
        k(  252) = (   0.1875000   0.3750000  -0.5000000), wk =   0.0039062
        k(  253) = (   0.1875000   0.4375000   0.0000000), wk =   0.0039062
        k(  254) = (   0.1875000   0.4375000   0.0625000), wk =   0.0078125
        k(  255) = (   0.1875000   0.4375000   0.1250000), wk =   0.0078125
        k(  256) = (   0.1875000   0.4375000   0.1875000), wk =   0.0078125
        k(  257) = (   0.1875000   0.4375000   0.2500000), wk =   0.0078125
        k(  258) = (   0.1875000   0.4375000   0.3125000), wk =   0.0078125
        k(  259) = (   0.1875000   0.4375000   0.3750000), wk =   0.0078125
        k(  260) = (   0.1875000   0.4375000   0.4375000), wk =   0.0078125
        k(  261) = (   0.1875000   0.4375000  -0.5000000), wk =   0.0039062
        k(  262) = (   0.1875000  -0.5000000   0.0000000), wk =   0.0019531
        k(  263) = (   0.1875000  -0.5000000   0.0625000), wk =   0.0039062
        k(  264) = (   0.1875000  -0.5000000   0.1250000), wk =   0.0039062
        k(  265) = (   0.1875000  -0.5000000   0.1875000), wk =   0.0039062
        k(  266) = (   0.1875000  -0.5000000   0.2500000), wk =   0.0039062
        k(  267) = (   0.1875000  -0.5000000   0.3125000), wk =   0.0039062
        k(  268) = (   0.1875000  -0.5000000   0.3750000), wk =   0.0039062
        k(  269) = (   0.1875000  -0.5000000   0.4375000), wk =   0.0039062
        k(  270) = (   0.1875000  -0.5000000  -0.5000000), wk =   0.0019531
        k(  271) = (   0.2500000   0.2500000   0.0000000), wk =   0.0019531
        k(  272) = (   0.2500000   0.2500000   0.0625000), wk =   0.0039062
        k(  273) = (   0.2500000   0.2500000   0.1250000), wk =   0.0039062
        k(  274) = (   0.2500000   0.2500000   0.1875000), wk =   0.0039062
        k(  275) = (   0.2500000   0.2500000   0.2500000), wk =   0.0039062
        k(  276) = (   0.2500000   0.2500000   0.3125000), wk =   0.0039062
        k(  277) = (   0.2500000   0.2500000   0.3750000), wk =   0.0039062
        k(  278) = (   0.2500000   0.2500000   0.4375000), wk =   0.0039062
        k(  279) = (   0.2500000   0.2500000  -0.5000000), wk =   0.0019531
        k(  280) = (   0.2500000   0.3125000   0.0000000), wk =   0.0039062
        k(  281) = (   0.2500000   0.3125000   0.0625000), wk =   0.0078125
        k(  282) = (   0.2500000   0.3125000   0.1250000), wk =   0.0078125
        k(  283) = (   0.2500000   0.3125000   0.1875000), wk =   0.0078125
        k(  284) = (   0.2500000   0.3125000   0.2500000), wk =   0.0078125
        k(  285) = (   0.2500000   0.3125000   0.3125000), wk =   0.0078125
        k(  286) = (   0.2500000   0.3125000   0.3750000), wk =   0.0078125
        k(  287) = (   0.2500000   0.3125000   0.4375000), wk =   0.0078125
        k(  288) = (   0.2500000   0.3125000  -0.5000000), wk =   0.0039062
        k(  289) = (   0.2500000   0.3750000   0.0000000), wk =   0.0039062
        k(  290) = (   0.2500000   0.3750000   0.0625000), wk =   0.0078125
        k(  291) = (   0.2500000   0.3750000   0.1250000), wk =   0.0078125
        k(  292) = (   0.2500000   0.3750000   0.1875000), wk =   0.0078125
        k(  293) = (   0.2500000   0.3750000   0.2500000), wk =   0.0078125
        k(  294) = (   0.2500000   0.3750000   0.3125000), wk =   0.0078125
        k(  295) = (   0.2500000   0.3750000   0.3750000), wk =   0.0078125
        k(  296) = (   0.2500000   0.3750000   0.4375000), wk =   0.0078125
        k(  297) = (   0.2500000   0.3750000  -0.5000000), wk =   0.0039062
        k(  298) = (   0.2500000   0.4375000   0.0000000), wk =   0.0039062
        k(  299) = (   0.2500000   0.4375000   0.0625000), wk =   0.0078125
        k(  300) = (   0.2500000   0.4375000   0.1250000), wk =   0.0078125
        k(  301) = (   0.2500000   0.4375000   0.1875000), wk =   0.0078125
        k(  302) = (   0.2500000   0.4375000   0.2500000), wk =   0.0078125
        k(  303) = (   0.2500000   0.4375000   0.3125000), wk =   0.0078125
        k(  304) = (   0.2500000   0.4375000   0.3750000), wk =   0.0078125
        k(  305) = (   0.2500000   0.4375000   0.4375000), wk =   0.0078125
        k(  306) = (   0.2500000   0.4375000  -0.5000000), wk =   0.0039062
        k(  307) = (   0.2500000  -0.5000000   0.0000000), wk =   0.0019531
        k(  308) = (   0.2500000  -0.5000000   0.0625000), wk =   0.0039062
        k(  309) = (   0.2500000  -0.5000000   0.1250000), wk =   0.0039062
        k(  310) = (   0.2500000  -0.5000000   0.1875000), wk =   0.0039062
        k(  311) = (   0.2500000  -0.5000000   0.2500000), wk =   0.0039062
        k(  312) = (   0.2500000  -0.5000000   0.3125000), wk =   0.0039062
        k(  313) = (   0.2500000  -0.5000000   0.3750000), wk =   0.0039062
        k(  314) = (   0.2500000  -0.5000000   0.4375000), wk =   0.0039062
        k(  315) = (   0.2500000  -0.5000000  -0.5000000), wk =   0.0019531
        k(  316) = (   0.3125000   0.3125000   0.0000000), wk =   0.0019531
        k(  317) = (   0.3125000   0.3125000   0.0625000), wk =   0.0039062
        k(  318) = (   0.3125000   0.3125000   0.1250000), wk =   0.0039062
        k(  319) = (   0.3125000   0.3125000   0.1875000), wk =   0.0039062
        k(  320) = (   0.3125000   0.3125000   0.2500000), wk =   0.0039062
        k(  321) = (   0.3125000   0.3125000   0.3125000), wk =   0.0039062
        k(  322) = (   0.3125000   0.3125000   0.3750000), wk =   0.0039062
        k(  323) = (   0.3125000   0.3125000   0.4375000), wk =   0.0039062
        k(  324) = (   0.3125000   0.3125000  -0.5000000), wk =   0.0019531
        k(  325) = (   0.3125000   0.3750000   0.0000000), wk =   0.0039062
        k(  326) = (   0.3125000   0.3750000   0.0625000), wk =   0.0078125
        k(  327) = (   0.3125000   0.3750000   0.1250000), wk =   0.0078125
        k(  328) = (   0.3125000   0.3750000   0.1875000), wk =   0.0078125
        k(  329) = (   0.3125000   0.3750000   0.2500000), wk =   0.0078125
        k(  330) = (   0.3125000   0.3750000   0.3125000), wk =   0.0078125
        k(  331) = (   0.3125000   0.3750000   0.3750000), wk =   0.0078125
        k(  332) = (   0.3125000   0.3750000   0.4375000), wk =   0.0078125
        k(  333) = (   0.3125000   0.3750000  -0.5000000), wk =   0.0039062
        k(  334) = (   0.3125000   0.4375000   0.0000000), wk =   0.0039062
        k(  335) = (   0.3125000   0.4375000   0.0625000), wk =   0.0078125
        k(  336) = (   0.3125000   0.4375000   0.1250000), wk =   0.0078125
        k(  337) = (   0.3125000   0.4375000   0.1875000), wk =   0.0078125
        k(  338) = (   0.3125000   0.4375000   0.2500000), wk =   0.0078125
        k(  339) = (   0.3125000   0.4375000   0.3125000), wk =   0.0078125
        k(  340) = (   0.3125000   0.4375000   0.3750000), wk =   0.0078125
        k(  341) = (   0.3125000   0.4375000   0.4375000), wk =   0.0078125
        k(  342) = (   0.3125000   0.4375000  -0.5000000), wk =   0.0039062
        k(  343) = (   0.3125000  -0.5000000   0.0000000), wk =   0.0019531
        k(  344) = (   0.3125000  -0.5000000   0.0625000), wk =   0.0039062
        k(  345) = (   0.3125000  -0.5000000   0.1250000), wk =   0.0039062
        k(  346) = (   0.3125000  -0.5000000   0.1875000), wk =   0.0039062
        k(  347) = (   0.3125000  -0.5000000   0.2500000), wk =   0.0039062
        k(  348) = (   0.3125000  -0.5000000   0.3125000), wk =   0.0039062
        k(  349) = (   0.3125000  -0.5000000   0.3750000), wk =   0.0039062
        k(  350) = (   0.3125000  -0.5000000   0.4375000), wk =   0.0039062
        k(  351) = (   0.3125000  -0.5000000  -0.5000000), wk =   0.0019531
        k(  352) = (   0.3750000   0.3750000   0.0000000), wk =   0.0019531
        k(  353) = (   0.3750000   0.3750000   0.0625000), wk =   0.0039062
        k(  354) = (   0.3750000   0.3750000   0.1250000), wk =   0.0039062
        k(  355) = (   0.3750000   0.3750000   0.1875000), wk =   0.0039062
        k(  356) = (   0.3750000   0.3750000   0.2500000), wk =   0.0039062
        k(  357) = (   0.3750000   0.3750000   0.3125000), wk =   0.0039062
        k(  358) = (   0.3750000   0.3750000   0.3750000), wk =   0.0039062
        k(  359) = (   0.3750000   0.3750000   0.4375000), wk =   0.0039062
        k(  360) = (   0.3750000   0.3750000  -0.5000000), wk =   0.0019531
        k(  361) = (   0.3750000   0.4375000   0.0000000), wk =   0.0039062
        k(  362) = (   0.3750000   0.4375000   0.0625000), wk =   0.0078125
        k(  363) = (   0.3750000   0.4375000   0.1250000), wk =   0.0078125
        k(  364) = (   0.3750000   0.4375000   0.1875000), wk =   0.0078125
        k(  365) = (   0.3750000   0.4375000   0.2500000), wk =   0.0078125
        k(  366) = (   0.3750000   0.4375000   0.3125000), wk =   0.0078125
        k(  367) = (   0.3750000   0.4375000   0.3750000), wk =   0.0078125
        k(  368) = (   0.3750000   0.4375000   0.4375000), wk =   0.0078125
        k(  369) = (   0.3750000   0.4375000  -0.5000000), wk =   0.0039062
        k(  370) = (   0.3750000  -0.5000000   0.0000000), wk =   0.0019531
        k(  371) = (   0.3750000  -0.5000000   0.0625000), wk =   0.0039062
        k(  372) = (   0.3750000  -0.5000000   0.1250000), wk =   0.0039062
        k(  373) = (   0.3750000  -0.5000000   0.1875000), wk =   0.0039062
        k(  374) = (   0.3750000  -0.5000000   0.2500000), wk =   0.0039062
        k(  375) = (   0.3750000  -0.5000000   0.3125000), wk =   0.0039062
        k(  376) = (   0.3750000  -0.5000000   0.3750000), wk =   0.0039062
        k(  377) = (   0.3750000  -0.5000000   0.4375000), wk =   0.0039062
        k(  378) = (   0.3750000  -0.5000000  -0.5000000), wk =   0.0019531
        k(  379) = (   0.4375000   0.4375000   0.0000000), wk =   0.0019531
        k(  380) = (   0.4375000   0.4375000   0.0625000), wk =   0.0039062
        k(  381) = (   0.4375000   0.4375000   0.1250000), wk =   0.0039062
        k(  382) = (   0.4375000   0.4375000   0.1875000), wk =   0.0039062
        k(  383) = (   0.4375000   0.4375000   0.2500000), wk =   0.0039062
        k(  384) = (   0.4375000   0.4375000   0.3125000), wk =   0.0039062
        k(  385) = (   0.4375000   0.4375000   0.3750000), wk =   0.0039062
        k(  386) = (   0.4375000   0.4375000   0.4375000), wk =   0.0039062
        k(  387) = (   0.4375000   0.4375000  -0.5000000), wk =   0.0019531
        k(  388) = (   0.4375000  -0.5000000   0.0000000), wk =   0.0019531
        k(  389) = (   0.4375000  -0.5000000   0.0625000), wk =   0.0039062
        k(  390) = (   0.4375000  -0.5000000   0.1250000), wk =   0.0039062
        k(  391) = (   0.4375000  -0.5000000   0.1875000), wk =   0.0039062
        k(  392) = (   0.4375000  -0.5000000   0.2500000), wk =   0.0039062
        k(  393) = (   0.4375000  -0.5000000   0.3125000), wk =   0.0039062
        k(  394) = (   0.4375000  -0.5000000   0.3750000), wk =   0.0039062
        k(  395) = (   0.4375000  -0.5000000   0.4375000), wk =   0.0039062
        k(  396) = (   0.4375000  -0.5000000  -0.5000000), wk =   0.0019531
        k(  397) = (  -0.5000000  -0.5000000   0.0000000), wk =   0.0004883
        k(  398) = (  -0.5000000  -0.5000000   0.0625000), wk =   0.0009766
        k(  399) = (  -0.5000000  -0.5000000   0.1250000), wk =   0.0009766
        k(  400) = (  -0.5000000  -0.5000000   0.1875000), wk =   0.0009766
        k(  401) = (  -0.5000000  -0.5000000   0.2500000), wk =   0.0009766
        k(  402) = (  -0.5000000  -0.5000000   0.3125000), wk =   0.0009766
        k(  403) = (  -0.5000000  -0.5000000   0.3750000), wk =   0.0009766
        k(  404) = (  -0.5000000  -0.5000000   0.4375000), wk =   0.0009766
        k(  405) = (  -0.5000000  -0.5000000  -0.5000000), wk =   0.0004883

     Dense  grid:    20375 G-vectors     FFT dimensions: (  36,  36,  36)

     Dynamical RAM for                 wfc:       0.05 MB

     Dynamical RAM for     wfc (w. buffer):      20.62 MB

     Dynamical RAM for           str. fact:       0.05 MB

     Dynamical RAM for           local pot:       0.00 MB

     Dynamical RAM for          nlocal pot:       0.15 MB

     Dynamical RAM for                qrad:       4.08 MB

     Dynamical RAM for          rho,v,vnew:       0.11 MB

     Dynamical RAM for               rhoin:       0.04 MB

     Dynamical RAM for            rho*nmix:       0.25 MB

     Dynamical RAM for           G-vectors:       0.07 MB

     Dynamical RAM for          h,s,v(r/c):       0.05 MB

     Dynamical RAM for          <psi|beta>:       0.03 MB

     Dynamical RAM for                 psi:       0.20 MB

     Dynamical RAM for                hpsi:       0.20 MB

     Dynamical RAM for                spsi:       0.20 MB

     Dynamical RAM for      wfcinit/wfcrot:       0.18 MB

     Dynamical RAM for           addusdens:       2.94 MB

     Dynamical RAM for          addusforce:       3.12 MB

     Estimated static dynamical RAM per process >      25.51 MB

     Estimated max dynamical RAM per process >      28.63 MB

     Estimated total dynamical RAM >     572.57 MB

     Check: negative/imaginary core charge=   -0.000010    0.000000

     Initial potential from superposition of free atoms
     Check: negative starting charge=   -0.188995

     starting charge   41.96631, renormalised to   43.00000

     negative rho (up, down):  1.937E-01 0.000E+00
     Starting wfcs are   38 randomized atomic wfcs

     total cpu time spent up to now is        3.8 secs

     Self-consistent Calculation

     iteration #  1     ecut=    50.00 Ry     beta= 0.70
     Davidson diagonalization with overlap
     ethr =  1.00E-02,  avg # of iterations =  2.0

     negative rho (up, down):  1.973E-01 0.000E+00

     total cpu time spent up to now is       12.0 secs

     total energy              =    -340.67957429 Ry
     Harris-Foulkes estimate   =    -342.09933087 Ry
     estimated scf accuracy    <       1.73587889 Ry

     iteration #  2     ecut=    50.00 Ry     beta= 0.70
     Davidson diagonalization with overlap
     ethr =  4.04E-03,  avg # of iterations =  3.4

     negative rho (up, down):  1.947E-01 0.000E+00

     total cpu time spent up to now is       26.4 secs

     total energy              =    -339.64678639 Ry
     Harris-Foulkes estimate   =    -343.18498711 Ry
     estimated scf accuracy    <      10.79342998 Ry

     iteration #  3     ecut=    50.00 Ry     beta= 0.70
     Davidson diagonalization with overlap
     ethr =  4.04E-03,  avg # of iterations =  2.9

     negative rho (up, down):  1.966E-01 0.000E+00

     total cpu time spent up to now is       38.6 secs

     total energy              =    -341.62182290 Ry
     Harris-Foulkes estimate   =    -341.68323718 Ry
     estimated scf accuracy    <       0.22029714 Ry

     iteration #  4     ecut=    50.00 Ry     beta= 0.70
     Davidson diagonalization with overlap
     ethr =  5.12E-04,  avg # of iterations =  2.4

     negative rho (up, down):  1.990E-01 0.000E+00

     total cpu time spent up to now is       48.0 secs

     total energy              =    -341.62182323 Ry
     Harris-Foulkes estimate   =    -341.64258461 Ry
     estimated scf accuracy    <       0.06348440 Ry

     iteration #  5     ecut=    50.00 Ry     beta= 0.70
     Davidson diagonalization with overlap
     ethr =  1.48E-04,  avg # of iterations =  2.7

     negative rho (up, down):  1.998E-01 0.000E+00

     total cpu time spent up to now is       58.4 secs

     total energy              =    -341.62782633 Ry
     Harris-Foulkes estimate   =    -341.63346169 Ry
     estimated scf accuracy    <       0.01641725 Ry

     iteration #  6     ecut=    50.00 Ry     beta= 0.70
     Davidson diagonalization with overlap
     ethr =  3.82E-05,  avg # of iterations =  3.8

     negative rho (up, down):  2.005E-01 0.000E+00

     total cpu time spent up to now is       71.0 secs

     total energy              =    -341.63037898 Ry
     Harris-Foulkes estimate   =    -341.63037449 Ry
     estimated scf accuracy    <       0.00015606 Ry

     iteration #  7     ecut=    50.00 Ry     beta= 0.70
     Davidson diagonalization with overlap
     ethr =  3.63E-07,  avg # of iterations =  6.1

     negative rho (up, down):  2.005E-01 0.000E+00

     total cpu time spent up to now is       91.8 secs

     total energy              =    -341.63035275 Ry
     Harris-Foulkes estimate   =    -341.63044595 Ry
     estimated scf accuracy    <       0.00021966 Ry

     iteration #  8     ecut=    50.00 Ry     beta= 0.70
     Davidson diagonalization with overlap
     ethr =  3.63E-07,  avg # of iterations =  2.4

     negative rho (up, down):  2.005E-01 0.000E+00

     total cpu time spent up to now is      101.4 secs

     total energy              =    -341.63039667 Ry
     Harris-Foulkes estimate   =    -341.63039727 Ry
     estimated scf accuracy    <       0.00000287 Ry

     iteration #  9     ecut=    50.00 Ry     beta= 0.70
     Davidson diagonalization with overlap
     ethr =  6.68E-09,  avg # of iterations =  3.0

     negative rho (up, down):  2.005E-01 0.000E+00

     total cpu time spent up to now is      112.9 secs

     total energy              =    -341.63039692 Ry
     Harris-Foulkes estimate   =    -341.63039726 Ry
     estimated scf accuracy    <       0.00000098 Ry

     iteration # 10     ecut=    50.00 Ry     beta= 0.70
     Davidson diagonalization with overlap
     ethr =  2.29E-09,  avg # of iterations =  2.2

     negative rho (up, down):  2.005E-01 0.000E+00

     total cpu time spent up to now is      122.1 secs

     End of self-consistent calculation

          k = 0.0000 0.0000 0.0000 (  2533 PWs)   bands (ev):

   -55.4106 -27.5533 -27.4463 -27.4463 -22.3338  -6.9242  -6.2172  -6.0825
    -4.3109  -4.3109  -4.2969   7.6319   7.6626   7.6626   8.8677   8.8677
     9.2482   9.5206   9.6521   9.6521  10.8296  11.4007  11.4007  13.9429
    14.1276  15.9184

     occupation numbers 
     1.0000   1.0000   1.0000   1.0000   1.0000   1.0000   1.0000   1.0000
     1.0000   1.0000   1.0000   1.0000   1.0000   1.0000   1.0000   1.0000
     1.0000   1.0000   1.0000   1.0000   1.0000   1.0000   1.0000   0.0000
     0.0000   0.0000

          k = 0.0000 0.0000 0.0622 (  2537 PWs)   bands (ev):

   -55.4106 -27.5546 -27.4463 -27.4463 -22.3331  -6.9168  -6.2196  -6.0814
    -4.3097  -4.3097  -4.2767   7.5300   7.6511   7.6511   8.7950   8.7950
     9.2186   9.4115   9.6581   9.6581  10.8341  11.4960  11.4960  13.9425
    14.2910  15.9821

     occupation numbers 
     1.0000   1.0000   1.0000   1.0000   1.0000   1.0000   1.0000   1.0000
     1.0000   1.0000   1.0000   1.0000   1.0000   1.0000   1.0000   1.0000
     1.0000   1.0000   1.0000   1.0000   1.0000   1.0000   1.0000   0.0000
     0.0000   0.0000

          k = 0.0000 0.0000 0.1244 (  2565 PWs)   bands (ev):

   -55.4106 -27.5582 -27.4461 -27.4461 -22.3312  -6.9015  -6.2178  -6.0782
    -4.3062  -4.3062  -4.2211   7.2362   7.6174   7.6174   8.6195   8.6195
     9.1362   9.1549   9.6625   9.6625  10.8468  11.7515  11.7515  13.9419
    14.7003  16.1955

     occupation numbers 
     1.0000   1.0000   1.0000   1.0000   1.0000   1.0000   1.0000   1.0000
     1.0000   1.0000   1.0000   1.0000   1.0000   1.0000   1.0000   1.0000
     1.0000   1.0000   1.0000   1.0000   1.0000   1.0000   1.0000   0.0000
     0.0000   0.0000

          k = 0.0000 0.0000 0.1867 (  2561 PWs)   bands (ev):

   -55.4105 -27.5635 -27.4458 -27.4458 -22.3283  -6.8955  -6.1912  -6.0734
    -4.3009  -4.3009  -4.1422   6.7976   7.5638   7.5638   8.4119   8.4119
     8.8660   9.0186   9.6538   9.6538  10.8660  12.1029  12.1029  13.9413
    15.2045  16.4462

     occupation numbers 
     1.0000   1.0000   1.0000   1.0000   1.0000   1.0000   1.0000   1.0000
     1.0000   1.0000   1.0000   1.0000   1.0000   1.0000   1.0000   1.0000
     1.0000   1.0000   1.0000   1.0000   1.0000   1.0000   1.0000   0.0000
     0.0000   0.0000

          k = 0.0000 0.0000 0.2489 (  2549 PWs)   bands (ev):

   -55.4105 -27.5696 -27.4455 -27.4455 -22.3250  -6.9111  -6.1266  -6.0677
    -4.2946  -4.2946  -4.0549   6.2943   7.4949   7.4949   8.2189   8.2189
     8.6056   8.8876   9.6353   9.6353  10.8889  12.4881  12.4881  13.9411
    15.6933  16.7595

     occupation numbers 
     1.0000   1.0000   1.0000   1.0000   1.0000   1.0000   1.0000   1.0000
     1.0000   1.0000   1.0000   1.0000   1.0000   1.0000   1.0000   1.0000
     1.0000   1.0000   1.0000   1.0000   1.0000   1.0000   1.0000   0.0000
[...]
    18.1588  18.5317

     occupation numbers 
     1.0000   1.0000   1.0000   1.0000   1.0000   1.0000   1.0000   1.0000
     1.0000   1.0000   1.0000   1.0000   1.0000   1.0000   1.0000   1.0000
     1.0000   1.0000   1.0000   1.0000   0.0000   0.0000   0.0000   0.0000
     0.0000   0.0000

          k = 0.4375 0.4375 0.0622 (  2559 PWs)   bands (ev):

   -55.4101 -27.5514 -27.4770 -27.4769 -22.3030  -6.5639  -5.9781  -5.9522
    -4.2365  -4.0265  -4.0110   5.2758   5.3869   5.7666   7.1541   7.1827
     8.2741   8.8115   8.8415  10.3290  13.2937  13.3345  13.8496  15.1758
    18.1381  18.5608

     occupation numbers 
     1.0000   1.0000   1.0000   1.0000   1.0000   1.0000   1.0000   1.0000
     1.0000   1.0000   1.0000   1.0000   1.0000   1.0000   1.0000   1.0000
     1.0000   1.0000   1.0000   1.0000   0.0000   0.0000   0.0000   0.0000
     0.0000   0.0000

          k = 0.4375 0.4375 0.1244 (  2557 PWs)   bands (ev):

   -55.4101 -27.5548 -27.4768 -27.4767 -22.3016  -6.4938  -5.9467  -5.9231
    -4.2731  -4.0721  -4.0464   5.2771   5.3907   5.8352   6.9828   7.0177
     7.8396   9.0324   9.0663  10.3352  13.3622  13.3961  13.8726  15.6717
    18.0850  18.8979

     occupation numbers 
     1.0000   1.0000   1.0000   1.0000   1.0000   1.0000   1.0000   1.0000
     1.0000   1.0000   1.0000   1.0000   1.0000   1.0000   1.0000   1.0000
     1.0000   1.0000   1.0000   1.0000   0.0000   0.0000   0.0000   0.0000
     0.0000   0.0000

          k = 0.4375 0.4375 0.1867 (  2551 PWs)   bands (ev):

   -55.4100 -27.5599 -27.4765 -27.4764 -22.2995  -6.3858  -5.8968  -5.8778
    -4.3253  -4.1433  -4.1032   5.2791   5.3951   5.9376   6.7755   6.8241
     7.2689   9.3158   9.3485  10.3447  13.4698  13.4960  13.9074  16.3125
    18.0328  18.6218

     occupation numbers 
     1.0000   1.0000   1.0000   1.0000   1.0000   1.0000   1.0000   1.0000
     1.0000   1.0000   1.0000   1.0000   1.0000   1.0000   1.0000   1.0000
     1.0000   1.0000   1.0000   1.0000   0.0000   0.0000   0.0000   0.0000
     0.0000   0.0000

          k = 0.4375 0.4375 0.2489 (  2551 PWs)   bands (ev):

   -55.4100 -27.5660 -27.4761 -27.4761 -22.2970  -6.2530  -5.8325  -5.8218
    -4.3827  -4.2324  -4.1766   5.2814   5.3957   6.0566   6.5210   6.6416
     6.7376   9.6038   9.6340  10.3560  13.6087  13.6280  13.9490  16.8957
    18.0587  18.2909

     occupation numbers 
     1.0000   1.0000   1.0000   1.0000   1.0000   1.0000   1.0000   1.0000
     1.0000   1.0000   1.0000   1.0000   1.0000   1.0000   1.0000   1.0000
     1.0000   1.0000   1.0000   1.0000   0.0000   0.0000   0.0000   0.0000
     0.0000   0.0000

          k = 0.4375 0.4375 0.3111 (  2556 PWs)   bands (ev):

   -55.4100 -27.5720 -27.4758 -27.4757 -22.2946  -6.1123  -5.7636  -5.7606
    -4.4345  -4.3291  -4.2589   5.2837   5.3806   6.0661   6.1904   6.4892
     6.4949   9.8599   9.8878  10.3670  13.7652  13.7793  13.9914  17.1895
    17.9080  17.9199

     occupation numbers 
     1.0000   1.0000   1.0000   1.0000   1.0000   1.0000   1.0000   1.0000
     1.0000   1.0000   1.0000   1.0000   1.0000   1.0000   1.0000   1.0000
     1.0000   1.0000   1.0000   1.0000   0.0000   0.0000   0.0000   0.0000
     0.0000   0.0000

          k = 0.4375 0.4375 0.3733 (  2536 PWs)   bands (ev):

   -55.4099 -27.5771 -27.4754 -27.4754 -22.2925  -5.9835  -5.7152  -5.6914
    -4.4703  -4.4192  -4.3396   5.2856   5.3117   5.7277   6.2622   6.3762
     6.3873  10.0591  10.0867  10.3744  13.9158  13.9274  14.0281  17.2283
    17.6158  17.6418

     occupation numbers 
     1.0000   1.0000   1.0000   1.0000   1.0000   1.0000   1.0000   1.0000
     1.0000   1.0000   1.0000   1.0000   1.0000   1.0000   1.0000   1.0000
     1.0000   1.0000   1.0000   1.0000   0.0000   0.0000   0.0000   0.0000
     0.0000   0.0000

          k = 0.4375 0.4375 0.4355 (  2533 PWs)   bands (ev):

   -55.4099 -27.5804 -27.4752 -27.4752 -22.2911  -5.8882  -5.6872  -5.6394
    -4.4851  -4.4830  -4.4064   5.1733   5.2868   5.5951   6.2532   6.3071
     6.3896  10.1848  10.2165  10.3748  14.0261  14.0393  14.0554  17.1910
    17.4127  17.4761

     occupation numbers 
     1.0000   1.0000   1.0000   1.0000   1.0000   1.0000   1.0000   1.0000
     1.0000   1.0000   1.0000   1.0000   1.0000   1.0000   1.0000   1.0000
     1.0000   1.0000   1.0000   1.0000   0.0000   0.0000   0.0000   0.0000
     0.0000   0.0000

          k = 0.4375 0.4375-0.4977 (  2542 PWs)   bands (ev):

   -55.4099 -27.5816 -27.4752 -27.4752 -22.2906  -5.8513  -5.6798  -5.6197
    -4.5097  -4.4784  -4.4393   5.1040   5.2873   5.5707   6.2355   6.2838
     6.4064  10.2276  10.2644  10.3713  14.0551  14.0775  14.0816  17.1666
    17.3406  17.4237

     occupation numbers 
     1.0000   1.0000   1.0000   1.0000   1.0000   1.0000   1.0000   1.0000
     1.0000   1.0000   1.0000   1.0000   1.0000   1.0000   1.0000   1.0000
     1.0000   1.0000   1.0000   1.0000   0.0000   0.0000   0.0000   0.0000
     0.0000   0.0000

          k = 0.4375-0.5000 0.0000 (  2558 PWs)   bands (ev):

   -55.4101 -27.5502 -27.4783 -27.4769 -22.3029  -6.5648  -5.9851  -5.9737
    -4.2215  -4.0049  -3.9962   5.2155   5.3556   5.6999   7.2193   7.2269
     8.4385   8.7255   8.7554  10.3546  13.2922  13.3774  13.8859  14.9813
    18.1401  18.5625

     occupation numbers 
     1.0000   1.0000   1.0000   1.0000   1.0000   1.0000   1.0000   1.0000
     1.0000   1.0000   1.0000   1.0000   1.0000   1.0000   1.0000   1.0000
     1.0000   1.0000   1.0000   1.0000   0.0000   0.0000   0.0000   0.0000
     0.0000   0.0000

          k = 0.4375-0.5000 0.0622 (  2562 PWs)   bands (ev):

   -55.4101 -27.5514 -27.4782 -27.4769 -22.3025  -6.5403  -5.9741  -5.9633
    -4.2339  -4.0189  -4.0122   5.2161   5.3570   5.7253   7.1489   7.1592
     8.2727   8.8184   8.8392  10.3570  13.3152  13.3977  13.8940  15.1713
    18.1175  18.5939

     occupation numbers 
     1.0000   1.0000   1.0000   1.0000   1.0000   1.0000   1.0000   1.0000
     1.0000   1.0000   1.0000   1.0000   1.0000   1.0000   1.0000   1.0000
     1.0000   1.0000   1.0000   1.0000   0.0000   0.0000   0.0000   0.0000
     0.0000   0.0000

          k = 0.4375-0.5000 0.1244 (  2558 PWs)   bands (ev):

   -55.4101 -27.5548 -27.4780 -27.4767 -22.3011  -6.4696  -5.9419  -5.9328
    -4.2687  -4.0598  -4.0587   5.2179   5.3607   5.7975   6.9823   6.9966
     7.8322   9.0493   9.0571  10.3640  13.3819  13.4578  13.9172  15.6674
    18.0611  18.6828

     occupation numbers 
     1.0000   1.0000   1.0000   1.0000   1.0000   1.0000   1.0000   1.0000
     1.0000   1.0000   1.0000   1.0000   1.0000   1.0000   1.0000   1.0000
     1.0000   1.0000   1.0000   1.0000   0.0000   0.0000   0.0000   0.0000
     0.0000   0.0000

          k = 0.4375-0.5000 0.1867 (  2552 PWs)   bands (ev):

   -55.4100 -27.5599 -27.4777 -27.4764 -22.2990  -6.3607  -5.8910  -5.8845
    -4.3196  -4.1309  -4.1242   5.2204   5.3652   5.9055   6.7874   6.8000
     7.2550   9.3359   9.3399  10.3745  13.4880  13.5550  13.9522  16.3047
    18.0104  18.7361

     occupation numbers 
     1.0000   1.0000   1.0000   1.0000   1.0000   1.0000   1.0000   1.0000
     1.0000   1.0000   1.0000   1.0000   1.0000   1.0000   1.0000   1.0000
     1.0000   1.0000   1.0000   1.0000   0.0000   0.0000   0.0000   0.0000
     0.0000   0.0000

          k = 0.4375-0.5000 0.2489 (  2544 PWs)   bands (ev):

   -55.4100 -27.5659 -27.4773 -27.4760 -22.2965  -6.2271  -5.8262  -5.8226
    -4.3779  -4.2210  -4.2061   5.2231   5.3668   6.0324   6.5548   6.6046
     6.7150   9.6211   9.6355  10.3871  13.6258  13.6830  13.9940  16.8726
    18.0597  18.3075

     occupation numbers 
     1.0000   1.0000   1.0000   1.0000   1.0000   1.0000   1.0000   1.0000
     1.0000   1.0000   1.0000   1.0000   1.0000   1.0000   1.0000   1.0000
     1.0000   1.0000   1.0000   1.0000   0.0000   0.0000   0.0000   0.0000
     0.0000   0.0000

          k = 0.4375-0.5000 0.3111 (  2548 PWs)   bands (ev):

   -55.4100 -27.5720 -27.4770 -27.4757 -22.2941  -6.0863  -5.7556  -5.7538
    -4.4340  -4.3181  -4.2958   5.2250   5.3559   6.0843   6.1577   6.4539
     6.4996   9.8767   9.8995  10.3994  13.7814  13.8292  14.0362  17.1438
    17.8919  17.9103

     occupation numbers 
     1.0000   1.0000   1.0000   1.0000   1.0000   1.0000   1.0000   1.0000
     1.0000   1.0000   1.0000   1.0000   1.0000   1.0000   1.0000   1.0000
     1.0000   1.0000   1.0000   1.0000   0.0000   0.0000   0.0000   0.0000
     0.0000   0.0000

          k = 0.4375-0.5000 0.3733 (  2532 PWs)   bands (ev):

   -55.4099 -27.5770 -27.4767 -27.4753 -22.2920  -5.9591  -5.6910  -5.6884
    -4.4791  -4.4076  -4.3807   5.2222   5.3048   5.7152   6.2522   6.3544
     6.3803  10.0774  10.1067  10.4090  13.9318  13.9718  14.0726  17.1769
    17.5769  17.6080

     occupation numbers 
     1.0000   1.0000   1.0000   1.0000   1.0000   1.0000   1.0000   1.0000
     1.0000   1.0000   1.0000   1.0000   1.0000   1.0000   1.0000   1.0000
     1.0000   1.0000   1.0000   1.0000   0.0000   0.0000   0.0000   0.0000
     0.0000   0.0000

          k = 0.4375-0.5000 0.4355 (  2532 PWs)   bands (ev):

   -55.4099 -27.5804 -27.4765 -27.4751 -22.2906  -5.8680  -5.6461  -5.6397
    -4.5064  -4.4724  -4.4449   5.1608   5.2442   5.5640   6.2480   6.3092
     6.3618  10.2048  10.2400  10.4133  14.0445  14.0779  14.0988  17.1433
    17.3773  17.4069

     occupation numbers 
     1.0000   1.0000   1.0000   1.0000   1.0000   1.0000   1.0000   1.0000
     1.0000   1.0000   1.0000   1.0000   1.0000   1.0000   1.0000   1.0000
     1.0000   1.0000   1.0000   1.0000   0.0000   0.0000   0.0000   0.0000
     0.0000   0.0000

          k = 0.4375-0.5000-0.4977 (  2528 PWs)   bands (ev):

   -55.4099 -27.5815 -27.4764 -27.4751 -22.2901  -5.8342  -5.6304  -5.6214
    -4.5141  -4.4964  -4.4705   5.0996   5.2397   5.5354   6.2299   6.2854
     6.3821  10.2485  10.2872  10.4132  14.0870  14.1031  14.1230  17.1200
    17.3136  17.3357

     occupation numbers 
     1.0000   1.0000   1.0000   1.0000   1.0000   1.0000   1.0000   1.0000
     1.0000   1.0000   1.0000   1.0000   1.0000   1.0000   1.0000   1.0000
     1.0000   1.0000   1.0000   1.0000   0.0000   0.0000   0.0000   0.0000
     0.0000   0.0000

          k =-0.5000-0.5000 0.0000 (  2544 PWs)   bands (ev):

   -55.4101 -27.5501 -27.4782 -27.4782 -22.3025  -6.5372  -5.9856  -5.9856
    -4.2196  -3.9962  -3.9962   5.1887   5.2914   5.6587   7.2073   7.2073
     8.4400   8.7435   8.7435  10.3848  13.3780  13.3780  13.9285  14.9758
    18.1090  18.6004

     occupation numbers 
     1.0000   1.0000   1.0000   1.0000   1.0000   1.0000   1.0000   1.0000
     1.0000   1.0000   1.0000   1.0000   1.0000   1.0000   1.0000   1.0000
     1.0000   1.0000   1.0000   1.0000   0.0000   0.0000   0.0000   0.0000
     0.0000   0.0000

          k =-0.5000-0.5000 0.0622 (  2552 PWs)   bands (ev):

   -55.4101 -27.5513 -27.4781 -27.4781 -22.3020  -6.5125  -5.9746  -5.9746
    -4.2309  -4.0125  -4.0125   5.1893   5.2930   5.6853   7.1400   7.1400
     8.2689   8.8334   8.8334  10.3875  13.3989  13.3989  13.9367  15.1664
    18.0855  18.6330

     occupation numbers 
     1.0000   1.0000   1.0000   1.0000   1.0000   1.0000   1.0000   1.0000
     1.0000   1.0000   1.0000   1.0000   1.0000   1.0000   1.0000   1.0000
     1.0000   1.0000   1.0000   1.0000   0.0000   0.0000   0.0000   0.0000
     0.0000   0.0000

          k =-0.5000-0.5000 0.1244 (  2540 PWs)   bands (ev):

   -55.4100 -27.5547 -27.4779 -27.4779 -22.3006  -6.4409  -5.9422  -5.9422
    -4.2627  -4.0600  -4.0600   5.1908   5.2973   5.7610   6.9792   6.9792
     7.8233   9.0586   9.0586  10.3952  13.4606  13.4606  13.9602  15.6627
    18.0277  18.7305

     occupation numbers 
     1.0000   1.0000   1.0000   1.0000   1.0000   1.0000   1.0000   1.0000
     1.0000   1.0000   1.0000   1.0000   1.0000   1.0000   1.0000   1.0000
     1.0000   1.0000   1.0000   1.0000   0.0000   0.0000   0.0000   0.0000
     0.0000   0.0000

          k =-0.5000-0.5000 0.1867 (  2548 PWs)   bands (ev):

   -55.4100 -27.5598 -27.4776 -27.4776 -22.2985  -6.3310  -5.8907  -5.8907
    -4.3098  -4.1340  -4.1340   5.1932   5.3027   5.8742   6.7896   6.7896
     7.2374   9.3449   9.3449  10.4068  13.5600  13.5600  13.9954  16.2957
    17.9799  19.1047

     occupation numbers 
     1.0000   1.0000   1.0000   1.0000   1.0000   1.0000   1.0000   1.0000
     1.0000   1.0000   1.0000   1.0000   1.0000   1.0000   1.0000   1.0000
     1.0000   1.0000   1.0000   1.0000   0.0000   0.0000   0.0000   0.0000
     0.0000   0.0000

          k =-0.5000-0.5000 0.2489 (  2544 PWs)   bands (ev):

   -55.4100 -27.5658 -27.4773 -27.4773 -22.2960  -6.1964  -5.8241  -5.8241
    -4.3644  -4.2270  -4.2270   5.1959   5.3056   6.0080   6.6102   6.6102
     6.6301   9.6386   9.6386  10.4206  13.6903  13.6903  14.0373  16.8461
    18.0533  18.2968

     occupation numbers 
     1.0000   1.0000   1.0000   1.0000   1.0000   1.0000   1.0000   1.0000
     1.0000   1.0000   1.0000   1.0000   1.0000   1.0000   1.0000   1.0000
     1.0000   1.0000   1.0000   1.0000   0.0000   0.0000   0.0000   0.0000
     0.0000   0.0000

          k =-0.5000-0.5000 0.3111 (  2532 PWs)   bands (ev):

   -55.4099 -27.5719 -27.4769 -27.4769 -22.2936  -6.0559  -5.7492  -5.7492
    -4.4180  -4.3280  -4.3280   5.1987   5.2979   6.0905   6.1419   6.4600
     6.4600   9.9031   9.9031  10.4345  13.8384  13.8384  14.0796  17.0931
    17.8859  17.8859

     occupation numbers 
     1.0000   1.0000   1.0000   1.0000   1.0000   1.0000   1.0000   1.0000
     1.0000   1.0000   1.0000   1.0000   1.0000   1.0000   1.0000   1.0000
     1.0000   1.0000   1.0000   1.0000   0.0000   0.0000   0.0000   0.0000
     0.0000   0.0000

          k =-0.5000-0.5000 0.3733 (  2536 PWs)   bands (ev):

   -55.4099 -27.5769 -27.4766 -27.4766 -22.2915  -5.9317  -5.6767  -5.6767
    -4.4627  -4.4226  -4.4226   5.2011   5.2563   5.6994   6.2556   6.3483
     6.3483  10.1115  10.1115  10.4463  13.9820  13.9820  14.1157  17.1210
    17.5540  17.5540

     occupation numbers 
     1.0000   1.0000   1.0000   1.0000   1.0000   1.0000   1.0000   1.0000
     1.0000   1.0000   1.0000   1.0000   1.0000   1.0000   1.0000   1.0000
     1.0000   1.0000   1.0000   1.0000   0.0000   0.0000   0.0000   0.0000
     0.0000   0.0000

          k =-0.5000-0.5000 0.4355 (  2540 PWs)   bands (ev):

   -55.4099 -27.5803 -27.4764 -27.4764 -22.2901  -5.8459  -5.6218  -5.6218
    -4.4923  -4.4923  -4.4923   5.1561   5.2026   5.5223   6.2799   6.2799
     6.3317  10.2445  10.2445  10.4542  14.0901  14.0901  14.1400  17.0987
    17.3339  17.3339

     occupation numbers 
     1.0000   1.0000   1.0000   1.0000   1.0000   1.0000   1.0000   1.0000
     1.0000   1.0000   1.0000   1.0000   1.0000   1.0000   1.0000   1.0000
     1.0000   1.0000   1.0000   1.0000   0.0000   0.0000   0.0000   0.0000
     0.0000   0.0000

          k =-0.5000-0.5000-0.4977 (  2512 PWs)   bands (ev):

   -55.4099 -27.5814 -27.4763 -27.4763 -22.2896  -5.8152  -5.6009  -5.6009
    -4.5183  -4.5183  -4.5025   5.0968   5.2032   5.4863   6.2570   6.2570
     6.3585  10.2902  10.2902  10.4571  14.1310  14.1310  14.1486  17.0869
    17.2561  17.2561

     occupation numbers 
     1.0000   1.0000   1.0000   1.0000   1.0000   1.0000   1.0000   1.0000
     1.0000   1.0000   1.0000   1.0000   1.0000   1.0000   1.0000   1.0000
     1.0000   1.0000   1.0000   1.0000   0.0000   0.0000   0.0000   0.0000
     0.0000   0.0000

     the Fermi energy is    13.1503 ev

!    total energy              =    -341.63039707 Ry
     Harris-Foulkes estimate   =    -341.63039707 Ry
     estimated scf accuracy    <          3.2E-09 Ry

     The total energy is the sum of the following terms:

     one-electron contribution =     -96.33564672 Ry
     hartree contribution      =      72.82885783 Ry
     xc contribution           =     -72.27142071 Ry
     ewald contribution        =    -245.85217658 Ry
     smearing contrib. (-TS)   =      -0.00001089 Ry

     convergence has been achieved in  10 iterations

     negative rho (up, down):  2.005E-01 0.000E+00

     Forces acting on atoms (cartesian axes, Ry/au):

     atom    1 type  2   force =     0.00000000    0.00000000   -0.00766314
     atom    2 type  3   force =     0.00000000    0.00000000    0.10792030
     atom    3 type  1   force =     0.00000000    0.00000000   -0.07125120
     atom    4 type  1   force =     0.00000000    0.00000000   -0.01450298
     atom    5 type  1   force =     0.00000000    0.00000000   -0.01450298
     The non-local contrib.  to forces
     atom    1 type  2   force =     0.00000000    0.00000000    0.00359382
     atom    2 type  3   force =     0.00000000    0.00000000   -0.14521054
     atom    3 type  1   force =     0.00000000    0.00000000    0.33101437
     atom    4 type  1   force =     0.00000000    0.00000000   -0.15663908
     atom    5 type  1   force =     0.00000000    0.00000000   -0.15663908
     The ionic contribution  to forces
     atom    1 type  2   force =     0.00000000    0.00000000   -0.01281570
     atom    2 type  3   force =    -0.00000000   -0.00000000    1.82861640
     atom    3 type  1   force =     0.00000000    0.00000000   -3.56514836
     atom    4 type  1   force =    -0.00000000   -0.00000000    0.87467383
     atom    5 type  1   force =    -0.00000000   -0.00000000    0.87467383
     The local contribution  to forces
     atom    1 type  2   force =     0.00000000    0.00000000    0.00168166
     atom    2 type  3   force =     0.00000000    0.00000000   -1.57979080
     atom    3 type  1   force =     0.00000000    0.00000000    3.16388756
     atom    4 type  1   force =     0.00000000   -0.00000000   -0.73366115
     atom    5 type  1   force =    -0.00000000    0.00000000   -0.73366115
     The core correction contribution to forces
     atom    1 type  2   force =    -0.00000000   -0.00000000   -0.00013080
     atom    2 type  3   force =    -0.00000000   -0.00000000    0.00440122
     atom    3 type  1   force =     0.00000000    0.00000000   -0.00105586
     atom    4 type  1   force =     0.00000000   -0.00000000    0.00115592
     atom    5 type  1   force =    -0.00000000    0.00000000    0.00115592
     The Hubbard contrib.    to forces
     atom    1 type  2   force =     0.00000000    0.00000000    0.00000000
     atom    2 type  3   force =     0.00000000    0.00000000    0.00000000
     atom    3 type  1   force =     0.00000000    0.00000000    0.00000000
     atom    4 type  1   force =     0.00000000    0.00000000    0.00000000
     atom    5 type  1   force =     0.00000000    0.00000000    0.00000000
     The SCF correction term to forces
     atom    1 type  2   force =    -0.00000000   -0.00000000    0.00000569
     atom    2 type  3   force =    -0.00000000   -0.00000000   -0.00009818
     atom    3 type  1   force =     0.00000000    0.00000000    0.00004890
     atom    4 type  1   force =     0.00000000   -0.00000000   -0.00003470
     atom    5 type  1   force =    -0.00000000    0.00000000   -0.00003470

     Total force =     0.131160     Total SCF correction =     0.000120

     number of scf cycles    =   4
     number of bfgs steps    =   3

     energy   old            =    -390.8228011802 Ry
     energy   new            =    -341.6303970726 Ry

     CASE: energy  _new > energy  _old

     new trust radius        =                NaN bohr
     new conv_thr            =       0.0000000100 Ry


ATOMIC_POSITIONS (crystal)
Sr               NaN           NaN           NaN
Tc               NaN           NaN           NaN
O                NaN           NaN           NaN
O                NaN           NaN           NaN
O                NaN           NaN           NaN



 %%%%%%%%%%%%%%%%%%%%%%%%%%%%%%%%%%%%%%%%%%%%%%%%%%%%%%%%%%%%%%%%%%%%%%%%%%%%%%
     Error in routine checkallsym (1):
     some of the original symmetry operations not satisfied
 %%%%%%%%%%%%%%%%%%%%%%%%%%%%%%%%%%%%%%%%%%%%%%%%%%%%%%%%%%%%%%%%%%%%%%%%%%%%%%

     stopping ...
