
     Program PWSCF v.6.3MaX starts on 21Mar2019 at  2:27:59 

     This program is part of the open-source Quantum ESPRESSO suite
     for quantum simulation of materials; please cite
         "P. Giannozzi et al., J. Phys.:Condens. Matter 21 395502 (2009);
         "P. Giannozzi et al., J. Phys.:Condens. Matter 29 465901 (2017);
          URL http://www.quantum-espresso.org", 
     in publications or presentations arising from this work. More details at
     http://www.quantum-espresso.org/quote

     Parallel version (MPI & OpenMP), running on      20 processor cores
     Number of MPI processes:                20
     Threads/MPI process:                     1

     MPI processes distributed on     1 nodes
     R & G space division:  proc/nbgrp/npool/nimage =      20
     Reading input from /home/azadoks/dftman/projects/ABO3 Tetragonal/PBSJobs/BaNbO3221vcrelax_8bd64abb8a2f/pwscf.in
Warning: card &CELL ignored
Warning: card / ignored

     Current dimensions of program PWSCF are:
     Max number of different atomic species (ntypx) = 10
     Max number of k-points (npk) =  40000
     Max angular momentum in pseudopotentials (lmaxx) =  3
     Message from routine iosys:
     minimal I/O required, wf_collect reset to FALSE

     Subspace diagonalization in iterative solution of the eigenvalue problem:
     one sub-group per band group will be used
     scalapack distributed-memory algorithm (size of sub-group:  3*  3 procs)

 
     Parallelization info
     --------------------
     sticks:   dense  smooth     PW     G-vecs:    dense   smooth      PW
     Min         176     176     48                 7856     7856    1133
     Max         177     177     50                 7858     7858    1135
     Sum        3521    3521    973               157147   157147   22679
 


     bravais-lattice index     =            0
     lattice parameter (alat)  =      14.8497  a.u.
     unit-cell volume          =    3289.4311 (a.u.)^3
     number of atoms/cell      =            5
     number of atomic types    =            3
     number of electrons       =        41.00
     number of Kohn-Sham states=           25
     kinetic-energy cutoff     =      50.0000  Ry
     charge density cutoff     =     200.0000  Ry
     convergence threshold     =      1.0E-08
     mixing beta               =       0.7000
     number of iterations used =            8  plain     mixing
     Exchange-correlation      = SLA  PW   PBE  PBE ( 1  4  3  4 0 0)
     nstep                     =           50


     celldm(1)=  14.849657  celldm(2)=   0.000000  celldm(3)=   0.000000
     celldm(4)=   0.000000  celldm(5)=   0.000000  celldm(6)=   0.000000

     crystal axes: (cart. coord. in units of alat)
               a(1) = (   1.000000   0.000000   0.000000 )  
               a(2) = (   0.000000   1.000000   0.000000 )  
               a(3) = (   0.000000   0.000000   1.004550 )  

     reciprocal axes: (cart. coord. in units 2 pi/alat)
               b(1) = (  1.000000  0.000000  0.000000 )  
               b(2) = (  0.000000  1.000000  0.000000 )  
               b(3) = (  0.000000  0.000000  0.995471 )  


     PseudoPot. # 1 for Ba read from file:
     /home/azadoks/.local/share/pseudo/GBRV_PBE_US/ba_pbe_v1.uspp.F.UPF
     MD5 check sum: 3380f63c22b3abf76d74aa74136bb909
     Pseudo is Ultrasoft + core correction, Zval = 10.0
     Generated by new atomic code, or converted to UPF format
     Using radial grid of  907 points,  7 beta functions with: 
                l(1) =   0
                l(2) =   0
                l(3) =   1
                l(4) =   1
                l(5) =   2
                l(6) =   2
                l(7) =   3
     Q(r) pseudized with  6 coefficients,  rinner =    1.700   1.700   1.700
                                                       1.700   1.700   1.700
                                                       1.700

     PseudoPot. # 2 for Nb read from file:
     /home/azadoks/.local/share/pseudo/GBRV_PBE_US/nb_pbe_v1.uspp.F.UPF
     MD5 check sum: 573aab8a2fa660278ed4a62cd769473f
     Pseudo is Ultrasoft + core correction, Zval = 13.0
     Generated by new atomic code, or converted to UPF format
     Using radial grid of  887 points,  6 beta functions with: 
                l(1) =   0
                l(2) =   0
                l(3) =   1
                l(4) =   1
                l(5) =   2
                l(6) =   2
     Q(r) pseudized with  6 coefficients,  rinner =    1.000   1.000   1.000
                                                       1.000   1.000

     PseudoPot. # 3 for O  read from file:
     /home/azadoks/.local/share/pseudo/GBRV_PBE_US/o_pbe_v1.2.uspp.F.UPF
     MD5 check sum: 734c27235a0248c51dbae37a1fbe46ec
     Pseudo is Ultrasoft + core correction, Zval =  6.0
     Generated by new atomic code, or converted to UPF format
     Using radial grid of  737 points,  5 beta functions with: 
                l(1) =   0
                l(2) =   0
                l(3) =   1
                l(4) =   1
                l(5) =   2
     Q(r) pseudized with  8 coefficients,  rinner =    0.900   0.900   0.900
                                                       0.900   0.900

     atomic species   valence    mass     pseudopotential
        Ba            10.00   137.32700     Ba( 1.00)
        Nb            13.00    92.90640     Nb( 1.00)
        O              6.00    15.99940     O ( 1.00)

      8 Sym. Ops. (no inversion) found


                                    s                        frac. trans.

      isym =  1     identity                                     

 cryst.   s( 1) = (     1          0          0      )
                  (     0          1          0      )
                  (     0          0          1      )

 cart.    s( 1) = (  1.0000000  0.0000000  0.0000000 )
                  (  0.0000000  1.0000000  0.0000000 )
                  (  0.0000000  0.0000000  1.0000000 )


      isym =  2     180 deg rotation - cart. axis [0,0,1]        

 cryst.   s( 2) = (    -1          0          0      )
                  (     0         -1          0      )
                  (     0          0          1      )

 cart.    s( 2) = ( -1.0000000  0.0000000  0.0000000 )
                  (  0.0000000 -1.0000000  0.0000000 )
                  (  0.0000000  0.0000000  1.0000000 )


      isym =  3      90 deg rotation - cart. axis [0,0,-1]       

 cryst.   s( 3) = (     0         -1          0      )
                  (     1          0          0      )
                  (     0          0          1      )

 cart.    s( 3) = (  0.0000000  1.0000000  0.0000000 )
                  ( -1.0000000  0.0000000  0.0000000 )
                  (  0.0000000  0.0000000  1.0000000 )


      isym =  4      90 deg rotation - cart. axis [0,0,1]        

 cryst.   s( 4) = (     0          1          0      )
                  (    -1          0          0      )
                  (     0          0          1      )

 cart.    s( 4) = (  0.0000000 -1.0000000  0.0000000 )
                  (  1.0000000  0.0000000  0.0000000 )
                  (  0.0000000  0.0000000  1.0000000 )


      isym =  5     inv. 180 deg rotation - cart. axis [0,1,0]   

 cryst.   s( 5) = (     1          0          0      )
                  (     0         -1          0      )
                  (     0          0          1      )

 cart.    s( 5) = (  1.0000000  0.0000000  0.0000000 )
                  (  0.0000000 -1.0000000  0.0000000 )
                  (  0.0000000  0.0000000  1.0000000 )


      isym =  6     inv. 180 deg rotation - cart. axis [1,0,0]   

 cryst.   s( 6) = (    -1          0          0      )
                  (     0          1          0      )
                  (     0          0          1      )

 cart.    s( 6) = ( -1.0000000  0.0000000  0.0000000 )
                  (  0.0000000  1.0000000  0.0000000 )
                  (  0.0000000  0.0000000  1.0000000 )


      isym =  7     inv. 180 deg rotation - cart. axis [1,1,0]   

 cryst.   s( 7) = (     0         -1          0      )
                  (    -1          0          0      )
                  (     0          0          1      )

 cart.    s( 7) = (  0.0000000 -1.0000000  0.0000000 )
                  ( -1.0000000  0.0000000  0.0000000 )
                  (  0.0000000  0.0000000  1.0000000 )


      isym =  8     inv. 180 deg rotation - cart. axis [1,-1,0]  

 cryst.   s( 8) = (     0          1          0      )
                  (     1          0          0      )
                  (     0          0          1      )

 cart.    s( 8) = (  0.0000000  1.0000000  0.0000000 )
                  (  1.0000000  0.0000000  0.0000000 )
                  (  0.0000000  0.0000000  1.0000000 )


   Cartesian axes

     site n.     atom                  positions (alat units)
         1           Ba  tau(   1) = (   0.0000000   0.0000000   0.0000000  )
         2           Nb  tau(   2) = (   0.5000000   0.5000000   0.4841931  )
         3           O   tau(   3) = (   0.5000000   0.5000000   0.0160728  )
         4           O   tau(   4) = (   0.5000000   0.0000000   0.5173432  )
         5           O   tau(   5) = (   0.0000000   0.5000000   0.5173432  )

   Crystallographic axes

     site n.     atom                  positions (cryst. coord.)
         1           Ba  tau(   1) = (  0.0000000  0.0000000  0.0000000  )
         2           Nb  tau(   2) = (  0.5000000  0.5000000  0.4820000  )
         3           O   tau(   3) = (  0.5000000  0.5000000  0.0160000  )
         4           O   tau(   4) = (  0.5000000  0.0000000  0.5150000  )
         5           O   tau(   5) = (  0.0000000  0.5000000  0.5150000  )

     number of k points=    75  Marzari-Vanderbilt smearing, width (Ry)=  0.0010
                       cart. coord. in units 2pi/alat
        k(    1) = (   0.0000000   0.0000000   0.0000000), wk =   0.0030864
        k(    2) = (   0.0000000   0.0000000   0.1244338), wk =   0.0061728
        k(    3) = (   0.0000000   0.0000000   0.2488677), wk =   0.0061728
        k(    4) = (   0.0000000   0.0000000   0.3733015), wk =   0.0061728
        k(    5) = (   0.0000000   0.0000000  -0.4977353), wk =   0.0030864
        k(    6) = (   0.0000000   0.1111111   0.0000000), wk =   0.0123457
        k(    7) = (   0.0000000   0.1111111   0.1244338), wk =   0.0246914
        k(    8) = (   0.0000000   0.1111111   0.2488677), wk =   0.0246914
        k(    9) = (   0.0000000   0.1111111   0.3733015), wk =   0.0246914
        k(   10) = (   0.0000000   0.1111111  -0.4977353), wk =   0.0123457
        k(   11) = (   0.0000000   0.2222222   0.0000000), wk =   0.0123457
        k(   12) = (   0.0000000   0.2222222   0.1244338), wk =   0.0246914
        k(   13) = (   0.0000000   0.2222222   0.2488677), wk =   0.0246914
        k(   14) = (   0.0000000   0.2222222   0.3733015), wk =   0.0246914
        k(   15) = (   0.0000000   0.2222222  -0.4977353), wk =   0.0123457
        k(   16) = (   0.0000000   0.3333333   0.0000000), wk =   0.0123457
        k(   17) = (   0.0000000   0.3333333   0.1244338), wk =   0.0246914
        k(   18) = (   0.0000000   0.3333333   0.2488677), wk =   0.0246914
        k(   19) = (   0.0000000   0.3333333   0.3733015), wk =   0.0246914
        k(   20) = (   0.0000000   0.3333333  -0.4977353), wk =   0.0123457
        k(   21) = (   0.0000000   0.4444444   0.0000000), wk =   0.0123457
        k(   22) = (   0.0000000   0.4444444   0.1244338), wk =   0.0246914
        k(   23) = (   0.0000000   0.4444444   0.2488677), wk =   0.0246914
        k(   24) = (   0.0000000   0.4444444   0.3733015), wk =   0.0246914
        k(   25) = (   0.0000000   0.4444444  -0.4977353), wk =   0.0123457
        k(   26) = (   0.1111111   0.1111111   0.0000000), wk =   0.0123457
        k(   27) = (   0.1111111   0.1111111   0.1244338), wk =   0.0246914
        k(   28) = (   0.1111111   0.1111111   0.2488677), wk =   0.0246914
        k(   29) = (   0.1111111   0.1111111   0.3733015), wk =   0.0246914
        k(   30) = (   0.1111111   0.1111111  -0.4977353), wk =   0.0123457
        k(   31) = (   0.1111111   0.2222222   0.0000000), wk =   0.0246914
        k(   32) = (   0.1111111   0.2222222   0.1244338), wk =   0.0493827
        k(   33) = (   0.1111111   0.2222222   0.2488677), wk =   0.0493827
        k(   34) = (   0.1111111   0.2222222   0.3733015), wk =   0.0493827
        k(   35) = (   0.1111111   0.2222222  -0.4977353), wk =   0.0246914
        k(   36) = (   0.1111111   0.3333333   0.0000000), wk =   0.0246914
        k(   37) = (   0.1111111   0.3333333   0.1244338), wk =   0.0493827
        k(   38) = (   0.1111111   0.3333333   0.2488677), wk =   0.0493827
        k(   39) = (   0.1111111   0.3333333   0.3733015), wk =   0.0493827
        k(   40) = (   0.1111111   0.3333333  -0.4977353), wk =   0.0246914
        k(   41) = (   0.1111111   0.4444444   0.0000000), wk =   0.0246914
        k(   42) = (   0.1111111   0.4444444   0.1244338), wk =   0.0493827
        k(   43) = (   0.1111111   0.4444444   0.2488677), wk =   0.0493827
        k(   44) = (   0.1111111   0.4444444   0.3733015), wk =   0.0493827
        k(   45) = (   0.1111111   0.4444444  -0.4977353), wk =   0.0246914
        k(   46) = (   0.2222222   0.2222222   0.0000000), wk =   0.0123457
        k(   47) = (   0.2222222   0.2222222   0.1244338), wk =   0.0246914
        k(   48) = (   0.2222222   0.2222222   0.2488677), wk =   0.0246914
        k(   49) = (   0.2222222   0.2222222   0.3733015), wk =   0.0246914
        k(   50) = (   0.2222222   0.2222222  -0.4977353), wk =   0.0123457
        k(   51) = (   0.2222222   0.3333333   0.0000000), wk =   0.0246914
        k(   52) = (   0.2222222   0.3333333   0.1244338), wk =   0.0493827
        k(   53) = (   0.2222222   0.3333333   0.2488677), wk =   0.0493827
        k(   54) = (   0.2222222   0.3333333   0.3733015), wk =   0.0493827
        k(   55) = (   0.2222222   0.3333333  -0.4977353), wk =   0.0246914
        k(   56) = (   0.2222222   0.4444444   0.0000000), wk =   0.0246914
        k(   57) = (   0.2222222   0.4444444   0.1244338), wk =   0.0493827
        k(   58) = (   0.2222222   0.4444444   0.2488677), wk =   0.0493827
        k(   59) = (   0.2222222   0.4444444   0.3733015), wk =   0.0493827
        k(   60) = (   0.2222222   0.4444444  -0.4977353), wk =   0.0246914
        k(   61) = (   0.3333333   0.3333333   0.0000000), wk =   0.0123457
        k(   62) = (   0.3333333   0.3333333   0.1244338), wk =   0.0246914
        k(   63) = (   0.3333333   0.3333333   0.2488677), wk =   0.0246914
        k(   64) = (   0.3333333   0.3333333   0.3733015), wk =   0.0246914
        k(   65) = (   0.3333333   0.3333333  -0.4977353), wk =   0.0123457
        k(   66) = (   0.3333333   0.4444444   0.0000000), wk =   0.0246914
        k(   67) = (   0.3333333   0.4444444   0.1244338), wk =   0.0493827
        k(   68) = (   0.3333333   0.4444444   0.2488677), wk =   0.0493827
        k(   69) = (   0.3333333   0.4444444   0.3733015), wk =   0.0493827
        k(   70) = (   0.3333333   0.4444444  -0.4977353), wk =   0.0246914
        k(   71) = (   0.4444444   0.4444444   0.0000000), wk =   0.0123457
        k(   72) = (   0.4444444   0.4444444   0.1244338), wk =   0.0246914
        k(   73) = (   0.4444444   0.4444444   0.2488677), wk =   0.0246914
        k(   74) = (   0.4444444   0.4444444   0.3733015), wk =   0.0246914
        k(   75) = (   0.4444444   0.4444444  -0.4977353), wk =   0.0123457

                       cryst. coord.
        k(    1) = (   0.0000000   0.0000000   0.0000000), wk =   0.0030864
        k(    2) = (   0.0000000   0.0000000   0.1250000), wk =   0.0061728
        k(    3) = (   0.0000000   0.0000000   0.2500000), wk =   0.0061728
        k(    4) = (   0.0000000   0.0000000   0.3750000), wk =   0.0061728
        k(    5) = (   0.0000000   0.0000000  -0.5000000), wk =   0.0030864
        k(    6) = (   0.0000000   0.1111111   0.0000000), wk =   0.0123457
        k(    7) = (   0.0000000   0.1111111   0.1250000), wk =   0.0246914
        k(    8) = (   0.0000000   0.1111111   0.2500000), wk =   0.0246914
        k(    9) = (   0.0000000   0.1111111   0.3750000), wk =   0.0246914
        k(   10) = (   0.0000000   0.1111111  -0.5000000), wk =   0.0123457
        k(   11) = (   0.0000000   0.2222222   0.0000000), wk =   0.0123457
        k(   12) = (   0.0000000   0.2222222   0.1250000), wk =   0.0246914
        k(   13) = (   0.0000000   0.2222222   0.2500000), wk =   0.0246914
        k(   14) = (   0.0000000   0.2222222   0.3750000), wk =   0.0246914
        k(   15) = (   0.0000000   0.2222222  -0.5000000), wk =   0.0123457
        k(   16) = (   0.0000000   0.3333333   0.0000000), wk =   0.0123457
        k(   17) = (   0.0000000   0.3333333   0.1250000), wk =   0.0246914
        k(   18) = (   0.0000000   0.3333333   0.2500000), wk =   0.0246914
        k(   19) = (   0.0000000   0.3333333   0.3750000), wk =   0.0246914
        k(   20) = (   0.0000000   0.3333333  -0.5000000), wk =   0.0123457
        k(   21) = (   0.0000000   0.4444444   0.0000000), wk =   0.0123457
        k(   22) = (   0.0000000   0.4444444   0.1250000), wk =   0.0246914
        k(   23) = (   0.0000000   0.4444444   0.2500000), wk =   0.0246914
        k(   24) = (   0.0000000   0.4444444   0.3750000), wk =   0.0246914
        k(   25) = (   0.0000000   0.4444444  -0.5000000), wk =   0.0123457
        k(   26) = (   0.1111111   0.1111111   0.0000000), wk =   0.0123457
        k(   27) = (   0.1111111   0.1111111   0.1250000), wk =   0.0246914
        k(   28) = (   0.1111111   0.1111111   0.2500000), wk =   0.0246914
        k(   29) = (   0.1111111   0.1111111   0.3750000), wk =   0.0246914
        k(   30) = (   0.1111111   0.1111111  -0.5000000), wk =   0.0123457
        k(   31) = (   0.1111111   0.2222222   0.0000000), wk =   0.0246914
        k(   32) = (   0.1111111   0.2222222   0.1250000), wk =   0.0493827
        k(   33) = (   0.1111111   0.2222222   0.2500000), wk =   0.0493827
        k(   34) = (   0.1111111   0.2222222   0.3750000), wk =   0.0493827
        k(   35) = (   0.1111111   0.2222222  -0.5000000), wk =   0.0246914
        k(   36) = (   0.1111111   0.3333333   0.0000000), wk =   0.0246914
        k(   37) = (   0.1111111   0.3333333   0.1250000), wk =   0.0493827
        k(   38) = (   0.1111111   0.3333333   0.2500000), wk =   0.0493827
        k(   39) = (   0.1111111   0.3333333   0.3750000), wk =   0.0493827
        k(   40) = (   0.1111111   0.3333333  -0.5000000), wk =   0.0246914
        k(   41) = (   0.1111111   0.4444444   0.0000000), wk =   0.0246914
        k(   42) = (   0.1111111   0.4444444   0.1250000), wk =   0.0493827
        k(   43) = (   0.1111111   0.4444444   0.2500000), wk =   0.0493827
        k(   44) = (   0.1111111   0.4444444   0.3750000), wk =   0.0493827
        k(   45) = (   0.1111111   0.4444444  -0.5000000), wk =   0.0246914
        k(   46) = (   0.2222222   0.2222222   0.0000000), wk =   0.0123457
        k(   47) = (   0.2222222   0.2222222   0.1250000), wk =   0.0246914
        k(   48) = (   0.2222222   0.2222222   0.2500000), wk =   0.0246914
        k(   49) = (   0.2222222   0.2222222   0.3750000), wk =   0.0246914
        k(   50) = (   0.2222222   0.2222222  -0.5000000), wk =   0.0123457
        k(   51) = (   0.2222222   0.3333333   0.0000000), wk =   0.0246914
        k(   52) = (   0.2222222   0.3333333   0.1250000), wk =   0.0493827
        k(   53) = (   0.2222222   0.3333333   0.2500000), wk =   0.0493827
        k(   54) = (   0.2222222   0.3333333   0.3750000), wk =   0.0493827
        k(   55) = (   0.2222222   0.3333333  -0.5000000), wk =   0.0246914
        k(   56) = (   0.2222222   0.4444444   0.0000000), wk =   0.0246914
        k(   57) = (   0.2222222   0.4444444   0.1250000), wk =   0.0493827
        k(   58) = (   0.2222222   0.4444444   0.2500000), wk =   0.0493827
        k(   59) = (   0.2222222   0.4444444   0.3750000), wk =   0.0493827
        k(   60) = (   0.2222222   0.4444444  -0.5000000), wk =   0.0246914
        k(   61) = (   0.3333333   0.3333333   0.0000000), wk =   0.0123457
        k(   62) = (   0.3333333   0.3333333   0.1250000), wk =   0.0246914
        k(   63) = (   0.3333333   0.3333333   0.2500000), wk =   0.0246914
        k(   64) = (   0.3333333   0.3333333   0.3750000), wk =   0.0246914
        k(   65) = (   0.3333333   0.3333333  -0.5000000), wk =   0.0123457
        k(   66) = (   0.3333333   0.4444444   0.0000000), wk =   0.0246914
        k(   67) = (   0.3333333   0.4444444   0.1250000), wk =   0.0493827
        k(   68) = (   0.3333333   0.4444444   0.2500000), wk =   0.0493827
        k(   69) = (   0.3333333   0.4444444   0.3750000), wk =   0.0493827
        k(   70) = (   0.3333333   0.4444444  -0.5000000), wk =   0.0246914
        k(   71) = (   0.4444444   0.4444444   0.0000000), wk =   0.0123457
        k(   72) = (   0.4444444   0.4444444   0.1250000), wk =   0.0246914
        k(   73) = (   0.4444444   0.4444444   0.2500000), wk =   0.0246914
        k(   74) = (   0.4444444   0.4444444   0.3750000), wk =   0.0246914
        k(   75) = (   0.4444444   0.4444444  -0.5000000), wk =   0.0123457

     Dense  grid:   157147 G-vectors     FFT dimensions: (  72,  72,  72)

     Dynamical RAM for                 wfc:       0.37 MB

     Dynamical RAM for     wfc (w. buffer):      28.44 MB

     Dynamical RAM for           str. fact:       0.36 MB

     Dynamical RAM for           local pot:       0.00 MB

     Dynamical RAM for          nlocal pot:       1.23 MB

     Dynamical RAM for                qrad:      15.01 MB

     Dynamical RAM for          rho,v,vnew:       0.83 MB

     Dynamical RAM for               rhoin:       0.28 MB

     Dynamical RAM for            rho*nmix:       1.92 MB

     Dynamical RAM for           G-vectors:       0.51 MB

     Dynamical RAM for          h,s,v(r/c):       0.05 MB

     Dynamical RAM for          <psi|beta>:       0.03 MB

     Dynamical RAM for                 psi:       1.50 MB

     Dynamical RAM for                hpsi:       1.50 MB

     Dynamical RAM for                spsi:       1.50 MB

     Dynamical RAM for      wfcinit/wfcrot:       1.17 MB

     Dynamical RAM for           addusdens:      42.57 MB

     Dynamical RAM for          addusforce:      43.86 MB

     Estimated static dynamical RAM per process >      49.85 MB

     Estimated max dynamical RAM per process >      93.71 MB

     Estimated total dynamical RAM >       1.83 GB

     Check: negative/imaginary core charge=   -0.000001    0.000000

     Initial potential from superposition of free atoms
     Check: negative starting charge=   -0.094348

     starting charge   40.98226, renormalised to   41.00000

     negative rho (up, down):  9.439E-02 0.000E+00
     Starting wfcs are   38 randomized atomic wfcs

     total cpu time spent up to now is        3.4 secs

     Self-consistent Calculation

     iteration #  1     ecut=    50.00 Ry     beta= 0.70
     Davidson diagonalization with overlap
     ethr =  1.00E-02,  avg # of iterations =  1.2

     negative rho (up, down):  9.087E-02 0.000E+00

     total cpu time spent up to now is        8.0 secs

     total energy              =    -277.29199457 Ry
     Harris-Foulkes estimate   =    -285.35362140 Ry
     estimated scf accuracy    <       9.54182415 Ry

     iteration #  2     ecut=    50.00 Ry     beta= 0.70
     Davidson diagonalization with overlap
     ethr =  1.00E-02,  avg # of iterations =  6.1

     negative rho (up, down):  9.150E-02 0.000E+00

     total cpu time spent up to now is       18.8 secs

     total energy              =    -279.76291258 Ry
     Harris-Foulkes estimate   =    -310.10319527 Ry
     estimated scf accuracy    <     112.12889190 Ry

     iteration #  3     ecut=    50.00 Ry     beta= 0.70
     Davidson diagonalization with overlap
     ethr =  1.00E-02,  avg # of iterations =  5.4

     negative rho (up, down):  8.569E-02 0.000E+00

     total cpu time spent up to now is       28.0 secs

     total energy              =    -281.32099150 Ry
     Harris-Foulkes estimate   =    -284.42329112 Ry
     estimated scf accuracy    <      39.83862477 Ry

     iteration #  4     ecut=    50.00 Ry     beta= 0.70
     Davidson diagonalization with overlap
     ethr =  1.00E-02,  avg # of iterations =  4.5

     negative rho (up, down):  8.441E-02 0.000E+00

     total cpu time spent up to now is       35.2 secs

     total energy              =    -282.46088765 Ry
     Harris-Foulkes estimate   =    -283.33585617 Ry
     estimated scf accuracy    <      15.07506929 Ry

     iteration #  5     ecut=    50.00 Ry     beta= 0.70
     Davidson diagonalization with overlap
     ethr =  1.00E-02,  avg # of iterations =  3.1

     negative rho (up, down):  8.431E-02 0.000E+00

     total cpu time spent up to now is       41.1 secs

     total energy              =    -282.88435063 Ry
     Harris-Foulkes estimate   =    -282.90029028 Ry
     estimated scf accuracy    <       3.37867836 Ry

     iteration #  6     ecut=    50.00 Ry     beta= 0.70
     Davidson diagonalization with overlap
     ethr =  8.24E-03,  avg # of iterations =  1.9

     negative rho (up, down):  8.430E-02 0.000E+00

     total cpu time spent up to now is       46.3 secs

     total energy              =    -282.99732920 Ry
     Harris-Foulkes estimate   =    -282.99641116 Ry
     estimated scf accuracy    <       2.38694750 Ry

     iteration #  7     ecut=    50.00 Ry     beta= 0.70
     Davidson diagonalization with overlap
     ethr =  5.82E-03,  avg # of iterations =  2.4

     negative rho (up, down):  8.397E-02 0.000E+00

     total cpu time spent up to now is       51.9 secs

     total energy              =    -283.17469798 Ry
     Harris-Foulkes estimate   =    -283.17994641 Ry
     estimated scf accuracy    <       0.94331067 Ry

     iteration #  8     ecut=    50.00 Ry     beta= 0.70
     Davidson diagonalization with overlap
     ethr =  2.30E-03,  avg # of iterations =  4.3

     negative rho (up, down):  8.392E-02 0.000E+00

     total cpu time spent up to now is       58.8 secs

     total energy              =    -283.62028114 Ry
     Harris-Foulkes estimate   =    -283.85690340 Ry
     estimated scf accuracy    <       2.92596804 Ry

     iteration #  9     ecut=    50.00 Ry     beta= 0.70
     Davidson diagonalization with overlap
     ethr =  2.30E-03,  avg # of iterations =  1.3

     negative rho (up, down):  8.391E-02 0.000E+00

     total cpu time spent up to now is       63.8 secs

     total energy              =    -283.64472492 Ry
     Harris-Foulkes estimate   =    -283.66612689 Ry
     estimated scf accuracy    <       1.55200846 Ry

     iteration # 10     ecut=    50.00 Ry     beta= 0.70
     Davidson diagonalization with overlap
     ethr =  2.30E-03,  avg # of iterations =  1.0

     negative rho (up, down):  8.295E-02 0.000E+00

     total cpu time spent up to now is       68.6 secs

     total energy              =    -283.57578903 Ry
     Harris-Foulkes estimate   =    -283.64662591 Ry
     estimated scf accuracy    <       1.41400087 Ry

     iteration # 11     ecut=    50.00 Ry     beta= 0.70
     Davidson diagonalization with overlap
     ethr =  2.30E-03,  avg # of iterations =  1.0

     negative rho (up, down):  8.350E-02 0.000E+00

     total cpu time spent up to now is       73.5 secs

     total energy              =    -283.55493805 Ry
     Harris-Foulkes estimate   =    -283.58111558 Ry
     estimated scf accuracy    <       1.04918189 Ry

     iteration # 12     ecut=    50.00 Ry     beta= 0.70
     Davidson diagonalization with overlap
     ethr =  2.30E-03,  avg # of iterations =  1.0

     negative rho (up, down):  8.775E-02 0.000E+00

     total cpu time spent up to now is       78.3 secs

     total energy              =    -283.38629466 Ry
     Harris-Foulkes estimate   =    -283.55815384 Ry
     estimated scf accuracy    <       0.96105837 Ry

     iteration # 13     ecut=    50.00 Ry     beta= 0.70
     Davidson diagonalization with overlap
     ethr =  2.30E-03,  avg # of iterations =  4.1

     negative rho (up, down):  8.698E-02 0.000E+00

     total cpu time spent up to now is       85.2 secs

     total energy              =    -283.25144970 Ry
     Harris-Foulkes estimate   =    -283.57348677 Ry
     estimated scf accuracy    <       1.91430605 Ry

     iteration # 14     ecut=    50.00 Ry     beta= 0.70
     Davidson diagonalization with overlap
     ethr =  2.30E-03,  avg # of iterations =  2.3

     negative rho (up, down):  8.906E-02 0.000E+00

     total cpu time spent up to now is       90.8 secs

     total energy              =    -283.59541572 Ry
     Harris-Foulkes estimate   =    -283.56053278 Ry
     estimated scf accuracy    <       1.01694014 Ry

     iteration # 15     ecut=    50.00 Ry     beta= 0.70
     Davidson diagonalization with overlap
     ethr =  2.30E-03,  avg # of iterations =  1.6

     negative rho (up, down):  9.040E-02 0.000E+00

     total cpu time spent up to now is       95.9 secs

     total energy              =    -283.63615546 Ry
     Harris-Foulkes estimate   =    -283.63551509 Ry
     estimated scf accuracy    <       3.22388436 Ry

     iteration # 16     ecut=    50.00 Ry     beta= 0.70
     Davidson diagonalization with overlap
     ethr =  2.30E-03,  avg # of iterations =  1.1

     negative rho (up, down):  8.343E-02 0.000E+00

     total cpu time spent up to now is      100.9 secs

     total energy              =    -283.48169433 Ry
     Harris-Foulkes estimate   =    -283.64221474 Ry
     estimated scf accuracy    <       3.64557192 Ry

     iteration # 17     ecut=    50.00 Ry     beta= 0.70
     Davidson diagonalization with overlap
     ethr =  2.30E-03,  avg # of iterations =  2.0

     negative rho (up, down):  8.538E-02 0.000E+00

     total cpu time spent up to now is      106.2 secs

     total energy              =    -283.44206798 Ry
     Harris-Foulkes estimate   =    -283.59310348 Ry
     estimated scf accuracy    <       1.50664762 Ry

     iteration # 18     ecut=    50.00 Ry     beta= 0.70
     Davidson diagonalization with overlap
     ethr =  2.30E-03,  avg # of iterations =  1.3

     negative rho (up, down):  8.590E-02 0.000E+00

     total cpu time spent up to now is      111.2 secs

     total energy              =    -283.52210496 Ry
     Harris-Foulkes estimate   =    -283.57829300 Ry
     estimated scf accuracy    <       3.42846467 Ry

     iteration # 19     ecut=    50.00 Ry     beta= 0.70
     Davidson diagonalization with overlap
     ethr =  2.30E-03,  avg # of iterations =  1.0

     negative rho (up, down):  8.612E-02 0.000E+00

     total cpu time spent up to now is      116.0 secs

     total energy              =    -283.52597465 Ry
     Harris-Foulkes estimate   =    -283.53721147 Ry
     estimated scf accuracy    <       1.76470157 Ry

     iteration # 20     ecut=    50.00 Ry     beta= 0.70
     Davidson diagonalization with overlap
     ethr =  2.30E-03,  avg # of iterations =  1.0

     negative rho (up, down):  8.687E-02 0.000E+00

     total cpu time spent up to now is      120.8 secs

     total energy              =    -283.51010889 Ry
     Harris-Foulkes estimate   =    -283.52823141 Ry
     estimated scf accuracy    <       1.82624731 Ry

     iteration # 21     ecut=    50.00 Ry     beta= 0.70
     Davidson diagonalization with overlap
     ethr =  2.30E-03,  avg # of iterations =  1.0

     negative rho (up, down):  8.867E-02 0.000E+00

     total cpu time spent up to now is      125.7 secs

     total energy              =    -283.46087821 Ry
     Harris-Foulkes estimate   =    -283.51209293 Ry
     estimated scf accuracy    <       1.54274276 Ry

     iteration # 22     ecut=    50.00 Ry     beta= 0.70
     Davidson diagonalization with overlap
     ethr =  2.30E-03,  avg # of iterations =  1.0

     negative rho (up, down):  8.950E-02 0.000E+00

     total cpu time spent up to now is      130.6 secs

     total energy              =    -283.47610744 Ry
     Harris-Foulkes estimate   =    -283.48693643 Ry
     estimated scf accuracy    <       0.35833813 Ry

     iteration # 23     ecut=    50.00 Ry     beta= 0.70
     Davidson diagonalization with overlap
     ethr =  8.74E-04,  avg # of iterations =  1.0

     negative rho (up, down):  8.892E-02 0.000E+00

     total cpu time spent up to now is      135.4 secs

     total energy              =    -283.49047769 Ry
     Harris-Foulkes estimate   =    -283.48942001 Ry
     estimated scf accuracy    <       0.50743502 Ry

     iteration # 24     ecut=    50.00 Ry     beta= 0.70
     Davidson diagonalization with overlap
     ethr =  8.74E-04,  avg # of iterations =  1.0

     negative rho (up, down):  8.951E-02 0.000E+00

     total cpu time spent up to now is      140.3 secs

     total energy              =    -283.46826977 Ry
     Harris-Foulkes estimate   =    -283.49386004 Ry
     estimated scf accuracy    <       0.63930724 Ry

     iteration # 25     ecut=    50.00 Ry     beta= 0.70
     Davidson diagonalization with overlap
     ethr =  8.74E-04,  avg # of iterations =  1.1

     negative rho (up, down):  8.831E-02 0.000E+00

     total cpu time spent up to now is      145.1 secs

     total energy              =    -283.45702776 Ry
     Harris-Foulkes estimate   =    -283.50390895 Ry
     estimated scf accuracy    <       2.42297499 Ry

     iteration # 26     ecut=    50.00 Ry     beta= 0.70
     Davidson diagonalization with overlap
     ethr =  8.74E-04,  avg # of iterations =  1.0

     negative rho (up, down):  8.803E-02 0.000E+00

     total cpu time spent up to now is      150.0 secs

     total energy              =    -283.48385174 Ry
     Harris-Foulkes estimate   =    -283.48563752 Ry
     estimated scf accuracy    <       0.09545829 Ry

     iteration # 27     ecut=    50.00 Ry     beta= 0.70
     Davidson diagonalization with overlap
     ethr =  2.33E-04,  avg # of iterations =  1.5

     negative rho (up, down):  8.831E-02 0.000E+00

     total cpu time spent up to now is      155.1 secs

     total energy              =    -283.49113276 Ry
     Harris-Foulkes estimate   =    -283.49710776 Ry
     estimated scf accuracy    <       0.66702916 Ry

     iteration # 28     ecut=    50.00 Ry     beta= 0.70
     Davidson diagonalization with overlap
     ethr =  2.33E-04,  avg # of iterations =  1.0

     negative rho (up, down):  8.883E-02 0.000E+00

     total cpu time spent up to now is      160.0 secs

     total energy              =    -283.47894347 Ry
     Harris-Foulkes estimate   =    -283.49222691 Ry
     estimated scf accuracy    <       0.44306506 Ry

     iteration # 29     ecut=    50.00 Ry     beta= 0.70
     Davidson diagonalization with overlap
     ethr =  2.33E-04,  avg # of iterations =  1.2

     negative rho (up, down):  8.929E-02 0.000E+00

     total cpu time spent up to now is      164.9 secs

     total energy              =    -283.48430392 Ry
     Harris-Foulkes estimate   =    -283.48619229 Ry
     estimated scf accuracy    <       0.06075056 Ry

     iteration # 30     ecut=    50.00 Ry     beta= 0.70
     Davidson diagonalization with overlap
     ethr =  1.48E-04,  avg # of iterations =  1.2

     negative rho (up, down):  8.937E-02 0.000E+00

     total cpu time spent up to now is      169.8 secs

     total energy              =    -283.48624584 Ry
     Harris-Foulkes estimate   =    -283.48613551 Ry
     estimated scf accuracy    <       0.06922243 Ry

     iteration # 31     ecut=    50.00 Ry     beta= 0.70
     Davidson diagonalization with overlap
     ethr =  1.48E-04,  avg # of iterations =  1.0

     negative rho (up, down):  8.946E-02 0.000E+00

     total cpu time spent up to now is      174.7 secs

     total energy              =    -283.48665757 Ry
     Harris-Foulkes estimate   =    -283.48655519 Ry
     estimated scf accuracy    <       0.07115605 Ry

     iteration # 32     ecut=    50.00 Ry     beta= 0.70
     Davidson diagonalization with overlap
     ethr =  1.48E-04,  avg # of iterations =  1.0

     negative rho (up, down):  8.949E-02 0.000E+00

     total cpu time spent up to now is      179.5 secs

     total energy              =    -283.48683431 Ry
     Harris-Foulkes estimate   =    -283.48683466 Ry
     estimated scf accuracy    <       0.07830847 Ry

     iteration # 33     ecut=    50.00 Ry     beta= 0.70
     Davidson diagonalization with overlap
     ethr =  1.48E-04,  avg # of iterations =  1.6

     negative rho (up, down):  8.952E-02 0.000E+00

     total cpu time spent up to now is      184.6 secs

     total energy              =    -283.48705679 Ry
     Harris-Foulkes estimate   =    -283.48722231 Ry
     estimated scf accuracy    <       0.07645509 Ry

     iteration # 34     ecut=    50.00 Ry     beta= 0.70
     Davidson diagonalization with overlap
     ethr =  1.48E-04,  avg # of iterations =  1.0

     negative rho (up, down):  9.020E-02 0.000E+00

     total cpu time spent up to now is      189.5 secs

     total energy              =    -283.48350966 Ry
     Harris-Foulkes estimate   =    -283.48719561 Ry
     estimated scf accuracy    <       0.07270762 Ry

     iteration # 35     ecut=    50.00 Ry     beta= 0.70
     Davidson diagonalization with overlap
     ethr =  1.48E-04,  avg # of iterations =  1.2

     negative rho (up, down):  9.000E-02 0.000E+00

     total cpu time spent up to now is      194.4 secs

     total energy              =    -283.48519773 Ry
     Harris-Foulkes estimate   =    -283.48649956 Ry
     estimated scf accuracy    <       0.06613788 Ry

     iteration # 36     ecut=    50.00 Ry     beta= 0.70
     Davidson diagonalization with overlap
     ethr =  1.48E-04,  avg # of iterations =  1.0

     negative rho (up, down):  8.999E-02 0.000E+00

     total cpu time spent up to now is      199.3 secs

     total energy              =    -283.48571854 Ry
     Harris-Foulkes estimate   =    -283.48680047 Ry
     estimated scf accuracy    <       0.00740747 Ry

     iteration # 37     ecut=    50.00 Ry     beta= 0.70
     Davidson diagonalization with overlap
     ethr =  1.81E-05,  avg # of iterations =  5.7

     negative rho (up, down):  9.019E-02 0.000E+00

     total cpu time spent up to now is      207.3 secs

     total energy              =    -283.48849926 Ry
     Harris-Foulkes estimate   =    -283.48837259 Ry
     estimated scf accuracy    <       0.01583731 Ry

     iteration # 38     ecut=    50.00 Ry     beta= 0.70
     Davidson diagonalization with overlap
     ethr =  1.81E-05,  avg # of iterations =  1.0

     negative rho (up, down):  9.019E-02 0.000E+00

     total cpu time spent up to now is      212.1 secs

     total energy              =    -283.48857501 Ry
     Harris-Foulkes estimate   =    -283.48859476 Ry
     estimated scf accuracy    <       0.02234907 Ry

     iteration # 39     ecut=    50.00 Ry     beta= 0.70
     Davidson diagonalization with overlap
     ethr =  1.81E-05,  avg # of iterations =  1.1

     negative rho (up, down):  8.972E-02 0.000E+00

     total cpu time spent up to now is      217.0 secs

     total energy              =    -283.48811962 Ry
     Harris-Foulkes estimate   =    -283.48871480 Ry
     estimated scf accuracy    <       0.02545469 Ry

     iteration # 40     ecut=    50.00 Ry     beta= 0.70
     Davidson diagonalization with overlap
     ethr =  1.81E-05,  avg # of iterations =  1.1

     negative rho (up, down):  9.009E-02 0.000E+00

     total cpu time spent up to now is      222.0 secs

     total energy              =    -283.48775579 Ry
     Harris-Foulkes estimate   =    -283.48859491 Ry
     estimated scf accuracy    <       0.04166761 Ry

     iteration # 41     ecut=    50.00 Ry     beta= 0.70
     Davidson diagonalization with overlap
     ethr =  1.81E-05,  avg # of iterations =  1.0

     negative rho (up, down):  9.033E-02 0.000E+00

     total cpu time spent up to now is      226.9 secs

     total energy              =    -283.48809650 Ry
     Harris-Foulkes estimate   =    -283.48818317 Ry
     estimated scf accuracy    <       0.00712754 Ry

     iteration # 42     ecut=    50.00 Ry     beta= 0.70
     Davidson diagonalization with overlap
     ethr =  1.74E-05,  avg # of iterations =  1.3

     negative rho (up, down):  9.028E-02 0.000E+00

     total cpu time spent up to now is      231.9 secs

     total energy              =    -283.48822887 Ry
     Harris-Foulkes estimate   =    -283.48835874 Ry
     estimated scf accuracy    <       0.00384720 Ry

     iteration # 43     ecut=    50.00 Ry     beta= 0.70
     Davidson diagonalization with overlap
     ethr =  9.38E-06,  avg # of iterations =  1.1

     negative rho (up, down):  9.007E-02 0.000E+00

     total cpu time spent up to now is      236.8 secs

     total energy              =    -283.48812091 Ry
     Harris-Foulkes estimate   =    -283.48845840 Ry
     estimated scf accuracy    <       0.00513909 Ry

     iteration # 44     ecut=    50.00 Ry     beta= 0.70
     Davidson diagonalization with overlap
     ethr =  9.38E-06,  avg # of iterations =  1.1

     negative rho (up, down):  8.931E-02 0.000E+00

     total cpu time spent up to now is      241.7 secs

     total energy              =    -283.48751283 Ry
     Harris-Foulkes estimate   =    -283.48818249 Ry
     estimated scf accuracy    <       0.00384275 Ry

     iteration # 45     ecut=    50.00 Ry     beta= 0.70
     Davidson diagonalization with overlap
     ethr =  9.37E-06,  avg # of iterations =  5.8

     negative rho (up, down):  8.942E-02 0.000E+00

     total cpu time spent up to now is      250.0 secs

     total energy              =    -283.48853465 Ry
     Harris-Foulkes estimate   =    -283.48876155 Ry
     estimated scf accuracy    <       0.00364851 Ry

     iteration # 46     ecut=    50.00 Ry     beta= 0.70
     Davidson diagonalization with overlap
     c_bands:  1 eigenvalues not converged
     ethr =  8.90E-06,  avg # of iterations =  1.3

     negative rho (up, down):  8.945E-02 0.000E+00

     total cpu time spent up to now is      254.9 secs

     total energy              =    -283.48855545 Ry
     Harris-Foulkes estimate   =    -283.48855674 Ry
     estimated scf accuracy    <       0.00322074 Ry

     iteration # 47     ecut=    50.00 Ry     beta= 0.70
     Davidson diagonalization with overlap
     ethr =  7.86E-06,  avg # of iterations =  1.0

     negative rho (up, down):  8.939E-02 0.000E+00

     total cpu time spent up to now is      259.8 secs

     total energy              =    -283.48960156 Ry
     Harris-Foulkes estimate   =    -283.48856700 Ry
     estimated scf accuracy    <       0.00487925 Ry

     iteration # 48     ecut=    50.00 Ry     beta= 0.70
     Davidson diagonalization with overlap
     c_bands:  1 eigenvalues not converged
     c_bands:  1 eigenvalues not converged
     ethr =  7.86E-06,  avg # of iterations =  4.5

     negative rho (up, down):  8.960E-02 0.000E+00

     total cpu time spent up to now is      266.7 secs

     total energy              =    -283.48753113 Ry
     Harris-Foulkes estimate   =    -283.48996781 Ry
     estimated scf accuracy    <       0.01552592 Ry

     iteration # 49     ecut=    50.00 Ry     beta= 0.70
     Davidson diagonalization with overlap
     c_bands:  1 eigenvalues not converged
     ethr =  7.86E-06,  avg # of iterations =  5.1

     negative rho (up, down):  8.960E-02 0.000E+00

     total cpu time spent up to now is      274.2 secs

     total energy              =    -283.48835210 Ry
     Harris-Foulkes estimate   =    -283.48837544 Ry
     estimated scf accuracy    <       0.00127282 Ry

     iteration # 50     ecut=    50.00 Ry     beta= 0.70
     Davidson diagonalization with overlap
     ethr =  3.10E-06,  avg # of iterations =  2.0

     negative rho (up, down):  8.962E-02 0.000E+00

     total cpu time spent up to now is      279.5 secs

     total energy              =    -283.48845544 Ry
     Harris-Foulkes estimate   =    -283.48853513 Ry
     estimated scf accuracy    <       0.00134460 Ry

     iteration # 51     ecut=    50.00 Ry     beta= 0.70
     Davidson diagonalization with overlap
     ethr =  3.10E-06,  avg # of iterations =  2.8

     negative rho (up, down):  8.963E-02 0.000E+00

     total cpu time spent up to now is      285.3 secs

     total energy              =    -283.48853867 Ry
     Harris-Foulkes estimate   =    -283.48854181 Ry
     estimated scf accuracy    <       0.00001250 Ry

     iteration # 52     ecut=    50.00 Ry     beta= 0.70
     Davidson diagonalization with overlap
     c_bands:  1 eigenvalues not converged
     ethr =  3.05E-08,  avg # of iterations =  7.8

     negative rho (up, down):  8.959E-02 0.000E+00

     total cpu time spent up to now is      297.0 secs

     total energy              =    -283.48860279 Ry
     Harris-Foulkes estimate   =    -283.48863406 Ry
     estimated scf accuracy    <       0.00044882 Ry

     iteration # 53     ecut=    50.00 Ry     beta= 0.70
     Davidson diagonalization with overlap
     ethr =  3.05E-08,  avg # of iterations =  5.1

     negative rho (up, down):  8.954E-02 0.000E+00

     total cpu time spent up to now is      305.5 secs

     total energy              =    -283.48860271 Ry
     Harris-Foulkes estimate   =    -283.48861060 Ry
     estimated scf accuracy    <       0.00008462 Ry

     iteration # 54     ecut=    50.00 Ry     beta= 0.70
     Davidson diagonalization with overlap
     ethr =  3.05E-08,  avg # of iterations =  4.5

     negative rho (up, down):  8.952E-02 0.000E+00

     total cpu time spent up to now is      312.6 secs

     total energy              =    -283.48860664 Ry
     Harris-Foulkes estimate   =    -283.48860474 Ry
     estimated scf accuracy    <       0.00001570 Ry

     iteration # 55     ecut=    50.00 Ry     beta= 0.70
     Davidson diagonalization with overlap
     ethr =  3.05E-08,  avg # of iterations =  1.5

     negative rho (up, down):  8.950E-02 0.000E+00

     total cpu time spent up to now is      317.6 secs

     total energy              =    -283.48860502 Ry
     Harris-Foulkes estimate   =    -283.48860696 Ry
     estimated scf accuracy    <       0.00002287 Ry

     iteration # 56     ecut=    50.00 Ry     beta= 0.70
     Davidson diagonalization with overlap
     ethr =  3.05E-08,  avg # of iterations =  1.0

     negative rho (up, down):  8.949E-02 0.000E+00

     total cpu time spent up to now is      322.5 secs

     total energy              =    -283.48860430 Ry
     Harris-Foulkes estimate   =    -283.48860521 Ry
     estimated scf accuracy    <       0.00001966 Ry

     iteration # 57     ecut=    50.00 Ry     beta= 0.70
     Davidson diagonalization with overlap
     ethr =  3.05E-08,  avg # of iterations =  1.1

     negative rho (up, down):  8.949E-02 0.000E+00

     total cpu time spent up to now is      327.4 secs

     total energy              =    -283.48860415 Ry
     Harris-Foulkes estimate   =    -283.48860445 Ry
     estimated scf accuracy    <       0.00001488 Ry

     iteration # 58     ecut=    50.00 Ry     beta= 0.70
     Davidson diagonalization with overlap
     ethr =  3.05E-08,  avg # of iterations =  1.0

     negative rho (up, down):  8.948E-02 0.000E+00

     total cpu time spent up to now is      332.2 secs

     total energy              =    -283.48860309 Ry
     Harris-Foulkes estimate   =    -283.48860423 Ry
     estimated scf accuracy    <       0.00001288 Ry

     iteration # 59     ecut=    50.00 Ry     beta= 0.70
     Davidson diagonalization with overlap
     ethr =  3.05E-08,  avg # of iterations =  1.5

     negative rho (up, down):  8.946E-02 0.000E+00

     total cpu time spent up to now is      337.3 secs

     total energy              =    -283.48860217 Ry
     Harris-Foulkes estimate   =    -283.48860337 Ry
     estimated scf accuracy    <       0.00000745 Ry

     iteration # 60     ecut=    50.00 Ry     beta= 0.70
     Davidson diagonalization with overlap
     ethr =  1.82E-08,  avg # of iterations =  4.8

     negative rho (up, down):  8.946E-02 0.000E+00

     total cpu time spent up to now is      345.1 secs

     total energy              =    -283.48860473 Ry
     Harris-Foulkes estimate   =    -283.48860505 Ry
     estimated scf accuracy    <       0.00000876 Ry

     iteration # 61     ecut=    50.00 Ry     beta= 0.70
     Davidson diagonalization with overlap
     ethr =  1.82E-08,  avg # of iterations =  1.0

     negative rho (up, down):  8.946E-02 0.000E+00

     total cpu time spent up to now is      349.9 secs

     total energy              =    -283.48860446 Ry
     Harris-Foulkes estimate   =    -283.48860488 Ry
     estimated scf accuracy    <       0.00000594 Ry

     iteration # 62     ecut=    50.00 Ry     beta= 0.70
     Davidson diagonalization with overlap
     ethr =  1.45E-08,  avg # of iterations =  1.0

     negative rho (up, down):  8.947E-02 0.000E+00

     total cpu time spent up to now is      354.8 secs

     total energy              =    -283.48860426 Ry
     Harris-Foulkes estimate   =    -283.48860452 Ry
     estimated scf accuracy    <       0.00000339 Ry

     iteration # 63     ecut=    50.00 Ry     beta= 0.70
     Davidson diagonalization with overlap
     ethr =  8.28E-09,  avg # of iterations =  1.5

     negative rho (up, down):  8.947E-02 0.000E+00

     total cpu time spent up to now is      359.9 secs

     total energy              =    -283.48860433 Ry
     Harris-Foulkes estimate   =    -283.48860432 Ry
     estimated scf accuracy    <       0.00000250 Ry

     iteration # 64     ecut=    50.00 Ry     beta= 0.70
     Davidson diagonalization with overlap
     ethr =  6.10E-09,  avg # of iterations =  1.0

     negative rho (up, down):  8.947E-02 0.000E+00

     total cpu time spent up to now is      364.7 secs

     total energy              =    -283.48860422 Ry
     Harris-Foulkes estimate   =    -283.48860435 Ry
     estimated scf accuracy    <       0.00000242 Ry

     iteration # 65     ecut=    50.00 Ry     beta= 0.70
     Davidson diagonalization with overlap
     ethr =  5.91E-09,  avg # of iterations =  2.1

     negative rho (up, down):  8.948E-02 0.000E+00

     total cpu time spent up to now is      370.1 secs

     total energy              =    -283.48860417 Ry
     Harris-Foulkes estimate   =    -283.48860430 Ry
     estimated scf accuracy    <       0.00000105 Ry

     iteration # 66     ecut=    50.00 Ry     beta= 0.70
     Davidson diagonalization with overlap
     ethr =  2.56E-09,  avg # of iterations =  4.9

     negative rho (up, down):  8.947E-02 0.000E+00

     total cpu time spent up to now is      377.5 secs

     total energy              =    -283.48860444 Ry
     Harris-Foulkes estimate   =    -283.48860445 Ry
     estimated scf accuracy    <       0.00000007 Ry

     iteration # 67     ecut=    50.00 Ry     beta= 0.70
     Davidson diagonalization with overlap
     ethr =  1.68E-10,  avg # of iterations =  5.6

     negative rho (up, down):  8.947E-02 0.000E+00

     total cpu time spent up to now is      386.1 secs

     total energy              =    -283.48860449 Ry
     Harris-Foulkes estimate   =    -283.48860449 Ry
     estimated scf accuracy    <       0.00000005 Ry

     iteration # 68     ecut=    50.00 Ry     beta= 0.70
     Davidson diagonalization with overlap
     ethr =  1.27E-10,  avg # of iterations =  5.4

     negative rho (up, down):  8.946E-02 0.000E+00

     total cpu time spent up to now is      394.8 secs

     total energy              =    -283.48860466 Ry
     Harris-Foulkes estimate   =    -283.48860453 Ry
     estimated scf accuracy    <       0.00000054 Ry

     iteration # 69     ecut=    50.00 Ry     beta= 0.70
     Davidson diagonalization with overlap
     ethr =  1.27E-10,  avg # of iterations =  6.0

     negative rho (up, down):  8.947E-02 0.000E+00

     total cpu time spent up to now is      404.6 secs

     total energy              =    -283.48860451 Ry
     Harris-Foulkes estimate   =    -283.48860472 Ry
     estimated scf accuracy    <       0.00000234 Ry

     iteration # 70     ecut=    50.00 Ry     beta= 0.70
     Davidson diagonalization with overlap
     ethr =  1.27E-10,  avg # of iterations =  5.6

     negative rho (up, down):  8.947E-02 0.000E+00

     total cpu time spent up to now is      413.8 secs

     total energy              =    -283.48860449 Ry
     Harris-Foulkes estimate   =    -283.48860455 Ry
     estimated scf accuracy    <       0.00000061 Ry

     iteration # 71     ecut=    50.00 Ry     beta= 0.70
     Davidson diagonalization with overlap
     ethr =  1.27E-10,  avg # of iterations =  4.7

     negative rho (up, down):  8.947E-02 0.000E+00

     total cpu time spent up to now is      421.3 secs

     total energy              =    -283.48860449 Ry
     Harris-Foulkes estimate   =    -283.48860450 Ry
     estimated scf accuracy    <       0.00000019 Ry

     iteration # 72     ecut=    50.00 Ry     beta= 0.70
     Davidson diagonalization with overlap
     ethr =  1.27E-10,  avg # of iterations =  2.6

     negative rho (up, down):  8.947E-02 0.000E+00

     total cpu time spent up to now is      427.3 secs

     total energy              =    -283.48860448 Ry
     Harris-Foulkes estimate   =    -283.48860449 Ry
     estimated scf accuracy    <       0.00000011 Ry

     iteration # 73     ecut=    50.00 Ry     beta= 0.70
     Davidson diagonalization with overlap
     ethr =  1.27E-10,  avg # of iterations =  2.4

     negative rho (up, down):  8.947E-02 0.000E+00

     total cpu time spent up to now is      432.9 secs

     total energy              =    -283.48860447 Ry
     Harris-Foulkes estimate   =    -283.48860448 Ry
     estimated scf accuracy    <       0.00000007 Ry

     iteration # 74     ecut=    50.00 Ry     beta= 0.70
     Davidson diagonalization with overlap
     ethr =  1.27E-10,  avg # of iterations =  5.1

     negative rho (up, down):  8.947E-02 0.000E+00

     total cpu time spent up to now is      441.0 secs

     total energy              =    -283.48860449 Ry
     Harris-Foulkes estimate   =    -283.48860449 Ry
     estimated scf accuracy    <       0.00000003 Ry

     iteration # 75     ecut=    50.00 Ry     beta= 0.70
     Davidson diagonalization with overlap
     ethr =  7.75E-11,  avg # of iterations =  1.1

     negative rho (up, down):  8.947E-02 0.000E+00

     total cpu time spent up to now is      445.9 secs

     total energy              =    -283.48860449 Ry
     Harris-Foulkes estimate   =    -283.48860449 Ry
     estimated scf accuracy    <       0.00000002 Ry

     iteration # 76     ecut=    50.00 Ry     beta= 0.70
     Davidson diagonalization with overlap
     ethr =  5.33E-11,  avg # of iterations =  3.7

     negative rho (up, down):  8.947E-02 0.000E+00

     total cpu time spent up to now is      452.1 secs

     End of self-consistent calculation

          k = 0.0000 0.0000 0.0000 ( 19637 PWs)   bands (ev):

   -57.7435 -33.7884 -33.7723 -33.7723 -33.6691 -18.6546 -18.6546 -18.6528
   -16.2622 -16.2229 -16.2213  -1.9923  -1.9096  -1.9096  -1.7216  -1.7216
    -1.6902  -1.6550  -1.6526  -1.6526  -1.6056  -1.5652  -1.5652  -1.5359
    -1.4760

     occupation numbers 
     1.0000   1.0000   1.0000   1.0000   1.0000   1.0000   1.0000   1.0000
     1.0000   1.0000   1.0000   1.0000   1.0000   1.0000   1.0000   1.0000
     1.0000   1.0000   1.0000   1.0000   1.0000   1.0498   1.0498   0.2510
     0.0000

          k = 0.0000 0.0000 0.1244 ( 19633 PWs)   bands (ev):

   -57.7435 -33.7884 -33.7723 -33.7723 -33.6691 -18.6546 -18.6546 -18.6528
   -16.2622 -16.2229 -16.2213  -2.0448  -1.9093  -1.9093  -1.7349  -1.7349
    -1.7261  -1.6594  -1.6558  -1.6558  -1.6053  -1.5507  -1.5507  -1.4946
    -1.4758

     occupation numbers 
     1.0000   1.0000   1.0000   1.0000   1.0000   1.0000   1.0000   1.0000
     1.0000   1.0000   1.0000   1.0000   1.0000   1.0000   1.0000   1.0000
     1.0000   1.0000   1.0000   1.0000   1.0000   0.9655   0.9655   0.0000
     0.0000

          k = 0.0000 0.0000 0.2489 ( 19670 PWs)   bands (ev):

   -57.7435 -33.7884 -33.7723 -33.7723 -33.6691 -18.6546 -18.6546 -18.6528
   -16.2621 -16.2229 -16.2213  -2.1438  -1.9083  -1.9083  -1.7686  -1.7614
    -1.7614  -1.6696  -1.6624  -1.6624  -1.6044  -1.5224  -1.5224  -1.4753
    -1.4502

     occupation numbers 
     1.0000   1.0000   1.0000   1.0000   1.0000   1.0000   1.0000   1.0000
     1.0000   1.0000   1.0000   1.0000   1.0000   1.0000   1.0000   1.0000
     1.0000   1.0000   1.0000   1.0000   1.0000   0.0119   0.0119   0.0000
     0.0000

          k = 0.0000 0.0000 0.3733 ( 19702 PWs)   bands (ev):

   -57.7435 -33.7884 -33.7723 -33.7723 -33.6691 -18.6546 -18.6546 -18.6528
   -16.2621 -16.2229 -16.2213  -2.2210  -1.9070  -1.9070  -1.7957  -1.7836
    -1.7836  -1.6794  -1.6684  -1.6684  -1.6036  -1.4992  -1.4992  -1.4749
    -1.4197

     occupation numbers 
     1.0000   1.0000   1.0000   1.0000   1.0000   1.0000   1.0000   1.0000
     1.0000   1.0000   1.0000   1.0000   1.0000   1.0000   1.0000   1.0000
     1.0000   1.0000   1.0000   1.0000   1.0000   0.0000   0.0000   0.0000
     0.0000

          k = 0.0000 0.0000-0.4977 ( 19666 PWs)   bands (ev):

   -57.7435 -33.7884 -33.7723 -33.7723 -33.6691 -18.6546 -18.6546 -18.6528
   -16.2620 -16.2229 -16.2213  -2.2490  -1.9063  -1.9063  -1.8049  -1.7920
    -1.7920  -1.6833  -1.6707  -1.6707  -1.6032  -1.4906  -1.4906  -1.4747
    -1.4090

     occupation numbers 
     1.0000   1.0000   1.0000   1.0000   1.0000   1.0000   1.0000   1.0000
     1.0000   1.0000   1.0000   1.0000   1.0000   1.0000   1.0000   1.0000
     1.0000   1.0000   1.0000   1.0000   1.0000   0.0000   0.0000   0.0000
     0.0000

          k = 0.0000 0.1111 0.0000 ( 19647 PWs)   bands (ev):

   -57.7435 -33.7884 -33.7723 -33.7723 -33.6691 -18.6546 -18.6546 -18.6528
   -16.2622 -16.2228 -16.2213  -1.9960  -1.9557  -1.9089  -1.7453  -1.7231
    -1.6921  -1.6803  -1.6750  -1.6575  -1.5787  -1.5664  -1.5646  -1.4859
    -1.4492

     occupation numbers 
     1.0000   1.0000   1.0000   1.0000   1.0000   1.0000   1.0000   1.0000
     1.0000   1.0000   1.0000   1.0000   1.0000   1.0000   1.0000   1.0000
     1.0000   1.0000   1.0000   1.0000   1.0023   1.0417   1.0540   0.0000
     0.0000

          k = 0.0000 0.1111 0.1244 ( 19655 PWs)   bands (ev):

   -57.7435 -33.7884 -33.7723 -33.7723 -33.6691 -18.6546 -18.6546 -18.6528
   -16.2622 -16.2228 -16.2213  -2.0504  -1.9530  -1.9085  -1.7719  -1.7364
    -1.7051  -1.6827  -1.6721  -1.6570  -1.5787  -1.5556  -1.5506  -1.4767
    -1.4144

     occupation numbers 
     1.0000   1.0000   1.0000   1.0000   1.0000   1.0000   1.0000   1.0000
     1.0000   1.0000   1.0000   1.0000   1.0000   1.0000   1.0000   1.0000
     1.0000   1.0000   1.0000   1.0000   1.0023   1.0697   0.9621   0.0000
     0.0000

          k = 0.0000 0.1111 0.2489 ( 19634 PWs)   bands (ev):

   -57.7435 -33.7884 -33.7723 -33.7723 -33.6691 -18.6546 -18.6546 -18.6528
   -16.2621 -16.2228 -16.2213  -2.1495  -1.9517  -1.9074  -1.8087  -1.7630
    -1.7304  -1.6877  -1.6734  -1.6616  -1.5791  -1.5289  -1.5226  -1.4658
    -1.3902

     occupation numbers 
     1.0000   1.0000   1.0000   1.0000   1.0000   1.0000   1.0000   1.0000
     1.0000   1.0000   1.0000   1.0000   1.0000   1.0000   1.0000   1.0000
     1.0000   1.0000   1.0000   1.0000   1.0020   0.0646   0.0127   0.0000
     0.0000

          k = 0.0000 0.1111 0.3733 ( 19666 PWs)   bands (ev):

   -57.7435 -33.7884 -33.7723 -33.7723 -33.6691 -18.6546 -18.6546 -18.6528
   -16.2621 -16.2228 -16.2213  -2.2264  -1.9514  -1.9059  -1.8334  -1.7853
    -1.7502  -1.6925  -1.6778  -1.6688  -1.5794  -1.5052  -1.4996  -1.4604
    -1.3675

     occupation numbers 
     1.0000   1.0000   1.0000   1.0000   1.0000   1.0000   1.0000   1.0000
     1.0000   1.0000   1.0000   1.0000   1.0000   1.0000   1.0000   1.0000
     1.0000   1.0000   1.0000   1.0000   1.0018   0.0000   0.0000   0.0000
     0.0000

          k = 0.0000 0.1111-0.4977 ( 19664 PWs)   bands (ev):

   -57.7435 -33.7884 -33.7723 -33.7723 -33.6691 -18.6546 -18.6546 -18.6528
   -16.2620 -16.2228 -16.2213  -2.2543  -1.9513  -1.9051  -1.8419  -1.7938
    -1.7574  -1.6945  -1.6798  -1.6721  -1.5795  -1.4963  -1.4909  -1.4587
    -1.3587

     occupation numbers 
     1.0000   1.0000   1.0000   1.0000   1.0000   1.0000   1.0000   1.0000
     1.0000   1.0000   1.0000   1.0000   1.0000   1.0000   1.0000   1.0000
     1.0000   1.0000   1.0000   1.0000   1.0018   0.0000   0.0000   0.0000
     0.0000

          k = 0.0000 0.2222 0.0000 ( 19655 PWs)   bands (ev):

   -57.7435 -33.7884 -33.7723 -33.7723 -33.6691 -18.6546 -18.6546 -18.6528
   -16.2622 -16.2227 -16.2214  -2.0637  -1.9845  -1.9069  -1.7792  -1.7273
    -1.7215  -1.7180  -1.6843  -1.6668  -1.5665  -1.5392  -1.5379  -1.4681
    -1.4287

     occupation numbers 
     1.0000   1.0000   1.0000   1.0000   1.0000   1.0000   1.0000   1.0000
     1.0000   1.0000   1.0000   1.0000   1.0000   1.0000   1.0000   1.0000
     1.0000   1.0000   1.0000   1.0000   1.0408   0.3952   0.3336   0.0000
     0.0000

          k = 0.0000 0.2222 0.1244 ( 19635 PWs)   bands (ev):

   -57.7435 -33.7884 -33.7723 -33.7723 -33.6691 -18.6546 -18.6546 -18.6528
   -16.2622 -16.2227 -16.2214  -2.0905  -2.0085  -1.9064  -1.8105  -1.7403
    -1.7203  -1.7069  -1.6885  -1.6608  -1.5532  -1.5389  -1.5347  -1.4663
    -1.3702

     occupation numbers 
     1.0000   1.0000   1.0000   1.0000   1.0000   1.0000   1.0000   1.0000
     1.0000   1.0000   1.0000   1.0000   1.0000   1.0000   1.0000   1.0000
     1.0000   1.0000   1.0000   1.0000   1.0329   0.3838   0.2042   0.0000
     0.0000

          k = 0.0000 0.2222 0.2489 ( 19637 PWs)   bands (ev):

   -57.7435 -33.7884 -33.7723 -33.7723 -33.6691 -18.6546 -18.6546 -18.6528
   -16.2621 -16.2227 -16.2214  -2.1721  -2.0238  -1.9048  -1.8510  -1.7670
    -1.7251  -1.7136  -1.6813  -1.6545  -1.5423  -1.5229  -1.5204  -1.4610
    -1.2976

     occupation numbers 
     1.0000   1.0000   1.0000   1.0000   1.0000   1.0000   1.0000   1.0000
     1.0000   1.0000   1.0000   1.0000   1.0000   1.0000   1.0000   1.0000
     1.0000   1.0000   1.0000   1.0000   0.5625   0.0139   0.0064   0.0000
     0.0000

          k = 0.0000 0.2222 0.3733 ( 19645 PWs)   bands (ev):

   -57.7435 -33.7884 -33.7723 -33.7723 -33.6691 -18.6546 -18.6546 -18.6528
   -16.2621 -16.2227 -16.2214  -2.2447  -2.0274  -1.9028  -1.8784  -1.7895
    -1.7297  -1.7214  -1.6806  -1.6545  -1.5427  -1.5021  -1.5004  -1.4563
    -1.2644

     occupation numbers 
     1.0000   1.0000   1.0000   1.0000   1.0000   1.0000   1.0000   1.0000
     1.0000   1.0000   1.0000   1.0000   1.0000   1.0000   1.0000   1.0000
     1.0000   1.0000   1.0000   1.0000   0.5839   0.0000   0.0000   0.0000
     0.0000

          k = 0.0000 0.2222-0.4977 ( 19632 PWs)   bands (ev):

   -57.7435 -33.7884 -33.7723 -33.7723 -33.6691 -18.6546 -18.6546 -18.6528
   -16.2620 -16.2227 -16.2214  -2.2716  -2.0282  -1.9017  -1.8879  -1.7981
    -1.7316  -1.7240  -1.6815  -1.6557  -1.5430  -1.4942  -1.4918  -1.4546
    -1.2540

     occupation numbers 
     1.0000   1.0000   1.0000   1.0000   1.0000   1.0000   1.0000   1.0000
     1.0000   1.0000   1.0000   1.0000   1.0000   1.0000   1.0000   1.0000
     1.0000   1.0000   1.0000   1.0000   0.5991   0.0000   0.0000   0.0000
     0.0000

          k = 0.0000 0.3333 0.0000 ( 19660 PWs)   bands (ev):

   -57.7435 -33.7884 -33.7723 -33.7723 -33.6691 -18.6546 -18.6546 -18.6528
   -16.2622 -16.2224 -16.2216  -2.1460  -1.9844  -1.9042  -1.8062  -1.7488
    -1.7480  -1.7310  -1.6890  -1.6778  -1.5665  -1.5099  -1.5089  -1.4642
    -1.4038

     occupation numbers 
     1.0000   1.0000   1.0000   1.0000   1.0000   1.0000   1.0000   1.0000
     1.0000   1.0000   1.0000   1.0000   1.0000   1.0000   1.0000   1.0000
     1.0000   1.0000   1.0000   1.0000   1.0413   0.0001   0.0001   0.0000
     0.0000

          k = 0.0000 0.3333 0.1244 ( 19664 PWs)   bands (ev):

   -57.7435 -33.7884 -33.7723 -33.7723 -33.6691 -18.6546 -18.6546 -18.6528
   -16.2622 -16.2224 -16.2216  -2.1610  -2.0202  -1.9034  -1.8394  -1.7514
    -1.7439  -1.7242  -1.6916  -1.6690  -1.5526  -1.5104  -1.5082  -1.4598
    -1.3481

     occupation numbers 
     1.0000   1.0000   1.0000   1.0000   1.0000   1.0000   1.0000   1.0000
     1.0000   1.0000   1.0000   1.0000   1.0000   1.0000   1.0000   1.0000
     1.0000   1.0000   1.0000   1.0000   1.0197   0.0002   0.0001   0.0000
     0.0000

          k = 0.0000 0.3333 0.2489 ( 19621 PWs)   bands (ev):

   -57.7435 -33.7884 -33.7723 -33.7723 -33.6691 -18.6546 -18.6546 -18.6528
   -16.2621 -16.2224 -16.2216  -2.2138  -2.0639  -1.9012  -1.8829  -1.7716
    -1.7555  -1.7088  -1.6865  -1.6528  -1.5251  -1.5113  -1.5023  -1.4570
    -1.2497

     occupation numbers 
     1.0000   1.0000   1.0000   1.0000   1.0000   1.0000   1.0000   1.0000
     1.0000   1.0000   1.0000   1.0000   1.0000   1.0000   1.0000   1.0000
     1.0000   1.0000   1.0000   1.0000   0.0252   0.0002   0.0000   0.0000
     0.0000

          k = 0.0000 0.3333 0.3733 ( 19620 PWs)   bands (ev):

   -57.7435 -33.7884 -33.7723 -33.7723 -33.6691 -18.6546 -18.6546 -18.6528
   -16.2621 -16.2224 -16.2216  -2.2742  -2.0794  -1.9127  -1.8985  -1.7940
    -1.7606  -1.7040  -1.6814  -1.6433  -1.5133  -1.5011  -1.4914  -1.4555
    -1.1903

     occupation numbers 
     1.0000   1.0000   1.0000   1.0000   1.0000   1.0000   1.0000   1.0000
     1.0000   1.0000   1.0000   1.0000   1.0000   1.0000   1.0000   1.0000
     1.0000   1.0000   1.0000   1.0000   0.0005   0.0000   0.0000   0.0000
     0.0000

          k = 0.0000 0.3333-0.4977 ( 19638 PWs)   bands (ev):

   -57.7435 -33.7884 -33.7723 -33.7723 -33.6691 -18.6546 -18.6546 -18.6528
   -16.2620 -16.2224 -16.2216  -2.2984  -2.0828  -1.9232  -1.8971  -1.8028
    -1.7627  -1.7019  -1.6806  -1.6412  -1.5135  -1.4927  -1.4858  -1.4549
    -1.1730

     occupation numbers 
     1.0000   1.0000   1.0000   1.0000   1.0000   1.0000   1.0000   1.0000
     1.0000   1.0000   1.0000   1.0000   1.0000   1.0000   1.0000   1.0000
     1.0000   1.0000   1.0000   1.0000   0.0006   0.0000   0.0000   0.0000
     0.0000

          k = 0.0000 0.4444 0.0000 ( 19654 PWs)   bands (ev):

   -57.7435 -33.7884 -33.7723 -33.7723 -33.6691 -18.6546 -18.6546 -18.6528
   -16.2622 -16.2222 -16.2219  -2.1917  -1.9835  -1.9020  -1.8211  -1.7656
    -1.7623  -1.7338  -1.6912  -1.6855  -1.5665  -1.4940  -1.4917  -1.4633
    -1.3899

     occupation numbers 
     1.0000   1.0000   1.0000   1.0000   1.0000   1.0000   1.0000   1.0000
     1.0000   1.0000   1.0000   1.0000   1.0000   1.0000   1.0000   1.0000
     1.0000   1.0000   1.0000   1.0000   1.0412   0.0000   0.0000   0.0000
     0.0000

          k = 0.0000 0.4444 0.1244 ( 19651 PWs)   bands (ev):

   -57.7435 -33.7884 -33.7723 -33.7723 -33.6691 -18.6546 -18.6546 -18.6528
   -16.2622 -16.2222 -16.2219  -2.2041  -2.0220  -1.9010  -1.8548  -1.7680
    -1.7470  -1.7349  -1.6926  -1.6755  -1.5527  -1.4945  -1.4918  -1.4569
    -1.3357

     occupation numbers 
     1.0000   1.0000   1.0000   1.0000   1.0000   1.0000   1.0000   1.0000
     1.0000   1.0000   1.0000   1.0000   1.0000   1.0000   1.0000   1.0000
     1.0000   1.0000   1.0000   1.0000   1.0220   0.0000   0.0000   0.0000
     0.0000

          k = 0.0000 0.4444 0.2489 ( 19631 PWs)   bands (ev):

   -57.7435 -33.7884 -33.7723 -33.7723 -33.6691 -18.6546 -18.6546 -18.6528
   -16.2621 -16.2222 -16.2219  -2.2461  -2.0765  -1.8998  -1.8984  -1.7748
    -1.7723  -1.7062  -1.6913  -1.6541  -1.5250  -1.4958  -1.4890  -1.4549
    -1.2307

     occupation numbers 
     1.0000   1.0000   1.0000   1.0000   1.0000   1.0000   1.0000   1.0000
     1.0000   1.0000   1.0000   1.0000   1.0000   1.0000   1.0000   1.0000
     1.0000   1.0000   1.0000   1.0000   0.0248   0.0000   0.0000   0.0000
     0.0000

          k = 0.0000 0.4444 0.3733 ( 19640 PWs)   bands (ev):

   -57.7435 -33.7884 -33.7723 -33.7723 -33.6691 -18.6546 -18.6546 -18.6528
   -16.2621 -16.2222 -16.2218  -2.2978  -2.1006  -1.9310  -1.8950  -1.7964
    -1.7788  -1.6928  -1.6844  -1.6393  -1.5020  -1.4969  -1.4819  -1.4554
    -1.1579

     occupation numbers 
     1.0000   1.0000   1.0000   1.0000   1.0000   1.0000   1.0000   1.0000
     1.0000   1.0000   1.0000   1.0000   1.0000   1.0000   1.0000   1.0000
     1.0000   1.0000   1.0000   1.0000   0.0000   0.0000   0.0000   0.0000
     0.0000

          k = 0.0000 0.4444-0.4977 ( 19622 PWs)   bands (ev):

   -57.7435 -33.7884 -33.7723 -33.7723 -33.6691 -18.6546 -18.6546 -18.6528
   -16.2620 -16.2222 -16.2218  -2.3197  -2.1064  -1.9419  -1.8933  -1.8052
    -1.7811  -1.6904  -1.6794  -1.6351  -1.4974  -1.4932  -1.4778  -1.4559
    -1.1350

     occupation numbers 
     1.0000   1.0000   1.0000   1.0000   1.0000   1.0000   1.0000   1.0000
     1.0000   1.0000   1.0000   1.0000   1.0000   1.0000   1.0000   1.0000
     1.0000   1.0000   1.0000   1.0000   0.0000   0.0000   0.0000   0.0000
     0.0000

          k = 0.1111 0.1111 0.0000 ( 19645 PWs)   bands (ev):

   -57.7435 -33.7884 -33.7723 -33.7723 -33.6691 -18.6546 -18.6546 -18.6528
   -16.2622 -16.2228 -16.2214  -2.0038  -1.9674  -1.9380  -1.7624  -1.7324
    -1.7159  -1.6905  -1.6613  -1.6529  -1.5834  -1.5618  -1.5585  -1.4443
    -1.4169

     occupation numbers 
     1.0000   1.0000   1.0000   1.0000   1.0000   1.0000   1.0000   1.0000
     1.0000   1.0000   1.0000   1.0000   1.0000   1.0000   1.0000   1.0000
     1.0000   1.0000   1.0000   1.0000   1.0005   1.0722   1.0833   0.0000
     0.0000

          k = 0.1111 0.1111 0.1244 ( 19654 PWs)   bands (ev):

   -57.7435 -33.7884 -33.7723 -33.7723 -33.6691 -18.6546 -18.6546 -18.6528
   -16.2622 -16.2228 -16.2214  -2.0575  -1.9647  -1.9377  -1.7871  -1.7480
    -1.7170  -1.6918  -1.6636  -1.6510  -1.5769  -1.5520  -1.5508  -1.4167
    -1.4093

     occupation numbers 
     1.0000   1.0000   1.0000   1.0000   1.0000   1.0000   1.0000   1.0000
     1.0000   1.0000   1.0000   1.0000   1.0000   1.0000   1.0000   1.0000
     1.0000   1.0000   1.0000   1.0000   1.0040   1.0067   0.9686   0.0000
     0.0000

          k = 0.1111 0.1111 0.2489 ( 19650 PWs)   bands (ev):

   -57.7435 -33.7884 -33.7723 -33.7723 -33.6691 -18.6546 -18.6546 -18.6528
   -16.2621 -16.2228 -16.2214  -2.1556  -1.9636  -1.9369  -1.8218  -1.7767
    -1.7238  -1.7032  -1.6688  -1.6539  -1.5685  -1.5300  -1.5259  -1.4164
    -1.3737

     occupation numbers 
     1.0000   1.0000   1.0000   1.0000   1.0000   1.0000   1.0000   1.0000
     1.0000   1.0000   1.0000   1.0000   1.0000   1.0000   1.0000   1.0000
     1.0000   1.0000   1.0000   1.0000   1.0291   0.0829   0.0311   0.0000
     0.0000

          k = 0.1111 0.1111 0.3733 ( 19660 PWs)   bands (ev):

   -57.7435 -33.7884 -33.7723 -33.7723 -33.6691 -18.6546 -18.6546 -18.6528
   -16.2621 -16.2228 -16.2214  -2.2321  -1.9634  -1.9359  -1.8452  -1.7994
    -1.7315  -1.7151  -1.6731  -1.6610  -1.5662  -1.5062  -1.5036  -1.4163
    -1.3468

     occupation numbers 
     1.0000   1.0000   1.0000   1.0000   1.0000   1.0000   1.0000   1.0000
     1.0000   1.0000   1.0000   1.0000   1.0000   1.0000   1.0000   1.0000
     1.0000   1.0000   1.0000   1.0000   1.0433   0.0000   0.0000   0.0000
     0.0000

          k = 0.1111 0.1111-0.4977 ( 19664 PWs)   bands (ev):

   -57.7435 -33.7884 -33.7723 -33.7723 -33.6691 -18.6546 -18.6546 -18.6528
   -16.2620 -16.2228 -16.2214  -2.2599  -1.9635  -1.9355  -1.8532  -1.8077
    -1.7347  -1.7199  -1.6743  -1.6647  -1.5657  -1.4969  -1.4950  -1.4163
    -1.3368

     occupation numbers 
     1.0000   1.0000   1.0000   1.0000   1.0000   1.0000   1.0000   1.0000
     1.0000   1.0000   1.0000   1.0000   1.0000   1.0000   1.0000   1.0000
     1.0000   1.0000   1.0000   1.0000   1.0462   0.0000   0.0000   0.0000
     0.0000

          k = 0.1111 0.2222 0.0000 ( 19656 PWs)   bands (ev):

   -57.7435 -33.7884 -33.7723 -33.7723 -33.6691 -18.6546 -18.6546 -18.6528
   -16.2622 -16.2226 -16.2215  -2.0738  -1.9839  -1.9453  -1.7963  -1.7476
    -1.7361  -1.7056  -1.6755  -1.6569  -1.5710  -1.5407  -1.5337  -1.4392
    -1.3884

     occupation numbers 
     1.0000   1.0000   1.0000   1.0000   1.0000   1.0000   1.0000   1.0000
     1.0000   1.0000   1.0000   1.0000   1.0000   1.0000   1.0000   1.0000
     1.0000   1.0000   1.0000   1.0000   1.0178   0.4746   0.1712   0.0000
     0.0000

          k = 0.1111 0.2222 0.1244 ( 19643 PWs)   bands (ev):

   -57.7435 -33.7884 -33.7723 -33.7723 -33.6691 -18.6546 -18.6546 -18.6528
   -16.2622 -16.2226 -16.2215  -2.1003  -2.0084  -1.9442  -1.8183  -1.7579
    -1.7474  -1.6916  -1.6754  -1.6534  -1.5610  -1.5376  -1.5300  -1.4098
    -1.3621

     occupation numbers 
     1.0000   1.0000   1.0000   1.0000   1.0000   1.0000   1.0000   1.0000
     1.0000   1.0000   1.0000   1.0000   1.0000   1.0000   1.0000   1.0000
     1.0000   1.0000   1.0000   1.0000   1.0768   0.3201   0.0825   0.0000
     0.0000

          k = 0.1111 0.2222 0.2489 ( 19641 PWs)   bands (ev):

   -57.7435 -33.7884 -33.7723 -33.7723 -33.6691 -18.6546 -18.6546 -18.6528
   -16.2621 -16.2226 -16.2215  -2.1795  -2.0254  -1.9429  -1.8531  -1.7845
    -1.7532  -1.6924  -1.6704  -1.6497  -1.5431  -1.5247  -1.5175  -1.3986
    -1.2976

     occupation numbers 
     1.0000   1.0000   1.0000   1.0000   1.0000   1.0000   1.0000   1.0000
     1.0000   1.0000   1.0000   1.0000   1.0000   1.0000   1.0000   1.0000
     1.0000   1.0000   1.0000   1.0000   0.6072   0.0232   0.0025   0.0000
     0.0000

          k = 0.1111 0.2222 0.3733 ( 19626 PWs)   bands (ev):

   -57.7435 -33.7884 -33.7723 -33.7723 -33.6691 -18.6546 -18.6546 -18.6528
   -16.2621 -16.2226 -16.2215  -2.2509  -2.0297  -1.9417  -1.8779  -1.8068
    -1.7540  -1.7011  -1.6698  -1.6509  -1.5371  -1.5056  -1.4996  -1.3951
    -1.2628

     occupation numbers 
     1.0000   1.0000   1.0000   1.0000   1.0000   1.0000   1.0000   1.0000
     1.0000   1.0000   1.0000   1.0000   1.0000   1.0000   1.0000   1.0000
     1.0000   1.0000   1.0000   1.0000   0.2993   0.0000   0.0000   0.0000
     0.0000

          k = 0.1111 0.2222-0.4977 ( 19644 PWs)   bands (ev):

   -57.7435 -33.7884 -33.7723 -33.7723 -33.6691 -18.6546 -18.6546 -18.6528
   -16.2620 -16.2226 -16.2215  -2.2775  -2.0307  -1.9412  -1.8867  -1.8151
    -1.7536  -1.7053  -1.6703  -1.6526  -1.5362  -1.4971  -1.4919  -1.3941
    -1.2517

     occupation numbers 
     1.0000   1.0000   1.0000   1.0000   1.0000   1.0000   1.0000   1.0000
     1.0000   1.0000   1.0000   1.0000   1.0000   1.0000   1.0000   1.0000
     1.0000   1.0000   1.0000   1.0000   0.2594   0.0000   0.0000   0.0000
     0.0000

          k = 0.1111 0.3333 0.0000 ( 19654 PWs)   bands (ev):

   -57.7435 -33.7884 -33.7723 -33.7723 -33.6691 -18.6546 -18.6546 -18.6528
   -16.2622 -16.2224 -16.2216  -2.1540  -1.9843  -1.9444  -1.8238  -1.7708
    -1.7419  -1.7265  -1.6839  -1.6655  -1.5681  -1.5123  -1.5069  -1.4378
    -1.3638

     occupation numbers 
     1.0000   1.0000   1.0000   1.0000   1.0000   1.0000   1.0000   1.0000
     1.0000   1.0000   1.0000   1.0000   1.0000   1.0000   1.0000   1.0000
     1.0000   1.0000   1.0000   1.0000   1.0313   0.0004   0.0000   0.0000
     0.0000

          k = 0.1111 0.3333 0.1244 ( 19647 PWs)   bands (ev):

   -57.7435 -33.7884 -33.7723 -33.7723 -33.6691 -18.6546 -18.6546 -18.6528
   -16.2622 -16.2224 -16.2216  -2.1693  -2.0200  -1.9431  -1.8445  -1.7789
    -1.7576  -1.7031  -1.6835  -1.6604  -1.5558  -1.5125  -1.5047  -1.4087
    -1.3345

     occupation numbers 
     1.0000   1.0000   1.0000   1.0000   1.0000   1.0000   1.0000   1.0000
     1.0000   1.0000   1.0000   1.0000   1.0000   1.0000   1.0000   1.0000
     1.0000   1.0000   1.0000   1.0000   1.0717   0.0004   0.0000   0.0000
     0.0000

          k = 0.1111 0.3333 0.2489 ( 19632 PWs)   bands (ev):

   -57.7435 -33.7884 -33.7723 -33.7723 -33.6691 -18.6546 -18.6546 -18.6528
   -16.2621 -16.2224 -16.2216  -2.2215  -2.0638  -1.9412  -1.8809  -1.7882
    -1.7792  -1.6888  -1.6749  -1.6497  -1.5300  -1.5097  -1.4993  -1.3949
    -1.2491

     occupation numbers 
     1.0000   1.0000   1.0000   1.0000   1.0000   1.0000   1.0000   1.0000
     1.0000   1.0000   1.0000   1.0000   1.0000   1.0000   1.0000   1.0000
     1.0000   1.0000   1.0000   1.0000   0.0822   0.0001   0.0000   0.0000
     0.0000

          k = 0.1111 0.3333 0.3733 ( 19621 PWs)   bands (ev):

   -57.7435 -33.7884 -33.7723 -33.7723 -33.6691 -18.6546 -18.6546 -18.6528
   -16.2621 -16.2224 -16.2216  -2.2807  -2.0800  -1.9394  -1.9080  -1.8091
    -1.7806  -1.6876  -1.6684  -1.6420  -1.5114  -1.5033  -1.4893  -1.3925
    -1.1907

     occupation numbers 
     1.0000   1.0000   1.0000   1.0000   1.0000   1.0000   1.0000   1.0000
     1.0000   1.0000   1.0000   1.0000   1.0000   1.0000   1.0000   1.0000
     1.0000   1.0000   1.0000   1.0000   0.0003   0.0000   0.0000   0.0000
     0.0000

          k = 0.1111 0.3333-0.4977 ( 19642 PWs)   bands (ev):

   -57.7435 -33.7884 -33.7723 -33.7723 -33.6691 -18.6546 -18.6546 -18.6528
   -16.2620 -16.2224 -16.2216  -2.3045  -2.0836  -1.9386  -1.9176  -1.8173
    -1.7806  -1.6867  -1.6679  -1.6400  -1.5093  -1.4961  -1.4839  -1.3920
    -1.1732

     occupation numbers 
     1.0000   1.0000   1.0000   1.0000   1.0000   1.0000   1.0000   1.0000
     1.0000   1.0000   1.0000   1.0000   1.0000   1.0000   1.0000   1.0000
     1.0000   1.0000   1.0000   1.0000   0.0001   0.0000   0.0000   0.0000
     0.0000

          k = 0.1111 0.4444 0.0000 ( 19645 PWs)   bands (ev):

   -57.7435 -33.7884 -33.7723 -33.7723 -33.6691 -18.6546 -18.6546 -18.6528
   -16.2622 -16.2221 -16.2219  -2.1990  -1.9835  -1.9432  -1.8389  -1.7843
    -1.7449  -1.7392  -1.6879  -1.6715  -1.5675  -1.4957  -1.4905  -1.4378
    -1.3498

     occupation numbers 
     1.0000   1.0000   1.0000   1.0000   1.0000   1.0000   1.0000   1.0000
     1.0000   1.0000   1.0000   1.0000   1.0000   1.0000   1.0000   1.0000
     1.0000   1.0000   1.0000   1.0000   1.0351   0.0000   0.0000   0.0000
     0.0000

          k = 0.1111 0.4444 0.1244 ( 19639 PWs)   bands (ev):

   -57.7435 -33.7884 -33.7723 -33.7723 -33.6691 -18.6546 -18.6546 -18.6528
   -16.2622 -16.2221 -16.2219  -2.2117  -2.0221  -1.9418  -1.8589  -1.7932
    -1.7602  -1.7132  -1.6856  -1.6663  -1.5546  -1.4964  -1.4892  -1.4085
    -1.3198

     occupation numbers 
     1.0000   1.0000   1.0000   1.0000   1.0000   1.0000   1.0000   1.0000
     1.0000   1.0000   1.0000   1.0000   1.0000   1.0000   1.0000   1.0000
     1.0000   1.0000   1.0000   1.0000   1.0582   0.0000   0.0000   0.0000
     0.0000

          k = 0.1111 0.4444 0.2489 ( 19622 PWs)   bands (ev):

   -57.7435 -33.7884 -33.7723 -33.7723 -33.6691 -18.6546 -18.6546 -18.6528
   -16.2621 -16.2221 -16.2219  -2.2535  -2.0763  -1.9395  -1.8963  -1.7959
    -1.7877  -1.6867  -1.6801  -1.6516  -1.5280  -1.4955  -1.4861  -1.3935
    -1.2290

     occupation numbers 
     1.0000   1.0000   1.0000   1.0000   1.0000   1.0000   1.0000   1.0000
     1.0000   1.0000   1.0000   1.0000   1.0000   1.0000   1.0000   1.0000
     1.0000   1.0000   1.0000   1.0000   0.0533   0.0000   0.0000   0.0000
     0.0000

          k = 0.1111 0.4444 0.3733 ( 19642 PWs)   bands (ev):

   -57.7435 -33.7884 -33.7723 -33.7723 -33.6691 -18.6546 -18.6546 -18.6528
   -16.2621 -16.2221 -16.2219  -2.3043  -2.1008  -1.9372  -1.9246  -1.8101
    -1.7959  -1.6792  -1.6701  -1.6384  -1.5053  -1.4937  -1.4800  -1.3923
    -1.1581

     occupation numbers 
     1.0000   1.0000   1.0000   1.0000   1.0000   1.0000   1.0000   1.0000
     1.0000   1.0000   1.0000   1.0000   1.0000   1.0000   1.0000   1.0000
     1.0000   1.0000   1.0000   1.0000   0.0000   0.0000   0.0000   0.0000
     0.0000

          k = 0.1111 0.4444-0.4977 ( 19630 PWs)   bands (ev):

   -57.7435 -33.7884 -33.7723 -33.7723 -33.6691 -18.6546 -18.6546 -18.6528
[...]
     0.0000

          k = 0.2222 0.2222 0.2489 ( 19635 PWs)   bands (ev):

   -57.7435 -33.7884 -33.7723 -33.7723 -33.6691 -18.6546 -18.6546 -18.6528
   -16.2621 -16.2225 -16.2215  -2.2053  -2.0384  -1.9958  -1.8626  -1.8057
    -1.7857  -1.6770  -1.6634  -1.6409  -1.5329  -1.5117  -1.5115  -1.3063
    -1.2949

     occupation numbers 
     1.0000   1.0000   1.0000   1.0000   1.0000   1.0000   1.0000   1.0000
     1.0000   1.0000   1.0000   1.0000   1.0000   1.0000   1.0000   1.0000
     1.0000   1.0000   1.0000   1.0000   0.1475   0.0003   0.0003   0.0000
     0.0000

          k = 0.2222 0.2222 0.3733 ( 19643 PWs)   bands (ev):

   -57.7435 -33.7884 -33.7723 -33.7723 -33.6691 -18.6546 -18.6546 -18.6528
   -16.2621 -16.2225 -16.2215  -2.2707  -2.0474  -1.9953  -1.8828  -1.8297
    -1.7860  -1.6767  -1.6591  -1.6427  -1.5200  -1.5013  -1.4941  -1.3071
    -1.2466

     occupation numbers 
     1.0000   1.0000   1.0000   1.0000   1.0000   1.0000   1.0000   1.0000
     1.0000   1.0000   1.0000   1.0000   1.0000   1.0000   1.0000   1.0000
     1.0000   1.0000   1.0000   1.0000   0.0058   0.0000   0.0000   0.0000
     0.0000

          k = 0.2222 0.2222-0.4977 ( 19640 PWs)   bands (ev):

   -57.7435 -33.7884 -33.7723 -33.7723 -33.6691 -18.6546 -18.6546 -18.6528
   -16.2620 -16.2225 -16.2215  -2.2959  -2.0493  -1.9950  -1.8905  -1.8384
    -1.7850  -1.6785  -1.6569  -1.6452  -1.5171  -1.4949  -1.4867  -1.3075
    -1.2317

     occupation numbers 
     1.0000   1.0000   1.0000   1.0000   1.0000   1.0000   1.0000   1.0000
     1.0000   1.0000   1.0000   1.0000   1.0000   1.0000   1.0000   1.0000
     1.0000   1.0000   1.0000   1.0000   0.0021   0.0000   0.0000   0.0000
     0.0000

          k = 0.2222 0.3333 0.0000 ( 19635 PWs)   bands (ev):

   -57.7435 -33.7884 -33.7723 -33.7723 -33.6691 -18.6546 -18.6546 -18.6528
   -16.2622 -16.2223 -16.2217  -2.1828  -2.0133  -1.9796  -1.8598  -1.7773
    -1.7596  -1.7188  -1.6936  -1.6419  -1.5440  -1.5123  -1.5023  -1.4306
    -1.2654

     occupation numbers 
     1.0000   1.0000   1.0000   1.0000   1.0000   1.0000   1.0000   1.0000
     1.0000   1.0000   1.0000   1.0000   1.0000   1.0000   1.0000   1.0000
     1.0000   1.0000   1.0000   1.0000   0.6545   0.0004   0.0000   0.0000
     0.0000

          k = 0.2222 0.3333 0.1244 ( 19633 PWs)   bands (ev):

   -57.7435 -33.7884 -33.7723 -33.7723 -33.6691 -18.6546 -18.6546 -18.6528
   -16.2622 -16.2223 -16.2217  -2.1979  -2.0229  -2.0041  -1.8631  -1.7983
    -1.7796  -1.6955  -1.6806  -1.6409  -1.5366  -1.5103  -1.4991  -1.3765
    -1.2633

     occupation numbers 
     1.0000   1.0000   1.0000   1.0000   1.0000   1.0000   1.0000   1.0000
     1.0000   1.0000   1.0000   1.0000   1.0000   1.0000   1.0000   1.0000
     1.0000   1.0000   1.0000   1.0000   0.2778   0.0002   0.0000   0.0000
     0.0000

          k = 0.2222 0.3333 0.2489 ( 19644 PWs)   bands (ev):

   -57.7435 -33.7884 -33.7723 -33.7723 -33.6691 -18.6546 -18.6546 -18.6528
   -16.2621 -16.2223 -16.2217  -2.2461  -2.0641  -2.0084  -1.8782  -1.8166
    -1.8083  -1.6721  -1.6624  -1.6382  -1.5190  -1.5021  -1.4931  -1.2993
    -1.2413

     occupation numbers 
     1.0000   1.0000   1.0000   1.0000   1.0000   1.0000   1.0000   1.0000
     1.0000   1.0000   1.0000   1.0000   1.0000   1.0000   1.0000   1.0000
     1.0000   1.0000   1.0000   1.0000   0.0042   0.0000   0.0000   0.0000
     0.0000

          k = 0.2222 0.3333 0.3733 ( 19651 PWs)   bands (ev):

   -57.7435 -33.7884 -33.7723 -33.7723 -33.6691 -18.6546 -18.6546 -18.6528
   -16.2621 -16.2223 -16.2217  -2.3007  -2.0831  -2.0081  -1.8972  -1.8365
    -1.8115  -1.6644  -1.6507  -1.6366  -1.5020  -1.4932  -1.4845  -1.2841
    -1.1918

     occupation numbers 
     1.0000   1.0000   1.0000   1.0000   1.0000   1.0000   1.0000   1.0000
     1.0000   1.0000   1.0000   1.0000   1.0000   1.0000   1.0000   1.0000
     1.0000   1.0000   1.0000   1.0000   0.0000   0.0000   0.0000   0.0000
     0.0000

          k = 0.2222 0.3333-0.4977 ( 19634 PWs)   bands (ev):

   -57.7435 -33.7884 -33.7723 -33.7723 -33.6691 -18.6546 -18.6546 -18.6528
   -16.2620 -16.2223 -16.2217  -2.3231  -2.0876  -2.0078  -1.9050  -1.8448
    -1.8100  -1.6624  -1.6474  -1.6369  -1.4964  -1.4892  -1.4792  -1.2828
    -1.1735

     occupation numbers 
     1.0000   1.0000   1.0000   1.0000   1.0000   1.0000   1.0000   1.0000
     1.0000   1.0000   1.0000   1.0000   1.0000   1.0000   1.0000   1.0000
     1.0000   1.0000   1.0000   1.0000   0.0000   0.0000   0.0000   0.0000
     0.0000

          k = 0.2222 0.4444 0.0000 ( 19622 PWs)   bands (ev):

   -57.7435 -33.7884 -33.7723 -33.7723 -33.6691 -18.6546 -18.6546 -18.6527
   -16.2622 -16.2221 -16.2219  -2.2235  -2.0175  -1.9779  -1.8754  -1.7894
    -1.7620  -1.7251  -1.6975  -1.6442  -1.5430  -1.4964  -1.4881  -1.4302
    -1.2483

     occupation numbers 
     1.0000   1.0000   1.0000   1.0000   1.0000   1.0000   1.0000   1.0000
     1.0000   1.0000   1.0000   1.0000   1.0000   1.0000   1.0000   1.0000
     1.0000   1.0000   1.0000   1.0000   0.6015   0.0000   0.0000   0.0000
     0.0000

          k = 0.2222 0.4444 0.1244 ( 19637 PWs)   bands (ev):

   -57.7435 -33.7884 -33.7723 -33.7723 -33.6691 -18.6546 -18.6546 -18.6528
   -16.2622 -16.2221 -16.2219  -2.2363  -2.0285  -2.0037  -1.8766  -1.8115
    -1.7814  -1.6991  -1.6852  -1.6430  -1.5341  -1.4959  -1.4855  -1.3761
    -1.2446

     occupation numbers 
     1.0000   1.0000   1.0000   1.0000   1.0000   1.0000   1.0000   1.0000
     1.0000   1.0000   1.0000   1.0000   1.0000   1.0000   1.0000   1.0000
     1.0000   1.0000   1.0000   1.0000   0.1835   0.0000   0.0000   0.0000
     0.0000

          k = 0.2222 0.4444 0.2489 ( 19639 PWs)   bands (ev):

   -57.7435 -33.7884 -33.7723 -33.7723 -33.6691 -18.6546 -18.6546 -18.6528
   -16.2621 -16.2221 -16.2219  -2.2762  -2.0758  -2.0099  -1.8892  -1.8279
    -1.8123  -1.6696  -1.6649  -1.6392  -1.5140  -1.4916  -1.4805  -1.2997
    -1.2154

     occupation numbers 
     1.0000   1.0000   1.0000   1.0000   1.0000   1.0000   1.0000   1.0000
     1.0000   1.0000   1.0000   1.0000   1.0000   1.0000   1.0000   1.0000
     1.0000   1.0000   1.0000   1.0000   0.0007   0.0000   0.0000   0.0000
     0.0000

          k = 0.2222 0.4444 0.3733 ( 19641 PWs)   bands (ev):

   -57.7435 -33.7884 -33.7723 -33.7723 -33.6691 -18.6546 -18.6546 -18.6528
   -16.2621 -16.2221 -16.2219  -2.3237  -2.1017  -2.0096  -1.9087  -1.8357
    -1.8259  -1.6589  -1.6474  -1.6345  -1.4950  -1.4849  -1.4752  -1.2821
    -1.1582

     occupation numbers 
     1.0000   1.0000   1.0000   1.0000   1.0000   1.0000   1.0000   1.0000
     1.0000   1.0000   1.0000   1.0000   1.0000   1.0000   1.0000   1.0000
     1.0000   1.0000   1.0000   1.0000   0.0000   0.0000   0.0000   0.0000
     0.0000

          k = 0.2222 0.4444-0.4977 ( 19642 PWs)   bands (ev):

   -57.7435 -33.7884 -33.7723 -33.7723 -33.6691 -18.6546 -18.6546 -18.6528
   -16.2620 -16.2221 -16.2219  -2.3439  -2.1083  -2.0093  -1.9168  -1.8439
    -1.8238  -1.6553  -1.6428  -1.6322  -1.4873  -1.4825  -1.4721  -1.2806
    -1.1355

     occupation numbers 
     1.0000   1.0000   1.0000   1.0000   1.0000   1.0000   1.0000   1.0000
     1.0000   1.0000   1.0000   1.0000   1.0000   1.0000   1.0000   1.0000
     1.0000   1.0000   1.0000   1.0000   0.0000   0.0000   0.0000   0.0000
     0.0000

          k = 0.3333 0.3333 0.0000 ( 19614 PWs)   bands (ev):

   -57.7435 -33.7884 -33.7723 -33.7723 -33.6691 -18.6546 -18.6546 -18.6527
   -16.2622 -16.2222 -16.2218  -2.2283  -2.0491  -1.9777  -1.8900  -1.7817
    -1.7773  -1.7167  -1.7004  -1.6291  -1.5184  -1.5086  -1.4918  -1.4306
    -1.1962

     occupation numbers 
     1.0000   1.0000   1.0000   1.0000   1.0000   1.0000   1.0000   1.0000
     1.0000   1.0000   1.0000   1.0000   1.0000   1.0000   1.0000   1.0000
     1.0000   1.0000   1.0000   1.0000   0.0034   0.0001   0.0000   0.0000
     0.0000

          k = 0.3333 0.3333 0.1244 ( 19614 PWs)   bands (ev):

   -57.7435 -33.7884 -33.7723 -33.7723 -33.6691 -18.6546 -18.6546 -18.6528
   -16.2622 -16.2222 -16.2218  -2.2416  -2.0490  -2.0140  -1.8862  -1.8050
    -1.7982  -1.6947  -1.6827  -1.6286  -1.5138  -1.5040  -1.4892  -1.3731
    -1.1968

     occupation numbers 
     1.0000   1.0000   1.0000   1.0000   1.0000   1.0000   1.0000   1.0000
     1.0000   1.0000   1.0000   1.0000   1.0000   1.0000   1.0000   1.0000
     1.0000   1.0000   1.0000   1.0000   0.0006   0.0000   0.0000   0.0000
     0.0000

          k = 0.3333 0.3333 0.2489 ( 19641 PWs)   bands (ev):

   -57.7435 -33.7884 -33.7723 -33.7723 -33.6691 -18.6546 -18.6546 -18.6528
   -16.2621 -16.2222 -16.2218  -2.2822  -2.0670  -2.0487  -1.8816  -1.8321
    -1.8315  -1.6662  -1.6580  -1.6274  -1.5022  -1.4919  -1.4836  -1.2667
    -1.1981

     occupation numbers 
     1.0000   1.0000   1.0000   1.0000   1.0000   1.0000   1.0000   1.0000
     1.0000   1.0000   1.0000   1.0000   1.0000   1.0000   1.0000   1.0000
     1.0000   1.0000   1.0000   1.0000   0.0000   0.0000   0.0000   0.0000
     0.0000

          k = 0.3333 0.3333 0.3733 ( 19633 PWs)   bands (ev):

   -57.7435 -33.7884 -33.7723 -33.7723 -33.6691 -18.6546 -18.6546 -18.6528
   -16.2621 -16.2222 -16.2218  -2.3293  -2.0930  -2.0484  -1.8888  -1.8559
    -1.8366  -1.6502  -1.6419  -1.6277  -1.4884  -1.4790  -1.4787  -1.1996
    -1.1911

     occupation numbers 
     1.0000   1.0000   1.0000   1.0000   1.0000   1.0000   1.0000   1.0000
     1.0000   1.0000   1.0000   1.0000   1.0000   1.0000   1.0000   1.0000
     1.0000   1.0000   1.0000   1.0000   0.0000   0.0000   0.0000   0.0000
     0.0000

          k = 0.3333 0.3333-0.4977 ( 19650 PWs)   bands (ev):

   -57.7435 -33.7884 -33.7723 -33.7723 -33.6691 -18.6546 -18.6546 -18.6528
   -16.2620 -16.2222 -16.2218  -2.3493  -2.0996  -2.0483  -1.8944  -1.8646
    -1.8343  -1.6458  -1.6329  -1.6318  -1.4812  -1.4782  -1.4730  -1.2003
    -1.1668

     occupation numbers 
     1.0000   1.0000   1.0000   1.0000   1.0000   1.0000   1.0000   1.0000
     1.0000   1.0000   1.0000   1.0000   1.0000   1.0000   1.0000   1.0000
     1.0000   1.0000   1.0000   1.0000   0.0000   0.0000   0.0000   0.0000
     0.0000

          k = 0.3333 0.4444 0.0000 ( 19625 PWs)   bands (ev):

   -57.7435 -33.7884 -33.7723 -33.7723 -33.6691 -18.6546 -18.6546 -18.6527
   -16.2622 -16.2220 -16.2219  -2.2611  -2.0613  -1.9759  -1.9065  -1.7919
    -1.7811  -1.7149  -1.7038  -1.6258  -1.5140  -1.4957  -1.4820  -1.4319
    -1.1670

     occupation numbers 
     1.0000   1.0000   1.0000   1.0000   1.0000   1.0000   1.0000   1.0000
     1.0000   1.0000   1.0000   1.0000   1.0000   1.0000   1.0000   1.0000
     1.0000   1.0000   1.0000   1.0000   0.0007   0.0000   0.0000   0.0000
     0.0000

          k = 0.3333 0.4444 0.1244 ( 19621 PWs)   bands (ev):

   -57.7435 -33.7884 -33.7723 -33.7723 -33.6691 -18.6546 -18.6546 -18.6528
   -16.2622 -16.2220 -16.2219  -2.2730  -2.0616  -2.0134  -1.9003  -1.8145
    -1.8016  -1.6928  -1.6862  -1.6251  -1.5078  -1.4927  -1.4797  -1.3734
    -1.1671

     occupation numbers 
     1.0000   1.0000   1.0000   1.0000   1.0000   1.0000   1.0000   1.0000
     1.0000   1.0000   1.0000   1.0000   1.0000   1.0000   1.0000   1.0000
     1.0000   1.0000   1.0000   1.0000   0.0001   0.0000   0.0000   0.0000
     0.0000

          k = 0.3333 0.4444 0.2489 ( 19644 PWs)   bands (ev):

   -57.7435 -33.7884 -33.7723 -33.7723 -33.6691 -18.6546 -18.6546 -18.6528
   -16.2621 -16.2220 -16.2219  -2.3087  -2.0753  -2.0574  -1.8883  -1.8451
    -1.8340  -1.6625  -1.6587  -1.6234  -1.4939  -1.4844  -1.4742  -1.2642
    -1.1665

     occupation numbers 
     1.0000   1.0000   1.0000   1.0000   1.0000   1.0000   1.0000   1.0000
     1.0000   1.0000   1.0000   1.0000   1.0000   1.0000   1.0000   1.0000
     1.0000   1.0000   1.0000   1.0000   0.0000   0.0000   0.0000   0.0000
     0.0000

          k = 0.3333 0.4444 0.3733 ( 19670 PWs)   bands (ev):

   -57.7435 -33.7884 -33.7723 -33.7723 -33.6691 -18.6546 -18.6546 -18.6528
   -16.2621 -16.2220 -16.2219  -2.3508  -2.1042  -2.0591  -1.8903  -1.8584
    -1.8510  -1.6445  -1.6383  -1.6226  -1.4797  -1.4742  -1.4690  -1.1950
    -1.1540

     occupation numbers 
     1.0000   1.0000   1.0000   1.0000   1.0000   1.0000   1.0000   1.0000
     1.0000   1.0000   1.0000   1.0000   1.0000   1.0000   1.0000   1.0000
     1.0000   1.0000   1.0000   1.0000   0.0000   0.0000   0.0000   0.0000
     0.0000

          k = 0.3333 0.4444-0.4977 ( 19644 PWs)   bands (ev):

   -57.7435 -33.7884 -33.7723 -33.7723 -33.6691 -18.6546 -18.6546 -18.6528
   -16.2620 -16.2220 -16.2219  -2.3690  -2.1123  -2.0591  -1.8960  -1.8667
    -1.8476  -1.6385  -1.6300  -1.6237  -1.4734  -1.4697  -1.4669  -1.1853
    -1.1359

     occupation numbers 
     1.0000   1.0000   1.0000   1.0000   1.0000   1.0000   1.0000   1.0000
     1.0000   1.0000   1.0000   1.0000   1.0000   1.0000   1.0000   1.0000
     1.0000   1.0000   1.0000   1.0000   0.0000   0.0000   0.0000   0.0000
     0.0000

          k = 0.4444 0.4444 0.0000 ( 19612 PWs)   bands (ev):

   -57.7435 -33.7884 -33.7723 -33.7723 -33.6691 -18.6546 -18.6546 -18.6527
   -16.2622 -16.2220 -16.2219  -2.2892  -2.0784  -1.9740  -1.9234  -1.7939
    -1.7935  -1.7083  -1.7056  -1.6190  -1.4965  -1.4949  -1.4753  -1.4349
    -1.1287

     occupation numbers 
     1.0000   1.0000   1.0000   1.0000   1.0000   1.0000   1.0000   1.0000
     1.0000   1.0000   1.0000   1.0000   1.0000   1.0000   1.0000   1.0000
     1.0000   1.0000   1.0000   1.0000   0.0000   0.0000   0.0000   0.0000
     0.0000

          k = 0.4444 0.4444 0.1244 ( 19623 PWs)   bands (ev):

   -57.7435 -33.7884 -33.7723 -33.7723 -33.6691 -18.6546 -18.6546 -18.6528
   -16.2622 -16.2220 -16.2219  -2.3003  -2.0783  -2.0130  -1.9149  -1.8145
    -1.8135  -1.6888  -1.6867  -1.6181  -1.4919  -1.4906  -1.4734  -1.3747
    -1.1289

     occupation numbers 
     1.0000   1.0000   1.0000   1.0000   1.0000   1.0000   1.0000   1.0000
     1.0000   1.0000   1.0000   1.0000   1.0000   1.0000   1.0000   1.0000
     1.0000   1.0000   1.0000   1.0000   0.0000   0.0000   0.0000   0.0000
     0.0000

          k = 0.4444 0.4444 0.2489 ( 19642 PWs)   bands (ev):

   -57.7435 -33.7884 -33.7723 -33.7723 -33.6691 -18.6546 -18.6546 -18.6528
   -16.2621 -16.2220 -16.2219  -2.3326  -2.0782  -2.0741  -1.8942  -1.8471
    -1.8461  -1.6585  -1.6570  -1.6161  -1.4811  -1.4797  -1.4684  -1.2601
    -1.1293

     occupation numbers 
     1.0000   1.0000   1.0000   1.0000   1.0000   1.0000   1.0000   1.0000
     1.0000   1.0000   1.0000   1.0000   1.0000   1.0000   1.0000   1.0000
     1.0000   1.0000   1.0000   1.0000   0.0000   0.0000   0.0000   0.0000
     0.0000

          k = 0.4444 0.4444 0.3733 ( 19645 PWs)   bands (ev):

   -57.7435 -33.7884 -33.7723 -33.7723 -33.6691 -18.6546 -18.6546 -18.6528
   -16.2621 -16.2220 -16.2219  -2.3708  -2.1084  -2.0781  -1.8785  -1.8702
    -1.8657  -1.6373  -1.6360  -1.6142  -1.4694  -1.4681  -1.4631  -1.1710
    -1.1299

     occupation numbers 
     1.0000   1.0000   1.0000   1.0000   1.0000   1.0000   1.0000   1.0000
     1.0000   1.0000   1.0000   1.0000   1.0000   1.0000   1.0000   1.0000
     1.0000   1.0000   1.0000   1.0000   0.0000   0.0000   0.0000   0.0000
     0.0000

          k = 0.4444 0.4444-0.4977 ( 19642 PWs)   bands (ev):

   -57.7435 -33.7884 -33.7723 -33.7723 -33.6691 -18.6546 -18.6546 -18.6528
   -16.2620 -16.2220 -16.2219  -2.3876  -2.1180  -2.0780  -1.8830  -1.8788
    -1.8609  -1.6300  -1.6284  -1.6137  -1.4640  -1.4631  -1.4610  -1.1389
    -1.1303

     occupation numbers 
     1.0000   1.0000   1.0000   1.0000   1.0000   1.0000   1.0000   1.0000
     1.0000   1.0000   1.0000   1.0000   1.0000   1.0000   1.0000   1.0000
     1.0000   1.0000   1.0000   1.0000   0.0000   0.0000   0.0000   0.0000
     0.0000

     the Fermi energy is    -1.5393 ev

!    total energy              =    -283.48860448 Ry
     Harris-Foulkes estimate   =    -283.48860449 Ry
     estimated scf accuracy    <          3.6E-09 Ry

     The total energy is the sum of the following terms:

     one-electron contribution =    -219.94943859 Ry
     hartree contribution      =     114.07163682 Ry
     xc contribution           =     -66.19375515 Ry
     ewald contribution        =    -111.41700508 Ry
     smearing contrib. (-TS)   =      -0.00004249 Ry

     convergence has been achieved in  76 iterations

     negative rho (up, down):  8.947E-02 0.000E+00

     Forces acting on atoms (cartesian axes, Ry/au):

     atom    1 type  1   force =     0.00000000    0.00000000   -0.00282582
     atom    2 type  2   force =     0.00000000    0.00000000   -0.02832552
     atom    3 type  3   force =     0.00000000    0.00000000    0.03411795
     atom    4 type  3   force =     0.00000000    0.00000000   -0.00148331
     atom    5 type  3   force =     0.00000000    0.00000000   -0.00148331
     The non-local contrib.  to forces
     atom    1 type  1   force =     0.00000000    0.00000000    0.00232558
     atom    2 type  2   force =     0.00000000    0.00000000    0.00115462
     atom    3 type  3   force =     0.00000000    0.00000000    0.13936621
     atom    4 type  3   force =     0.00000000    0.00000000   -0.01489181
     atom    5 type  3   force =     0.00000000    0.00000000   -0.01489181
     The ionic contribution  to forces
     atom    1 type  1   force =    -0.00000000   -0.00000000    0.01052750
     atom    2 type  2   force =     0.00000000    0.00000000    0.40776546
     atom    3 type  3   force =     0.00000000    0.00000000   -0.79047943
     atom    4 type  3   force =    -0.00000000   -0.00000000    0.18609323
     atom    5 type  3   force =    -0.00000000   -0.00000000    0.18609323
     The local contribution  to forces
     atom    1 type  1   force =    -0.00000000   -0.00000000   -0.01566088
     atom    2 type  2   force =     0.00000000    0.00000000   -0.43830795
     atom    3 type  3   force =     0.00000000    0.00000000    0.68657331
     atom    4 type  3   force =     0.00000000    0.00000000   -0.17281564
     atom    5 type  3   force =     0.00000000    0.00000000   -0.17281564
     The core correction contribution to forces
     atom    1 type  1   force =     0.00000000    0.00000000    0.00000087
     atom    2 type  2   force =    -0.00000000   -0.00000000    0.00108182
     atom    3 type  3   force =    -0.00000000   -0.00000000   -0.00132339
     atom    4 type  3   force =     0.00000000    0.00000000    0.00014991
     atom    5 type  3   force =    -0.00000000    0.00000000    0.00014991
     The Hubbard contrib.    to forces
     atom    1 type  1   force =     0.00000000    0.00000000    0.00000000
     atom    2 type  2   force =     0.00000000    0.00000000    0.00000000
     atom    3 type  3   force =     0.00000000    0.00000000    0.00000000
     atom    4 type  3   force =     0.00000000    0.00000000    0.00000000
     atom    5 type  3   force =     0.00000000    0.00000000    0.00000000
     The SCF correction term to forces
     atom    1 type  1   force =     0.00000000   -0.00000000   -0.00000032
     atom    2 type  2   force =    -0.00000000   -0.00000000   -0.00000091
     atom    3 type  3   force =     0.00000000   -0.00000000   -0.00000019
     atom    4 type  3   force =     0.00000000    0.00000000   -0.00000043
     atom    5 type  3   force =     0.00000000    0.00000000   -0.00000043

     Total force =     0.044483     Total SCF correction =     0.000001

     number of scf cycles    =   2
     number of bfgs steps    =   1

     energy   old            =    -437.6996870805 Ry
     energy   new            =    -283.4886044846 Ry

     CASE: energy  _new > energy  _old


 %%%%%%%%%%%%%%%%%%%%%%%%%%%%%%%%%%%%%%%%%%%%%%%%%%%%%%%%%%%%%%%%%%%%%%%%%%%%%%
     Error in routine bfgs (1):
     dE0s is positive which should never happen
 %%%%%%%%%%%%%%%%%%%%%%%%%%%%%%%%%%%%%%%%%%%%%%%%%%%%%%%%%%%%%%%%%%%%%%%%%%%%%%

     stopping ...
