
     Program PWSCF v.6.3MaX starts on 21Mar2019 at  2:30:38 

     This program is part of the open-source Quantum ESPRESSO suite
     for quantum simulation of materials; please cite
         "P. Giannozzi et al., J. Phys.:Condens. Matter 21 395502 (2009);
         "P. Giannozzi et al., J. Phys.:Condens. Matter 29 465901 (2017);
          URL http://www.quantum-espresso.org", 
     in publications or presentations arising from this work. More details at
     http://www.quantum-espresso.org/quote

     Parallel version (MPI & OpenMP), running on      20 processor cores
     Number of MPI processes:                20
     Threads/MPI process:                     1

     MPI processes distributed on     1 nodes
     R & G space division:  proc/nbgrp/npool/nimage =      20
     Reading input from /home/azadoks/dftman/projects/ABO3 Tetragonal/PBSJobs/BaTiO399vcrelax_718075d1c7ff/pwscf.in
Warning: card &CELL ignored
Warning: card / ignored

     Current dimensions of program PWSCF are:
     Max number of different atomic species (ntypx) = 10
     Max number of k-points (npk) =  40000
     Max angular momentum in pseudopotentials (lmaxx) =  3
     Message from routine iosys:
     minimal I/O required, wf_collect reset to FALSE

     Subspace diagonalization in iterative solution of the eigenvalue problem:
     one sub-group per band group will be used
     scalapack distributed-memory algorithm (size of sub-group:  3*  3 procs)

 
     Parallelization info
     --------------------
     sticks:   dense  smooth     PW     G-vecs:    dense   smooth      PW
     Min         162     162     44                 7014     7014    1006
     Max         163     163     45                 7019     7019    1009
     Sum        3249    3249    885               140329   140329   20133
 


     bravais-lattice index     =            0
     lattice parameter (alat)  =      14.3001  a.u.
     unit-cell volume          =    2937.5888 (a.u.)^3
     number of atoms/cell      =            5
     number of atomic types    =            3
     number of electrons       =        40.00
     number of Kohn-Sham states=           24
     kinetic-energy cutoff     =      50.0000  Ry
     charge density cutoff     =     200.0000  Ry
     convergence threshold     =      1.0E-08
     mixing beta               =       0.7000
     number of iterations used =            8  plain     mixing
     Exchange-correlation      =  SLA  PW   PBX  PBC ( 1  4  3  4 0 0)
     nstep                     =           50


     celldm(1)=  14.300125  celldm(2)=   0.000000  celldm(3)=   0.000000
     celldm(4)=   0.000000  celldm(5)=   0.000000  celldm(6)=   0.000000

     crystal axes: (cart. coord. in units of alat)
               a(1) = (   1.000000   0.000000   0.000000 )  
               a(2) = (   0.000000   1.000000   0.000000 )  
               a(3) = (   0.000000   0.000000   1.004550 )  

     reciprocal axes: (cart. coord. in units 2 pi/alat)
               b(1) = (  1.000000  0.000000  0.000000 )  
               b(2) = (  0.000000  1.000000  0.000000 )  
               b(3) = (  0.000000  0.000000  0.995471 )  


     PseudoPot. # 1 for Ba read from file:
     /home/azadoks/.local/share/pseudo/GBRV_PBE_US/ba_pbe_v1.uspp.F.UPF
     MD5 check sum: 3380f63c22b3abf76d74aa74136bb909
     Pseudo is Ultrasoft + core correction, Zval = 10.0
     Generated by new atomic code, or converted to UPF format
     Using radial grid of  907 points,  7 beta functions with: 
                l(1) =   0
                l(2) =   0
                l(3) =   1
                l(4) =   1
                l(5) =   2
                l(6) =   2
                l(7) =   3
     Q(r) pseudized with  6 coefficients,  rinner =    1.700   1.700   1.700
                                                       1.700   1.700   1.700
                                                       1.700

     PseudoPot. # 2 for O  read from file:
     /home/azadoks/.local/share/pseudo/GBRV_PBE_US/o_pbe_v1.2.uspp.F.UPF
     MD5 check sum: 734c27235a0248c51dbae37a1fbe46ec
     Pseudo is Ultrasoft + core correction, Zval =  6.0
     Generated by new atomic code, or converted to UPF format
     Using radial grid of  737 points,  5 beta functions with: 
                l(1) =   0
                l(2) =   0
                l(3) =   1
                l(4) =   1
                l(5) =   2
     Q(r) pseudized with  8 coefficients,  rinner =    0.900   0.900   0.900
                                                       0.900   0.900

     PseudoPot. # 3 for Ti read from file:
     /home/azadoks/.local/share/pseudo/GBRV_PBE_US/ti_pbe_v1.4.uspp.F.UPF
     MD5 check sum: 88a00a6731bd790ddea75d31a80cb452
     Pseudo is Ultrasoft + core correction, Zval = 12.0
     Generated by new atomic code, or converted to UPF format
     Using radial grid of  851 points,  6 beta functions with: 
                l(1) =   0
                l(2) =   0
                l(3) =   1
                l(4) =   1
                l(5) =   2
                l(6) =   2
     Q(r) pseudized with  6 coefficients,  rinner =    1.000   1.000   1.000
                                                       1.000   1.000

     atomic species   valence    mass     pseudopotential
        Ba            10.00   137.32700     Ba( 1.00)
        O              6.00    15.99940     O ( 1.00)
        Ti            12.00    47.86700     Ti( 1.00)

      8 Sym. Ops. (no inversion) found


                                    s                        frac. trans.

      isym =  1     identity                                     

 cryst.   s( 1) = (     1          0          0      )
                  (     0          1          0      )
                  (     0          0          1      )

 cart.    s( 1) = (  1.0000000  0.0000000  0.0000000 )
                  (  0.0000000  1.0000000  0.0000000 )
                  (  0.0000000  0.0000000  1.0000000 )


      isym =  2     180 deg rotation - cart. axis [0,0,1]        

 cryst.   s( 2) = (    -1          0          0      )
                  (     0         -1          0      )
                  (     0          0          1      )

 cart.    s( 2) = ( -1.0000000  0.0000000  0.0000000 )
                  (  0.0000000 -1.0000000  0.0000000 )
                  (  0.0000000  0.0000000  1.0000000 )


      isym =  3      90 deg rotation - cart. axis [0,0,-1]       

 cryst.   s( 3) = (     0         -1          0      )
                  (     1          0          0      )
                  (     0          0          1      )

 cart.    s( 3) = (  0.0000000  1.0000000  0.0000000 )
                  ( -1.0000000  0.0000000  0.0000000 )
                  (  0.0000000  0.0000000  1.0000000 )


      isym =  4      90 deg rotation - cart. axis [0,0,1]        

 cryst.   s( 4) = (     0          1          0      )
                  (    -1          0          0      )
                  (     0          0          1      )

 cart.    s( 4) = (  0.0000000 -1.0000000  0.0000000 )
                  (  1.0000000  0.0000000  0.0000000 )
                  (  0.0000000  0.0000000  1.0000000 )


      isym =  5     inv. 180 deg rotation - cart. axis [0,1,0]   

 cryst.   s( 5) = (     1          0          0      )
                  (     0         -1          0      )
                  (     0          0          1      )

 cart.    s( 5) = (  1.0000000  0.0000000  0.0000000 )
                  (  0.0000000 -1.0000000  0.0000000 )
                  (  0.0000000  0.0000000  1.0000000 )


      isym =  6     inv. 180 deg rotation - cart. axis [1,0,0]   

 cryst.   s( 6) = (    -1          0          0      )
                  (     0          1          0      )
                  (     0          0          1      )

 cart.    s( 6) = ( -1.0000000  0.0000000  0.0000000 )
                  (  0.0000000  1.0000000  0.0000000 )
                  (  0.0000000  0.0000000  1.0000000 )


      isym =  7     inv. 180 deg rotation - cart. axis [1,1,0]   

 cryst.   s( 7) = (     0         -1          0      )
                  (    -1          0          0      )
                  (     0          0          1      )

 cart.    s( 7) = (  0.0000000 -1.0000000  0.0000000 )
                  ( -1.0000000  0.0000000  0.0000000 )
                  (  0.0000000  0.0000000  1.0000000 )


      isym =  8     inv. 180 deg rotation - cart. axis [1,-1,0]  

 cryst.   s( 8) = (     0          1          0      )
                  (     1          0          0      )
                  (     0          0          1      )

 cart.    s( 8) = (  0.0000000  1.0000000  0.0000000 )
                  (  1.0000000  0.0000000  0.0000000 )
                  (  0.0000000  0.0000000  1.0000000 )


   Cartesian axes

     site n.     atom                  positions (alat units)
         1           Ba  tau(   1) = (   0.0000000   0.0000000   0.0000000  )
         2           Ti  tau(   2) = (   0.5000000   0.5000000   0.4841931  )
         3           O   tau(   3) = (   0.5000000   0.5000000   0.0160728  )
         4           O   tau(   4) = (   0.5000000   0.0000000   0.5173432  )
         5           O   tau(   5) = (   0.0000000   0.5000000   0.5173432  )

   Crystallographic axes

     site n.     atom                  positions (cryst. coord.)
         1           Ba  tau(   1) = (  0.0000000  0.0000000  0.0000000  )
         2           Ti  tau(   2) = (  0.5000000  0.5000000  0.4820000  )
         3           O   tau(   3) = (  0.5000000  0.5000000  0.0160000  )
         4           O   tau(   4) = (  0.5000000  0.0000000  0.5150000  )
         5           O   tau(   5) = (  0.0000000  0.5000000  0.5150000  )

     number of k points=    75  Marzari-Vanderbilt smearing, width (Ry)=  0.0010
                       cart. coord. in units 2pi/alat
        k(    1) = (   0.0000000   0.0000000   0.0000000), wk =   0.0027435
        k(    2) = (   0.0000000   0.0000000   0.1106078), wk =   0.0054870
        k(    3) = (   0.0000000   0.0000000   0.2212157), wk =   0.0054870
        k(    4) = (   0.0000000   0.0000000   0.3318235), wk =   0.0054870
        k(    5) = (   0.0000000   0.0000000   0.4424314), wk =   0.0054870
        k(    6) = (   0.0000000   0.1111111   0.0000000), wk =   0.0109739
        k(    7) = (   0.0000000   0.1111111   0.1106078), wk =   0.0219479
        k(    8) = (   0.0000000   0.1111111   0.2212157), wk =   0.0219479
        k(    9) = (   0.0000000   0.1111111   0.3318235), wk =   0.0219479
        k(   10) = (   0.0000000   0.1111111   0.4424314), wk =   0.0219479
        k(   11) = (   0.0000000   0.2222222   0.0000000), wk =   0.0109739
        k(   12) = (   0.0000000   0.2222222   0.1106078), wk =   0.0219479
        k(   13) = (   0.0000000   0.2222222   0.2212157), wk =   0.0219479
        k(   14) = (   0.0000000   0.2222222   0.3318235), wk =   0.0219479
        k(   15) = (   0.0000000   0.2222222   0.4424314), wk =   0.0219479
        k(   16) = (   0.0000000   0.3333333   0.0000000), wk =   0.0109739
        k(   17) = (   0.0000000   0.3333333   0.1106078), wk =   0.0219479
        k(   18) = (   0.0000000   0.3333333   0.2212157), wk =   0.0219479
        k(   19) = (   0.0000000   0.3333333   0.3318235), wk =   0.0219479
        k(   20) = (   0.0000000   0.3333333   0.4424314), wk =   0.0219479
        k(   21) = (   0.0000000   0.4444444   0.0000000), wk =   0.0109739
        k(   22) = (   0.0000000   0.4444444   0.1106078), wk =   0.0219479
        k(   23) = (   0.0000000   0.4444444   0.2212157), wk =   0.0219479
        k(   24) = (   0.0000000   0.4444444   0.3318235), wk =   0.0219479
        k(   25) = (   0.0000000   0.4444444   0.4424314), wk =   0.0219479
        k(   26) = (   0.1111111   0.1111111   0.0000000), wk =   0.0109739
        k(   27) = (   0.1111111   0.1111111   0.1106078), wk =   0.0219479
        k(   28) = (   0.1111111   0.1111111   0.2212157), wk =   0.0219479
        k(   29) = (   0.1111111   0.1111111   0.3318235), wk =   0.0219479
        k(   30) = (   0.1111111   0.1111111   0.4424314), wk =   0.0219479
        k(   31) = (   0.1111111   0.2222222   0.0000000), wk =   0.0219479
        k(   32) = (   0.1111111   0.2222222   0.1106078), wk =   0.0438957
        k(   33) = (   0.1111111   0.2222222   0.2212157), wk =   0.0438957
        k(   34) = (   0.1111111   0.2222222   0.3318235), wk =   0.0438957
        k(   35) = (   0.1111111   0.2222222   0.4424314), wk =   0.0438957
        k(   36) = (   0.1111111   0.3333333   0.0000000), wk =   0.0219479
        k(   37) = (   0.1111111   0.3333333   0.1106078), wk =   0.0438957
        k(   38) = (   0.1111111   0.3333333   0.2212157), wk =   0.0438957
        k(   39) = (   0.1111111   0.3333333   0.3318235), wk =   0.0438957
        k(   40) = (   0.1111111   0.3333333   0.4424314), wk =   0.0438957
        k(   41) = (   0.1111111   0.4444444   0.0000000), wk =   0.0219479
        k(   42) = (   0.1111111   0.4444444   0.1106078), wk =   0.0438957
        k(   43) = (   0.1111111   0.4444444   0.2212157), wk =   0.0438957
        k(   44) = (   0.1111111   0.4444444   0.3318235), wk =   0.0438957
        k(   45) = (   0.1111111   0.4444444   0.4424314), wk =   0.0438957
        k(   46) = (   0.2222222   0.2222222   0.0000000), wk =   0.0109739
        k(   47) = (   0.2222222   0.2222222   0.1106078), wk =   0.0219479
        k(   48) = (   0.2222222   0.2222222   0.2212157), wk =   0.0219479
        k(   49) = (   0.2222222   0.2222222   0.3318235), wk =   0.0219479
        k(   50) = (   0.2222222   0.2222222   0.4424314), wk =   0.0219479
        k(   51) = (   0.2222222   0.3333333   0.0000000), wk =   0.0219479
        k(   52) = (   0.2222222   0.3333333   0.1106078), wk =   0.0438957
        k(   53) = (   0.2222222   0.3333333   0.2212157), wk =   0.0438957
        k(   54) = (   0.2222222   0.3333333   0.3318235), wk =   0.0438957
        k(   55) = (   0.2222222   0.3333333   0.4424314), wk =   0.0438957
        k(   56) = (   0.2222222   0.4444444   0.0000000), wk =   0.0219479
        k(   57) = (   0.2222222   0.4444444   0.1106078), wk =   0.0438957
        k(   58) = (   0.2222222   0.4444444   0.2212157), wk =   0.0438957
        k(   59) = (   0.2222222   0.4444444   0.3318235), wk =   0.0438957
        k(   60) = (   0.2222222   0.4444444   0.4424314), wk =   0.0438957
        k(   61) = (   0.3333333   0.3333333   0.0000000), wk =   0.0109739
        k(   62) = (   0.3333333   0.3333333   0.1106078), wk =   0.0219479
        k(   63) = (   0.3333333   0.3333333   0.2212157), wk =   0.0219479
        k(   64) = (   0.3333333   0.3333333   0.3318235), wk =   0.0219479
        k(   65) = (   0.3333333   0.3333333   0.4424314), wk =   0.0219479
        k(   66) = (   0.3333333   0.4444444   0.0000000), wk =   0.0219479
        k(   67) = (   0.3333333   0.4444444   0.1106078), wk =   0.0438957
        k(   68) = (   0.3333333   0.4444444   0.2212157), wk =   0.0438957
        k(   69) = (   0.3333333   0.4444444   0.3318235), wk =   0.0438957
        k(   70) = (   0.3333333   0.4444444   0.4424314), wk =   0.0438957
        k(   71) = (   0.4444444   0.4444444   0.0000000), wk =   0.0109739
        k(   72) = (   0.4444444   0.4444444   0.1106078), wk =   0.0219479
        k(   73) = (   0.4444444   0.4444444   0.2212157), wk =   0.0219479
        k(   74) = (   0.4444444   0.4444444   0.3318235), wk =   0.0219479
        k(   75) = (   0.4444444   0.4444444   0.4424314), wk =   0.0219479

                       cryst. coord.
        k(    1) = (   0.0000000   0.0000000   0.0000000), wk =   0.0027435
        k(    2) = (   0.0000000   0.0000000   0.1111111), wk =   0.0054870
        k(    3) = (   0.0000000   0.0000000   0.2222222), wk =   0.0054870
        k(    4) = (   0.0000000   0.0000000   0.3333333), wk =   0.0054870
        k(    5) = (   0.0000000   0.0000000   0.4444444), wk =   0.0054870
        k(    6) = (   0.0000000   0.1111111   0.0000000), wk =   0.0109739
        k(    7) = (   0.0000000   0.1111111   0.1111111), wk =   0.0219479
        k(    8) = (   0.0000000   0.1111111   0.2222222), wk =   0.0219479
        k(    9) = (   0.0000000   0.1111111   0.3333333), wk =   0.0219479
        k(   10) = (   0.0000000   0.1111111   0.4444444), wk =   0.0219479
        k(   11) = (   0.0000000   0.2222222   0.0000000), wk =   0.0109739
        k(   12) = (   0.0000000   0.2222222   0.1111111), wk =   0.0219479
        k(   13) = (   0.0000000   0.2222222   0.2222222), wk =   0.0219479
        k(   14) = (   0.0000000   0.2222222   0.3333333), wk =   0.0219479
        k(   15) = (   0.0000000   0.2222222   0.4444444), wk =   0.0219479
        k(   16) = (   0.0000000   0.3333333   0.0000000), wk =   0.0109739
        k(   17) = (   0.0000000   0.3333333   0.1111111), wk =   0.0219479
        k(   18) = (   0.0000000   0.3333333   0.2222222), wk =   0.0219479
        k(   19) = (   0.0000000   0.3333333   0.3333333), wk =   0.0219479
        k(   20) = (   0.0000000   0.3333333   0.4444444), wk =   0.0219479
        k(   21) = (   0.0000000   0.4444444   0.0000000), wk =   0.0109739
        k(   22) = (   0.0000000   0.4444444   0.1111111), wk =   0.0219479
        k(   23) = (   0.0000000   0.4444444   0.2222222), wk =   0.0219479
        k(   24) = (   0.0000000   0.4444444   0.3333333), wk =   0.0219479
        k(   25) = (   0.0000000   0.4444444   0.4444444), wk =   0.0219479
        k(   26) = (   0.1111111   0.1111111   0.0000000), wk =   0.0109739
        k(   27) = (   0.1111111   0.1111111   0.1111111), wk =   0.0219479
        k(   28) = (   0.1111111   0.1111111   0.2222222), wk =   0.0219479
        k(   29) = (   0.1111111   0.1111111   0.3333333), wk =   0.0219479
        k(   30) = (   0.1111111   0.1111111   0.4444444), wk =   0.0219479
        k(   31) = (   0.1111111   0.2222222   0.0000000), wk =   0.0219479
        k(   32) = (   0.1111111   0.2222222   0.1111111), wk =   0.0438957
        k(   33) = (   0.1111111   0.2222222   0.2222222), wk =   0.0438957
        k(   34) = (   0.1111111   0.2222222   0.3333333), wk =   0.0438957
        k(   35) = (   0.1111111   0.2222222   0.4444444), wk =   0.0438957
        k(   36) = (   0.1111111   0.3333333   0.0000000), wk =   0.0219479
        k(   37) = (   0.1111111   0.3333333   0.1111111), wk =   0.0438957
        k(   38) = (   0.1111111   0.3333333   0.2222222), wk =   0.0438957
        k(   39) = (   0.1111111   0.3333333   0.3333333), wk =   0.0438957
        k(   40) = (   0.1111111   0.3333333   0.4444444), wk =   0.0438957
        k(   41) = (   0.1111111   0.4444444   0.0000000), wk =   0.0219479
        k(   42) = (   0.1111111   0.4444444   0.1111111), wk =   0.0438957
        k(   43) = (   0.1111111   0.4444444   0.2222222), wk =   0.0438957
        k(   44) = (   0.1111111   0.4444444   0.3333333), wk =   0.0438957
        k(   45) = (   0.1111111   0.4444444   0.4444444), wk =   0.0438957
        k(   46) = (   0.2222222   0.2222222   0.0000000), wk =   0.0109739
        k(   47) = (   0.2222222   0.2222222   0.1111111), wk =   0.0219479
        k(   48) = (   0.2222222   0.2222222   0.2222222), wk =   0.0219479
        k(   49) = (   0.2222222   0.2222222   0.3333333), wk =   0.0219479
        k(   50) = (   0.2222222   0.2222222   0.4444444), wk =   0.0219479
        k(   51) = (   0.2222222   0.3333333   0.0000000), wk =   0.0219479
        k(   52) = (   0.2222222   0.3333333   0.1111111), wk =   0.0438957
        k(   53) = (   0.2222222   0.3333333   0.2222222), wk =   0.0438957
        k(   54) = (   0.2222222   0.3333333   0.3333333), wk =   0.0438957
        k(   55) = (   0.2222222   0.3333333   0.4444444), wk =   0.0438957
        k(   56) = (   0.2222222   0.4444444   0.0000000), wk =   0.0219479
        k(   57) = (   0.2222222   0.4444444   0.1111111), wk =   0.0438957
        k(   58) = (   0.2222222   0.4444444   0.2222222), wk =   0.0438957
        k(   59) = (   0.2222222   0.4444444   0.3333333), wk =   0.0438957
        k(   60) = (   0.2222222   0.4444444   0.4444444), wk =   0.0438957
        k(   61) = (   0.3333333   0.3333333   0.0000000), wk =   0.0109739
        k(   62) = (   0.3333333   0.3333333   0.1111111), wk =   0.0219479
        k(   63) = (   0.3333333   0.3333333   0.2222222), wk =   0.0219479
        k(   64) = (   0.3333333   0.3333333   0.3333333), wk =   0.0219479
        k(   65) = (   0.3333333   0.3333333   0.4444444), wk =   0.0219479
        k(   66) = (   0.3333333   0.4444444   0.0000000), wk =   0.0219479
        k(   67) = (   0.3333333   0.4444444   0.1111111), wk =   0.0438957
        k(   68) = (   0.3333333   0.4444444   0.2222222), wk =   0.0438957
        k(   69) = (   0.3333333   0.4444444   0.3333333), wk =   0.0438957
        k(   70) = (   0.3333333   0.4444444   0.4444444), wk =   0.0438957
        k(   71) = (   0.4444444   0.4444444   0.0000000), wk =   0.0109739
        k(   72) = (   0.4444444   0.4444444   0.1111111), wk =   0.0219479
        k(   73) = (   0.4444444   0.4444444   0.2222222), wk =   0.0219479
        k(   74) = (   0.4444444   0.4444444   0.3333333), wk =   0.0219479
        k(   75) = (   0.4444444   0.4444444   0.4444444), wk =   0.0219479

     Dense  grid:   140329 G-vectors     FFT dimensions: (  72,  72,  72)

     Dynamical RAM for                 wfc:       0.32 MB

     Dynamical RAM for     wfc (w. buffer):      24.38 MB

     Dynamical RAM for           str. fact:       0.32 MB

     Dynamical RAM for           local pot:       0.00 MB

     Dynamical RAM for          nlocal pot:       1.10 MB

     Dynamical RAM for                qrad:      14.45 MB

     Dynamical RAM for          rho,v,vnew:       0.80 MB

     Dynamical RAM for               rhoin:       0.27 MB

     Dynamical RAM for            rho*nmix:       1.71 MB

     Dynamical RAM for           G-vectors:       0.45 MB

     Dynamical RAM for          h,s,v(r/c):       0.05 MB

     Dynamical RAM for          <psi|beta>:       0.03 MB

     Dynamical RAM for                 psi:       1.28 MB

     Dynamical RAM for                hpsi:       1.28 MB

     Dynamical RAM for                spsi:       1.28 MB

     Dynamical RAM for      wfcinit/wfcrot:       0.96 MB

     Dynamical RAM for           addusdens:      38.00 MB

     Dynamical RAM for          addusforce:      39.17 MB

     Estimated static dynamical RAM per process >      44.70 MB

     Estimated max dynamical RAM per process >      83.87 MB

     Estimated total dynamical RAM >       1.64 GB

     Check: negative/imaginary core charge=   -0.000002    0.000000

     Initial potential from superposition of free atoms
     Check: negative starting charge=   -0.096261

     starting charge   38.98495, renormalised to   40.00000

     negative rho (up, down):  9.877E-02 0.000E+00
     Starting wfcs are   35 randomized atomic wfcs

     total cpu time spent up to now is        3.1 secs

     Self-consistent Calculation

     iteration #  1     ecut=    50.00 Ry     beta= 0.70
     Davidson diagonalization with overlap
     ethr =  1.00E-02,  avg # of iterations =  1.0

     negative rho (up, down):  8.995E-02 0.000E+00

     total cpu time spent up to now is        7.4 secs

     total energy              =    -278.30669311 Ry
     Harris-Foulkes estimate   =    -285.51897484 Ry
     estimated scf accuracy    <       8.41488730 Ry

     iteration #  2     ecut=    50.00 Ry     beta= 0.70
     Davidson diagonalization with overlap
     ethr =  1.00E-02,  avg # of iterations =  4.0

     negative rho (up, down):  9.154E-02 0.000E+00

     total cpu time spent up to now is       15.1 secs

     total energy              =    -282.35914540 Ry
     Harris-Foulkes estimate   =    -297.19933054 Ry
     estimated scf accuracy    <      40.22921062 Ry

     iteration #  3     ecut=    50.00 Ry     beta= 0.70
     Davidson diagonalization with overlap
     ethr =  1.00E-02,  avg # of iterations =  2.2

     negative rho (up, down):  9.191E-02 0.000E+00

     total cpu time spent up to now is       20.9 secs

     total energy              =    -286.10795985 Ry
     Harris-Foulkes estimate   =    -287.20068525 Ry
     estimated scf accuracy    <       6.99607721 Ry

     iteration #  4     ecut=    50.00 Ry     beta= 0.70
     Davidson diagonalization with overlap
     ethr =  1.00E-02,  avg # of iterations =  1.7

     negative rho (up, down):  9.204E-02 0.000E+00

     total cpu time spent up to now is       25.7 secs

     total energy              =    -285.66657003 Ry
     Harris-Foulkes estimate   =    -286.56582722 Ry
     estimated scf accuracy    <       5.67641724 Ry

     iteration #  5     ecut=    50.00 Ry     beta= 0.70
     Davidson diagonalization with overlap
     ethr =  1.00E-02,  avg # of iterations =  1.0

     negative rho (up, down):  9.214E-02 0.000E+00

     total cpu time spent up to now is       30.2 secs

     total energy              =    -284.76828614 Ry
     Harris-Foulkes estimate   =    -285.70312205 Ry
     estimated scf accuracy    <       4.24688387 Ry

     iteration #  6     ecut=    50.00 Ry     beta= 0.70
     Davidson diagonalization with overlap
     ethr =  1.00E-02,  avg # of iterations =  2.9

     negative rho (up, down):  9.287E-02 0.000E+00

     total cpu time spent up to now is       35.6 secs

     total energy              =    -285.12833034 Ry
     Harris-Foulkes estimate   =    -284.98739387 Ry
     estimated scf accuracy    <       2.58942290 Ry

     iteration #  7     ecut=    50.00 Ry     beta= 0.70
     Davidson diagonalization with overlap
     ethr =  6.47E-03,  avg # of iterations =  2.0

     negative rho (up, down):  9.384E-02 0.000E+00

     total cpu time spent up to now is       41.0 secs

     total energy              =    -285.55399677 Ry
     Harris-Foulkes estimate   =    -286.11084234 Ry
     estimated scf accuracy    <       6.05582220 Ry

     iteration #  8     ecut=    50.00 Ry     beta= 0.70
     Davidson diagonalization with overlap
     ethr =  6.47E-03,  avg # of iterations =  1.1

     negative rho (up, down):  9.399E-02 0.000E+00

     total cpu time spent up to now is       45.5 secs

     total energy              =    -285.10305039 Ry
     Harris-Foulkes estimate   =    -285.58015836 Ry
     estimated scf accuracy    <       4.92629166 Ry

     iteration #  9     ecut=    50.00 Ry     beta= 0.70
     Davidson diagonalization with overlap
     ethr =  6.47E-03,  avg # of iterations =  4.9

     negative rho (up, down):  9.379E-02 0.000E+00

     total cpu time spent up to now is       52.3 secs

     total energy              =    -285.81374444 Ry
     Harris-Foulkes estimate   =    -286.14809483 Ry
     estimated scf accuracy    <      17.76966865 Ry

     iteration # 10     ecut=    50.00 Ry     beta= 0.70
     Davidson diagonalization with overlap
     ethr =  6.47E-03,  avg # of iterations =  2.2

     negative rho (up, down):  9.377E-02 0.000E+00

     total cpu time spent up to now is       57.4 secs

     total energy              =    -286.46700448 Ry
     Harris-Foulkes estimate   =    -285.89517025 Ry
     estimated scf accuracy    <      18.81917765 Ry

     iteration # 11     ecut=    50.00 Ry     beta= 0.70
     Davidson diagonalization with overlap
     ethr =  6.47E-03,  avg # of iterations =  2.1

     negative rho (up, down):  9.323E-02 0.000E+00

     total cpu time spent up to now is       62.7 secs

     total energy              =    -285.62608403 Ry
     Harris-Foulkes estimate   =    -286.87872237 Ry
     estimated scf accuracy    <      24.26778982 Ry

     iteration # 12     ecut=    50.00 Ry     beta= 0.70
     Davidson diagonalization with overlap
     ethr =  6.47E-03,  avg # of iterations =  1.2

     negative rho (up, down):  9.304E-02 0.000E+00

     total cpu time spent up to now is       67.3 secs

     total energy              =    -285.12645697 Ry
     Harris-Foulkes estimate   =    -285.70148183 Ry
     estimated scf accuracy    <      20.34524247 Ry

     iteration # 13     ecut=    50.00 Ry     beta= 0.70
     Davidson diagonalization with overlap
     ethr =  6.47E-03,  avg # of iterations =  1.0

     negative rho (up, down):  9.300E-02 0.000E+00

     total cpu time spent up to now is       71.8 secs

     total energy              =    -285.19901291 Ry
     Harris-Foulkes estimate   =    -285.20008837 Ry
     estimated scf accuracy    <      11.98462392 Ry

     iteration # 14     ecut=    50.00 Ry     beta= 0.70
     Davidson diagonalization with overlap
     ethr =  6.47E-03,  avg # of iterations =  1.0

     negative rho (up, down):  9.285E-02 0.000E+00

     total cpu time spent up to now is       76.3 secs

     total energy              =    -284.84889008 Ry
     Harris-Foulkes estimate   =    -285.20517144 Ry
     estimated scf accuracy    <      13.43469972 Ry

     iteration # 15     ecut=    50.00 Ry     beta= 0.70
     Davidson diagonalization with overlap
     ethr =  6.47E-03,  avg # of iterations =  1.0

     negative rho (up, down):  9.189E-02 0.000E+00

     total cpu time spent up to now is       80.8 secs

     total energy              =    -285.15728965 Ry
     Harris-Foulkes estimate   =    -285.06737756 Ry
     estimated scf accuracy    <       0.77550466 Ry

     iteration # 16     ecut=    50.00 Ry     beta= 0.70
     Davidson diagonalization with overlap
     ethr =  1.94E-03,  avg # of iterations =  8.3

     negative rho (up, down):  8.922E-02 0.000E+00

     total cpu time spent up to now is       91.6 secs

     total energy              =    -284.41658598 Ry
     Harris-Foulkes estimate   =    -286.07521030 Ry
     estimated scf accuracy    <      26.47826177 Ry

     iteration # 17     ecut=    50.00 Ry     beta= 0.70
     Davidson diagonalization with overlap
     ethr =  1.94E-03,  avg # of iterations =  5.0

     negative rho (up, down):  9.003E-02 0.000E+00

     total cpu time spent up to now is       98.2 secs

     total energy              =    -285.03343127 Ry
     Harris-Foulkes estimate   =    -285.23113472 Ry
     estimated scf accuracy    <       3.10489787 Ry

     iteration # 18     ecut=    50.00 Ry     beta= 0.70
     Davidson diagonalization with overlap
     ethr =  1.94E-03,  avg # of iterations =  3.2

     negative rho (up, down):  8.980E-02 0.000E+00

     total cpu time spent up to now is      103.8 secs

     total energy              =    -284.82523837 Ry
     Harris-Foulkes estimate   =    -285.11842949 Ry
     estimated scf accuracy    <       2.05780512 Ry

     iteration # 19     ecut=    50.00 Ry     beta= 0.70
     Davidson diagonalization with overlap
     ethr =  1.94E-03,  avg # of iterations =  8.2

     negative rho (up, down):  8.915E-02 0.000E+00

     total cpu time spent up to now is      113.8 secs

     total energy              =    -284.93035217 Ry
     Harris-Foulkes estimate   =    -285.46306785 Ry
     estimated scf accuracy    <      18.91314223 Ry

     iteration # 20     ecut=    50.00 Ry     beta= 0.70
     Davidson diagonalization with overlap
     ethr =  1.94E-03,  avg # of iterations =  1.0

     negative rho (up, down):  8.839E-02 0.000E+00

     total cpu time spent up to now is      118.3 secs

     total energy              =    -285.06426194 Ry
     Harris-Foulkes estimate   =    -285.06911286 Ry
     estimated scf accuracy    <       0.23903202 Ry

     iteration # 21     ecut=    50.00 Ry     beta= 0.70
     Davidson diagonalization with overlap
     ethr =  5.98E-04,  avg # of iterations =  2.6

     negative rho (up, down):  8.811E-02 0.000E+00

     total cpu time spent up to now is      123.6 secs

     total energy              =    -285.07005486 Ry
     Harris-Foulkes estimate   =    -285.07290207 Ry
     estimated scf accuracy    <       0.11456087 Ry

     iteration # 22     ecut=    50.00 Ry     beta= 0.70
     Davidson diagonalization with overlap
     ethr =  2.86E-04,  avg # of iterations =  2.5

     negative rho (up, down):  8.826E-02 0.000E+00

     total cpu time spent up to now is      128.9 secs

     total energy              =    -285.07283583 Ry
     Harris-Foulkes estimate   =    -285.09607356 Ry
     estimated scf accuracy    <       0.67297214 Ry

     iteration # 23     ecut=    50.00 Ry     beta= 0.70
     Davidson diagonalization with overlap
     ethr =  2.86E-04,  avg # of iterations =  1.1

     negative rho (up, down):  8.865E-02 0.000E+00

     total cpu time spent up to now is      133.5 secs

     total energy              =    -285.06996279 Ry
     Harris-Foulkes estimate   =    -285.07873533 Ry
     estimated scf accuracy    <       0.19871997 Ry

     iteration # 24     ecut=    50.00 Ry     beta= 0.70
     Davidson diagonalization with overlap
     ethr =  2.86E-04,  avg # of iterations =  1.1

     negative rho (up, down):  8.680E-02 0.000E+00

     total cpu time spent up to now is      138.1 secs

     total energy              =    -285.04977023 Ry
     Harris-Foulkes estimate   =    -285.07836504 Ry
     estimated scf accuracy    <       0.60875822 Ry

     iteration # 25     ecut=    50.00 Ry     beta= 0.70
     Davidson diagonalization with overlap
     ethr =  2.86E-04,  avg # of iterations =  2.3

     negative rho (up, down):  8.824E-02 0.000E+00

     total cpu time spent up to now is      143.4 secs

     total energy              =    -285.05735048 Ry
     Harris-Foulkes estimate   =    -285.09598480 Ry
     estimated scf accuracy    <       0.38989788 Ry

     iteration # 26     ecut=    50.00 Ry     beta= 0.70
     Davidson diagonalization with overlap
     ethr =  2.86E-04,  avg # of iterations =  4.3

     negative rho (up, down):  8.901E-02 0.000E+00

     total cpu time spent up to now is      150.1 secs

     total energy              =    -285.06464502 Ry
     Harris-Foulkes estimate   =    -285.16142239 Ry
     estimated scf accuracy    <      15.86281584 Ry

     iteration # 27     ecut=    50.00 Ry     beta= 0.70
     Davidson diagonalization with overlap
     ethr =  2.86E-04,  avg # of iterations =  1.0

     negative rho (up, down):  9.019E-02 0.000E+00

     total cpu time spent up to now is      154.6 secs

     total energy              =    -285.04801434 Ry
     Harris-Foulkes estimate   =    -285.09081056 Ry
     estimated scf accuracy    <       2.82114841 Ry

     iteration # 28     ecut=    50.00 Ry     beta= 0.70
     Davidson diagonalization with overlap
     ethr =  2.86E-04,  avg # of iterations =  6.9

     negative rho (up, down):  8.881E-02 0.000E+00

     total cpu time spent up to now is      163.6 secs

     total energy              =    -284.96611031 Ry
     Harris-Foulkes estimate   =    -285.11614692 Ry
     estimated scf accuracy    <       1.41922028 Ry

     iteration # 29     ecut=    50.00 Ry     beta= 0.70
     Davidson diagonalization with overlap
     ethr =  2.86E-04,  avg # of iterations =  6.4

     negative rho (up, down):  8.935E-02 0.000E+00

     total cpu time spent up to now is      172.4 secs

     total energy              =    -285.08673229 Ry
     Harris-Foulkes estimate   =    -285.08691907 Ry
     estimated scf accuracy    <       0.07604235 Ry

     iteration # 30     ecut=    50.00 Ry     beta= 0.70
     Davidson diagonalization with overlap
     ethr =  1.90E-04,  avg # of iterations =  1.3

     negative rho (up, down):  8.940E-02 0.000E+00

     total cpu time spent up to now is      177.1 secs

     total energy              =    -285.09148820 Ry
     Harris-Foulkes estimate   =    -285.09002935 Ry
     estimated scf accuracy    <       0.33499430 Ry

     iteration # 31     ecut=    50.00 Ry     beta= 0.70
     Davidson diagonalization with overlap
     ethr =  1.90E-04,  avg # of iterations =  1.0

     negative rho (up, down):  8.957E-02 0.000E+00

     total cpu time spent up to now is      181.6 secs

     total energy              =    -285.08769655 Ry
     Harris-Foulkes estimate   =    -285.09206095 Ry
     estimated scf accuracy    <       0.48228219 Ry

     iteration # 32     ecut=    50.00 Ry     beta= 0.70
     Davidson diagonalization with overlap
     ethr =  1.90E-04,  avg # of iterations =  1.0

     negative rho (up, down):  9.000E-02 0.000E+00

     total cpu time spent up to now is      186.0 secs

     total energy              =    -285.08602093 Ry
     Harris-Foulkes estimate   =    -285.08830381 Ry
     estimated scf accuracy    <       0.29768858 Ry

     iteration # 33     ecut=    50.00 Ry     beta= 0.70
     Davidson diagonalization with overlap
     ethr =  1.90E-04,  avg # of iterations =  1.0

     negative rho (up, down):  8.920E-02 0.000E+00

     total cpu time spent up to now is      190.6 secs

     total energy              =    -285.09050169 Ry
     Harris-Foulkes estimate   =    -285.08644642 Ry
     estimated scf accuracy    <       0.22864155 Ry

     iteration # 34     ecut=    50.00 Ry     beta= 0.70
     Davidson diagonalization with overlap
     ethr =  1.90E-04,  avg # of iterations =  1.0

     negative rho (up, down):  8.906E-02 0.000E+00

     total cpu time spent up to now is      195.1 secs

     total energy              =    -285.09435661 Ry
     Harris-Foulkes estimate   =    -285.09137299 Ry
     estimated scf accuracy    <       0.42834614 Ry

     iteration # 35     ecut=    50.00 Ry     beta= 0.70
     Davidson diagonalization with overlap
     ethr =  1.90E-04,  avg # of iterations =  1.1

     negative rho (up, down):  8.920E-02 0.000E+00

     total cpu time spent up to now is      199.6 secs

     total energy              =    -285.09214770 Ry
     Harris-Foulkes estimate   =    -285.09548111 Ry
     estimated scf accuracy    <       0.59170375 Ry

     iteration # 36     ecut=    50.00 Ry     beta= 0.70
     Davidson diagonalization with overlap
     ethr =  1.90E-04,  avg # of iterations =  1.1

     negative rho (up, down):  9.062E-02 0.000E+00

     total cpu time spent up to now is      204.2 secs

     total energy              =    -285.07337977 Ry
     Harris-Foulkes estimate   =    -285.09239334 Ry
     estimated scf accuracy    <       0.49147183 Ry

     iteration # 37     ecut=    50.00 Ry     beta= 0.70
     Davidson diagonalization with overlap
     ethr =  1.90E-04,  avg # of iterations =  1.3

     negative rho (up, down):  9.097E-02 0.000E+00

     total cpu time spent up to now is      208.8 secs

     total energy              =    -285.07612100 Ry
     Harris-Foulkes estimate   =    -285.08863673 Ry
     estimated scf accuracy    <       0.97629521 Ry

     iteration # 38     ecut=    50.00 Ry     beta= 0.70
     Davidson diagonalization with overlap
     ethr =  1.90E-04,  avg # of iterations =  1.0

     negative rho (up, down):  9.114E-02 0.000E+00

     total cpu time spent up to now is      213.3 secs

     total energy              =    -285.08339866 Ry
     Harris-Foulkes estimate   =    -285.08368155 Ry
     estimated scf accuracy    <       0.00377316 Ry

     iteration # 39     ecut=    50.00 Ry     beta= 0.70
     Davidson diagonalization with overlap
     c_bands:  1 eigenvalues not converged
     c_bands:  1 eigenvalues not converged
     c_bands:  1 eigenvalues not converged
     ethr =  9.43E-06,  avg # of iterations =  7.5

     negative rho (up, down):  9.090E-02 0.000E+00

     total cpu time spent up to now is      223.6 secs

     total energy              =    -285.08631625 Ry
     Harris-Foulkes estimate   =    -285.08713331 Ry
     estimated scf accuracy    <       0.04090857 Ry

     iteration # 40     ecut=    50.00 Ry     beta= 0.70
     Davidson diagonalization with overlap
     ethr =  9.43E-06,  avg # of iterations =  1.2

     negative rho (up, down):  9.108E-02 0.000E+00

     total cpu time spent up to now is      228.2 secs

     total energy              =    -285.08731563 Ry
     Harris-Foulkes estimate   =    -285.08638157 Ry
     estimated scf accuracy    <       0.04748718 Ry

     iteration # 41     ecut=    50.00 Ry     beta= 0.70
     Davidson diagonalization with overlap
     ethr =  9.43E-06,  avg # of iterations =  1.0

     negative rho (up, down):  9.066E-02 0.000E+00

     total cpu time spent up to now is      232.7 secs

     total energy              =    -285.08483247 Ry
     Harris-Foulkes estimate   =    -285.08736488 Ry
     estimated scf accuracy    <       0.07634899 Ry

     iteration # 42     ecut=    50.00 Ry     beta= 0.70
     Davidson diagonalization with overlap
     ethr =  9.43E-06,  avg # of iterations =  4.7

     negative rho (up, down):  8.973E-02 0.000E+00

     total cpu time spent up to now is      240.0 secs

     total energy              =    -285.08609521 Ry
     Harris-Foulkes estimate   =    -285.08620806 Ry
     estimated scf accuracy    <       0.11103797 Ry

     iteration # 43     ecut=    50.00 Ry     beta= 0.70
     Davidson diagonalization with overlap
     ethr =  9.43E-06,  avg # of iterations =  5.0

     negative rho (up, down):  8.921E-02 0.000E+00

     total cpu time spent up to now is      247.9 secs

     total energy              =    -285.09047329 Ry
     Harris-Foulkes estimate   =    -285.08820370 Ry
     estimated scf accuracy    <       0.03053521 Ry

     iteration # 44     ecut=    50.00 Ry     beta= 0.70
     Davidson diagonalization with overlap
     ethr =  9.43E-06,  avg # of iterations =  2.9

     negative rho (up, down):  8.922E-02 0.000E+00

     total cpu time spent up to now is      253.4 secs

     total energy              =    -285.09031609 Ry
     Harris-Foulkes estimate   =    -285.09089035 Ry
     estimated scf accuracy    <       0.02482156 Ry

     iteration # 45     ecut=    50.00 Ry     beta= 0.70
     Davidson diagonalization with overlap
     ethr =  9.43E-06,  avg # of iterations =  1.0

     negative rho (up, down):  8.996E-02 0.000E+00

     total cpu time spent up to now is      257.9 secs

     total energy              =    -285.08409407 Ry
     Harris-Foulkes estimate   =    -285.09037616 Ry
     estimated scf accuracy    <       0.02455554 Ry

     iteration # 46     ecut=    50.00 Ry     beta= 0.70
     Davidson diagonalization with overlap
     ethr =  9.43E-06,  avg # of iterations =  4.9

     negative rho (up, down):  9.030E-02 0.000E+00

     total cpu time spent up to now is      265.5 secs

     total energy              =    -285.08510363 Ry
     Harris-Foulkes estimate   =    -285.08576765 Ry
     estimated scf accuracy    <       0.00311341 Ry

     iteration # 47     ecut=    50.00 Ry     beta= 0.70
     Davidson diagonalization with overlap
     ethr =  7.78E-06,  avg # of iterations =  4.2

     negative rho (up, down):  9.026E-02 0.000E+00

     total cpu time spent up to now is      272.2 secs

     total energy              =    -285.08557061 Ry
     Harris-Foulkes estimate   =    -285.08571820 Ry
     estimated scf accuracy    <       0.00332362 Ry

     iteration # 48     ecut=    50.00 Ry     beta= 0.70
     Davidson diagonalization with overlap
     ethr =  7.78E-06,  avg # of iterations =  1.0

     negative rho (up, down):  9.018E-02 0.000E+00

     total cpu time spent up to now is      276.7 secs

     total energy              =    -285.08527451 Ry
     Harris-Foulkes estimate   =    -285.08560869 Ry
     estimated scf accuracy    <       0.00355979 Ry

     iteration # 49     ecut=    50.00 Ry     beta= 0.70
     Davidson diagonalization with overlap
     ethr =  7.78E-06,  avg # of iterations =  4.2

     negative rho (up, down):  9.032E-02 0.000E+00

     total cpu time spent up to now is      283.3 secs

     total energy              =    -285.08579876 Ry
     Harris-Foulkes estimate   =    -285.08578501 Ry
     estimated scf accuracy    <       0.00164137 Ry

     iteration # 50     ecut=    50.00 Ry     beta= 0.70
     Davidson diagonalization with overlap
     ethr =  4.10E-06,  avg # of iterations =  1.1

     negative rho (up, down):  9.040E-02 0.000E+00

     total cpu time spent up to now is      287.8 secs

     total energy              =    -285.08581295 Ry
     Harris-Foulkes estimate   =    -285.08581890 Ry
     estimated scf accuracy    <       0.00130982 Ry

     iteration # 51     ecut=    50.00 Ry     beta= 0.70
     Davidson diagonalization with overlap
     ethr =  3.27E-06,  avg # of iterations =  1.0

     negative rho (up, down):  9.031E-02 0.000E+00

     total cpu time spent up to now is      292.4 secs

     total energy              =    -285.08596052 Ry
     Harris-Foulkes estimate   =    -285.08582601 Ry
     estimated scf accuracy    <       0.00127477 Ry

     iteration # 52     ecut=    50.00 Ry     beta= 0.70
     Davidson diagonalization with overlap
     ethr =  3.19E-06,  avg # of iterations =  1.1

     negative rho (up, down):  9.037E-02 0.000E+00

     total cpu time spent up to now is      296.9 secs

     total energy              =    -285.08583142 Ry
     Harris-Foulkes estimate   =    -285.08598319 Ry
     estimated scf accuracy    <       0.00207000 Ry

     iteration # 53     ecut=    50.00 Ry     beta= 0.70
     Davidson diagonalization with overlap
     ethr =  3.19E-06,  avg # of iterations =  1.0

     negative rho (up, down):  9.037E-02 0.000E+00

     total cpu time spent up to now is      301.4 secs

     total energy              =    -285.08595618 Ry
     Harris-Foulkes estimate   =    -285.08584414 Ry
     estimated scf accuracy    <       0.00152605 Ry

     iteration # 54     ecut=    50.00 Ry     beta= 0.70
     Davidson diagonalization with overlap
     ethr =  3.19E-06,  avg # of iterations =  1.0

     negative rho (up, down):  9.053E-02 0.000E+00

     total cpu time spent up to now is      305.9 secs

     total energy              =    -285.08560883 Ry
     Harris-Foulkes estimate   =    -285.08596988 Ry
     estimated scf accuracy    <       0.00198339 Ry

     iteration # 55     ecut=    50.00 Ry     beta= 0.70
     Davidson diagonalization with overlap
     ethr =  3.19E-06,  avg # of iterations =  1.1

     negative rho (up, down):  9.061E-02 0.000E+00

     total cpu time spent up to now is      310.5 secs

     total energy              =    -285.08536644 Ry
     Harris-Foulkes estimate   =    -285.08563686 Ry
     estimated scf accuracy    <       0.00174763 Ry

     iteration # 56     ecut=    50.00 Ry     beta= 0.70
     Davidson diagonalization with overlap
     ethr =  3.19E-06,  avg # of iterations =  3.9

     negative rho (up, down):  9.058E-02 0.000E+00

     total cpu time spent up to now is      316.8 secs

     total energy              =    -285.08555389 Ry
     Harris-Foulkes estimate   =    -285.08555793 Ry
     estimated scf accuracy    <       0.00002525 Ry

     iteration # 57     ecut=    50.00 Ry     beta= 0.70
     Davidson diagonalization with overlap
     ethr =  6.31E-08,  avg # of iterations =  6.9

     negative rho (up, down):  9.058E-02 0.000E+00

     total cpu time spent up to now is      326.6 secs

     total energy              =    -285.08564242 Ry
     Harris-Foulkes estimate   =    -285.08564335 Ry
     estimated scf accuracy    <       0.00101231 Ry

     iteration # 58     ecut=    50.00 Ry     beta= 0.70
     Davidson diagonalization with overlap
     ethr =  6.31E-08,  avg # of iterations =  1.2

     negative rho (up, down):  9.057E-02 0.000E+00

     total cpu time spent up to now is      331.1 secs

     total energy              =    -285.08564072 Ry
     Harris-Foulkes estimate   =    -285.08564279 Ry
     estimated scf accuracy    <       0.00097393 Ry

     iteration # 59     ecut=    50.00 Ry     beta= 0.70
     Davidson diagonalization with overlap
     ethr =  6.31E-08,  avg # of iterations =  1.0

     negative rho (up, down):  9.058E-02 0.000E+00

     total cpu time spent up to now is      335.6 secs

     total energy              =    -285.08563761 Ry
     Harris-Foulkes estimate   =    -285.08564096 Ry
     estimated scf accuracy    <       0.00074288 Ry

     iteration # 60     ecut=    50.00 Ry     beta= 0.70
     Davidson diagonalization with overlap
     ethr =  6.31E-08,  avg # of iterations =  1.0

     negative rho (up, down):  9.054E-02 0.000E+00

     total cpu time spent up to now is      340.2 secs

     total energy              =    -285.08562220 Ry
     Harris-Foulkes estimate   =    -285.08563818 Ry
     estimated scf accuracy    <       0.00062010 Ry

     iteration # 61     ecut=    50.00 Ry     beta= 0.70
     Davidson diagonalization with overlap
     ethr =  6.31E-08,  avg # of iterations =  4.1

     negative rho (up, down):  9.053E-02 0.000E+00

     total cpu time spent up to now is      346.8 secs

     total energy              =    -285.08563364 Ry
     Harris-Foulkes estimate   =    -285.08563254 Ry
     estimated scf accuracy    <       0.00000573 Ry

     iteration # 62     ecut=    50.00 Ry     beta= 0.70
     Davidson diagonalization with overlap
     ethr =  1.43E-08,  avg # of iterations =  5.0

     negative rho (up, down):  9.053E-02 0.000E+00

     total cpu time spent up to now is      353.7 secs

     total energy              =    -285.08563413 Ry
     Harris-Foulkes estimate   =    -285.08563472 Ry
     estimated scf accuracy    <       0.00002857 Ry

     iteration # 63     ecut=    50.00 Ry     beta= 0.70
     Davidson diagonalization with overlap
     ethr =  1.43E-08,  avg # of iterations =  1.4

     negative rho (up, down):  9.054E-02 0.000E+00

     total cpu time spent up to now is      358.4 secs

     total energy              =    -285.08563219 Ry
     Harris-Foulkes estimate   =    -285.08563445 Ry
     estimated scf accuracy    <       0.00007278 Ry

     iteration # 64     ecut=    50.00 Ry     beta= 0.70
     Davidson diagonalization with overlap
     ethr =  1.43E-08,  avg # of iterations =  2.9

     negative rho (up, down):  9.056E-02 0.000E+00

     total cpu time spent up to now is      363.8 secs

     total energy              =    -285.08563034 Ry
     Harris-Foulkes estimate   =    -285.08563269 Ry
     estimated scf accuracy    <       0.00002554 Ry

     iteration # 65     ecut=    50.00 Ry     beta= 0.70
     Davidson diagonalization with overlap
     ethr =  1.43E-08,  avg # of iterations =  4.7

     negative rho (up, down):  9.055E-02 0.000E+00

     total cpu time spent up to now is      371.1 secs

     total energy              =    -285.08563195 Ry
     Harris-Foulkes estimate   =    -285.08563270 Ry
     estimated scf accuracy    <       0.00000657 Ry

     iteration # 66     ecut=    50.00 Ry     beta= 0.70
     Davidson diagonalization with overlap
     ethr =  1.43E-08,  avg # of iterations =  2.5

     negative rho (up, down):  9.055E-02 0.000E+00

     total cpu time spent up to now is      376.2 secs

     total energy              =    -285.08563200 Ry
     Harris-Foulkes estimate   =    -285.08563214 Ry
     estimated scf accuracy    <       0.00000090 Ry

     iteration # 67     ecut=    50.00 Ry     beta= 0.70
     Davidson diagonalization with overlap
     ethr =  2.26E-09,  avg # of iterations =  5.1

     negative rho (up, down):  9.055E-02 0.000E+00

     total cpu time spent up to now is      383.7 secs

     total energy              =    -285.08563227 Ry
     Harris-Foulkes estimate   =    -285.08563227 Ry
     estimated scf accuracy    <       0.00000009 Ry

     iteration # 68     ecut=    50.00 Ry     beta= 0.70
     Davidson diagonalization with overlap
     c_bands:  1 eigenvalues not converged
     ethr =  2.18E-10,  avg # of iterations =  6.5

     negative rho (up, down):  9.055E-02 0.000E+00

     total cpu time spent up to now is      392.0 secs

     total energy              =    -285.08563230 Ry
     Harris-Foulkes estimate   =    -285.08563232 Ry
     estimated scf accuracy    <       0.00000011 Ry

     iteration # 69     ecut=    50.00 Ry     beta= 0.70
     Davidson diagonalization with overlap
     ethr =  2.18E-10,  avg # of iterations =  1.4

     negative rho (up, down):  9.055E-02 0.000E+00

     total cpu time spent up to now is      396.7 secs

     total energy              =    -285.08563231 Ry
     Harris-Foulkes estimate   =    -285.08563230 Ry
     estimated scf accuracy    <       0.00000007 Ry

     iteration # 70     ecut=    50.00 Ry     beta= 0.70
     Davidson diagonalization with overlap
     ethr =  1.78E-10,  avg # of iterations =  1.0

     negative rho (up, down):  9.055E-02 0.000E+00

     total cpu time spent up to now is      401.2 secs

     total energy              =    -285.08563229 Ry
     Harris-Foulkes estimate   =    -285.08563231 Ry
     estimated scf accuracy    <       0.00000008 Ry

     iteration # 71     ecut=    50.00 Ry     beta= 0.70
     Davidson diagonalization with overlap
     ethr =  1.78E-10,  avg # of iterations =  3.9

     negative rho (up, down):  9.055E-02 0.000E+00

     total cpu time spent up to now is      407.4 secs

     End of self-consistent calculation

          k = 0.0000 0.0000 0.0000 ( 17517 PWs)   bands (ev):

   -59.8711 -36.1269 -36.1269 -36.1201 -33.3923 -18.3733 -18.3733 -18.3722
   -16.1419 -16.1118 -16.1092  -1.9241  -1.8657  -1.8657  -1.6137  -1.6137
    -1.5916  -1.5613  -1.5613  -1.5533  -1.4961  -1.4557  -1.4557  -1.4206

     occupation numbers 
     1.0000   1.0000   1.0000   1.0000   1.0000   1.0000   1.0000   1.0000
     1.0000   1.0000   1.0000   1.0000   1.0000   1.0000   1.0000   1.0000
     1.0000   1.0000   1.0000   1.0009   0.0218   0.0000   0.0000   0.0000

          k = 0.0000 0.0000 0.1106 ( 17489 PWs)   bands (ev):

   -59.8711 -36.1269 -36.1269 -36.1201 -33.3923 -18.3733 -18.3733 -18.3722
   -16.1419 -16.1118 -16.1092  -1.9615  -1.8647  -1.8647  -1.6271  -1.6235
    -1.6235  -1.5644  -1.5644  -1.5575  -1.4959  -1.4457  -1.4457  -1.4207

     occupation numbers 
     1.0000   1.0000   1.0000   1.0000   1.0000   1.0000   1.0000   1.0000
     1.0000   1.0000   1.0000   1.0000   1.0000   1.0000   1.0000   1.0000
     1.0000   1.0000   1.0000   1.0002   0.0206   0.0000   0.0000   0.0000

          k = 0.0000 0.0000 0.2212 ( 17480 PWs)   bands (ev):

   -59.8711 -36.1269 -36.1269 -36.1201 -33.3923 -18.3733 -18.3733 -18.3723
   -16.1418 -16.1119 -16.1092  -2.0416  -1.8620  -1.8620  -1.6761  -1.6456
    -1.6456  -1.5709  -1.5709  -1.5678  -1.4954  -1.4245  -1.4245  -1.4210

     occupation numbers 
     1.0000   1.0000   1.0000   1.0000   1.0000   1.0000   1.0000   1.0000
     1.0000   1.0000   1.0000   1.0000   1.0000   1.0000   1.0000   1.0000
     1.0000   1.0000   1.0000   1.0000   0.0180   0.0000   0.0000   0.0000

          k = 0.0000 0.0000 0.3318 ( 17524 PWs)   bands (ev):

   -59.8711 -36.1269 -36.1269 -36.1201 -33.3923 -18.3733 -18.3733 -18.3723
   -16.1417 -16.1119 -16.1092  -2.1156  -1.8586  -1.8586  -1.7107  -1.6677
    -1.6677  -1.5792  -1.5775  -1.5775  -1.4948  -1.4212  -1.4045  -1.4045

     occupation numbers 
     1.0000   1.0000   1.0000   1.0000   1.0000   1.0000   1.0000   1.0000
     1.0000   1.0000   1.0000   1.0000   1.0000   1.0000   1.0000   1.0000
     1.0000   1.0000   1.0000   1.0000   0.0153   0.0000   0.0000   0.0000

          k = 0.0000 0.0000 0.4424 ( 17508 PWs)   bands (ev):

   -59.8711 -36.1269 -36.1269 -36.1201 -33.3923 -18.3733 -18.3733 -18.3723
   -16.1416 -16.1119 -16.1092  -2.1575  -1.8560  -1.8560  -1.7285  -1.6811
    -1.6811  -1.5865  -1.5815  -1.5815  -1.4213  -1.3930  -1.3930  -1.3419

     occupation numbers 
     1.0000   1.0000   1.0000   1.0000   1.0000   1.0000   1.0000   1.0000
     1.0000   1.0000   1.0000   1.0000   1.0000   1.0000   1.0000   1.0000
     1.0000   1.0000   1.0000   1.0000   0.0000   0.0000   0.0000   0.0000

          k = 0.0000 0.1111 0.0000 ( 17518 PWs)   bands (ev):

   -59.8711 -36.1269 -36.1269 -36.1201 -33.3923 -18.3733 -18.3733 -18.3722
   -16.1419 -16.1117 -16.1093  -1.9317  -1.8992  -1.8645  -1.6465  -1.6156
    -1.5937  -1.5825  -1.5787  -1.5569  -1.4759  -1.4592  -1.4556  -1.4108

     occupation numbers 
     1.0000   1.0000   1.0000   1.0000   1.0000   1.0000   1.0000   1.0000
     1.0000   1.0000   1.0000   1.0000   1.0000   1.0000   1.0000   1.0000
     1.0000   1.0000   1.0000   1.0002   0.0000   0.0000   0.0000   0.0000

          k = 0.0000 0.1111 0.1106 ( 17493 PWs)   bands (ev):

   -59.8711 -36.1269 -36.1269 -36.1201 -33.3923 -18.3733 -18.3733 -18.3722
   -16.1419 -16.1118 -16.1093  -1.9723  -1.8948  -1.8634  -1.6710  -1.6254
    -1.6037  -1.5851  -1.5809  -1.5558  -1.4761  -1.4522  -1.4458  -1.4102

     occupation numbers 
     1.0000   1.0000   1.0000   1.0000   1.0000   1.0000   1.0000   1.0000
     1.0000   1.0000   1.0000   1.0000   1.0000   1.0000   1.0000   1.0000
     1.0000   1.0000   1.0000   1.0003   0.0000   0.0000   0.0000   0.0000

          k = 0.0000 0.1111 0.2212 ( 17501 PWs)   bands (ev):

   -59.8711 -36.1269 -36.1269 -36.1201 -33.3923 -18.3733 -18.3733 -18.3723
   -16.1418 -16.1118 -16.1093  -2.0529  -1.8914  -1.8605  -1.7096  -1.6476
    -1.6267  -1.5906  -1.5841  -1.5597  -1.4766  -1.4340  -1.4248  -1.4063

     occupation numbers 
     1.0000   1.0000   1.0000   1.0000   1.0000   1.0000   1.0000   1.0000
     1.0000   1.0000   1.0000   1.0000   1.0000   1.0000   1.0000   1.0000
     1.0000   1.0000   1.0000   1.0001   0.0000   0.0000   0.0000   0.0000

          k = 0.0000 0.1111 0.3318 ( 17532 PWs)   bands (ev):

   -59.8711 -36.1269 -36.1269 -36.1201 -33.3923 -18.3733 -18.3733 -18.3723
   -16.1417 -16.1118 -16.1093  -2.1265  -1.8890  -1.8568  -1.7391  -1.6698
    -1.6478  -1.5963  -1.5887  -1.5678  -1.4769  -1.4179  -1.4049  -1.4000

     occupation numbers 
     1.0000   1.0000   1.0000   1.0000   1.0000   1.0000   1.0000   1.0000
     1.0000   1.0000   1.0000   1.0000   1.0000   1.0000   1.0000   1.0000
     1.0000   1.0000   1.0000   1.0000   0.0000   0.0000   0.0000   0.0000

          k = 0.0000 0.1111 0.4424 ( 17544 PWs)   bands (ev):

   -59.8711 -36.1269 -36.1269 -36.1201 -33.3923 -18.3733 -18.3733 -18.3723
   -16.1416 -16.1118 -16.1093  -2.1682  -1.8875  -1.8539  -1.7547  -1.6833
    -1.6598  -1.5998  -1.5918  -1.5739  -1.4771  -1.4122  -1.3935  -1.3925

     occupation numbers 
     1.0000   1.0000   1.0000   1.0000   1.0000   1.0000   1.0000   1.0000
     1.0000   1.0000   1.0000   1.0000   1.0000   1.0000   1.0000   1.0000
     1.0000   1.0000   1.0000   1.0000   0.0000   0.0000   0.0000   0.0000

          k = 0.0000 0.2222 0.0000 ( 17508 PWs)   bands (ev):

   -59.8711 -36.1269 -36.1269 -36.1201 -33.3923 -18.3733 -18.3733 -18.3722
   -16.1419 -16.1115 -16.1095  -2.0031  -1.9133  -1.8613  -1.6931  -1.6216
    -1.6177  -1.6154  -1.5877  -1.5695  -1.4572  -1.4428  -1.4355  -1.4044

     occupation numbers 
     1.0000   1.0000   1.0000   1.0000   1.0000   1.0000   1.0000   1.0000
     1.0000   1.0000   1.0000   1.0000   1.0000   1.0000   1.0000   1.0000
     1.0000   1.0000   1.0000   1.0000   0.0000   0.0000   0.0000   0.0000

          k = 0.0000 0.2222 0.1106 ( 17522 PWs)   bands (ev):

   -59.8711 -36.1269 -36.1269 -36.1201 -33.3923 -18.3733 -18.3733 -18.3722
   -16.1418 -16.1115 -16.1095  -2.0273  -1.9248  -1.8600  -1.7160  -1.6302
    -1.6189  -1.6122  -1.5939  -1.5618  -1.4491  -1.4417  -1.4337  -1.4035

     occupation numbers 
     1.0000   1.0000   1.0000   1.0000   1.0000   1.0000   1.0000   1.0000
     1.0000   1.0000   1.0000   1.0000   1.0000   1.0000   1.0000   1.0000
     1.0000   1.0000   1.0000   1.0000   0.0000   0.0000   0.0000   0.0000

          k = 0.0000 0.2222 0.2212 ( 17543 PWs)   bands (ev):

   -59.8711 -36.1269 -36.1269 -36.1201 -33.3923 -18.3733 -18.3733 -18.3723
   -16.1418 -16.1115 -16.1095  -2.0926  -1.9359  -1.8564  -1.7526  -1.6524
    -1.6241  -1.6184  -1.5955  -1.5518  -1.4458  -1.4255  -1.4253  -1.4005

     occupation numbers 
     1.0000   1.0000   1.0000   1.0000   1.0000   1.0000   1.0000   1.0000
     1.0000   1.0000   1.0000   1.0000   1.0000   1.0000   1.0000   1.0000
     1.0000   1.0000   1.0000   1.0014   0.0000   0.0000   0.0000   0.0000

          k = 0.0000 0.2222 0.3318 ( 17529 PWs)   bands (ev):

   -59.8711 -36.1269 -36.1269 -36.1201 -33.3923 -18.3733 -18.3733 -18.3723
   -16.1417 -16.1116 -16.1095  -2.1600  -1.9397  -1.8518  -1.7813  -1.6750
    -1.6295  -1.6278  -1.5966  -1.5494  -1.4464  -1.4131  -1.4059  -1.3963

     occupation numbers 
     1.0000   1.0000   1.0000   1.0000   1.0000   1.0000   1.0000   1.0000
     1.0000   1.0000   1.0000   1.0000   1.0000   1.0000   1.0000   1.0000
     1.0000   1.0000   1.0000   1.0030   0.0000   0.0000   0.0000   0.0000

          k = 0.0000 0.2222 0.4424 ( 17544 PWs)   bands (ev):

   -59.8711 -36.1269 -36.1269 -36.1201 -33.3923 -18.3733 -18.3733 -18.3723
   -16.1416 -16.1116 -16.1095  -2.1994  -1.9408  -1.8483  -1.7966  -1.6888
    -1.6329  -1.6326  -1.5989  -1.5507  -1.4470  -1.4060  -1.3946  -1.3916

     occupation numbers 
     1.0000   1.0000   1.0000   1.0000   1.0000   1.0000   1.0000   1.0000
     1.0000   1.0000   1.0000   1.0000   1.0000   1.0000   1.0000   1.0000
     1.0000   1.0000   1.0000   1.0020   0.0000   0.0000   0.0000   0.0000

          k = 0.0000 0.3333 0.0000 ( 17508 PWs)   bands (ev):

   -59.8711 -36.1269 -36.1269 -36.1201 -33.3923 -18.3734 -18.3733 -18.3722
   -16.1418 -16.1111 -16.1098  -2.0810  -1.9119  -1.8571  -1.7272  -1.6463
    -1.6415  -1.6247  -1.5933  -1.5829  -1.4570  -1.4177  -1.4089  -1.4018

     occupation numbers 
     1.0000   1.0000   1.0000   1.0000   1.0000   1.0000   1.0000   1.0000
     1.0000   1.0000   1.0000   1.0000   1.0000   1.0000   1.0000   1.0000
     1.0000   1.0000   1.0000   1.0000   0.0000   0.0000   0.0000   0.0000

          k = 0.0000 0.3333 0.1106 ( 17527 PWs)   bands (ev):

   -59.8711 -36.1269 -36.1269 -36.1201 -33.3923 -18.3734 -18.3733 -18.3722
   -16.1418 -16.1111 -16.1098  -2.0983  -1.9302  -1.8555  -1.7484  -1.6485
    -1.6347  -1.6332  -1.5957  -1.5726  -1.4476  -1.4182  -1.4096  -1.3991

     occupation numbers 
     1.0000   1.0000   1.0000   1.0000   1.0000   1.0000   1.0000   1.0000
     1.0000   1.0000   1.0000   1.0000   1.0000   1.0000   1.0000   1.0000
     1.0000   1.0000   1.0000   1.0000   0.0000   0.0000   0.0000   0.0000

          k = 0.0000 0.3333 0.2212 ( 17538 PWs)   bands (ev):

   -59.8711 -36.1269 -36.1269 -36.1201 -33.3923 -18.3734 -18.3733 -18.3723
   -16.1418 -16.1112 -16.1098  -2.1476  -1.9570  -1.8511  -1.7848  -1.6585
    -1.6524  -1.6241  -1.5977  -1.5514  -1.4277  -1.4189  -1.4084  -1.3967

     occupation numbers 
     1.0000   1.0000   1.0000   1.0000   1.0000   1.0000   1.0000   1.0000
     1.0000   1.0000   1.0000   1.0000   1.0000   1.0000   1.0000   1.0000
     1.0000   1.0000   1.0000   1.0016   0.0000   0.0000   0.0000   0.0000

          k = 0.0000 0.3333 0.3318 ( 17550 PWs)   bands (ev):

   -59.8711 -36.1269 -36.1269 -36.1201 -33.3923 -18.3733 -18.3733 -18.3723
   -16.1417 -16.1112 -16.1098  -2.2046  -1.9709  -1.8453  -1.8146  -1.6808
    -1.6587  -1.6181  -1.5979  -1.5373  -1.4212  -1.4070  -1.4038  -1.3939

     occupation numbers 
     1.0000   1.0000   1.0000   1.0000   1.0000   1.0000   1.0000   1.0000
     1.0000   1.0000   1.0000   1.0000   1.0000   1.0000   1.0000   1.0000
     1.0000   1.0000   1.0000   1.0463   0.0000   0.0000   0.0000   0.0000

          k = 0.0000 0.3333 0.4424 ( 17543 PWs)   bands (ev):

   -59.8711 -36.1269 -36.1269 -36.1201 -33.3923 -18.3733 -18.3733 -18.3723
   -16.1416 -16.1112 -16.1098  -2.2399  -1.9759  -1.8409  -1.8309  -1.6949
    -1.6625  -1.6128  -1.6000  -1.5322  -1.4218  -1.4006  -1.3957  -1.3901

     occupation numbers 
     1.0000   1.0000   1.0000   1.0000   1.0000   1.0000   1.0000   1.0000
     1.0000   1.0000   1.0000   1.0000   1.0000   1.0000   1.0000   1.0000
     1.0000   1.0000   1.0000   1.0779   0.0000   0.0000   0.0000   0.0000

          k = 0.0000 0.4444 0.0000 ( 17530 PWs)   bands (ev):

   -59.8711 -36.1269 -36.1269 -36.1201 -33.3923 -18.3734 -18.3733 -18.3722
   -16.1418 -16.1107 -16.1102  -2.1250  -1.9102  -1.8540  -1.7451  -1.6626
    -1.6551  -1.6281  -1.5962  -1.5919  -1.4571  -1.4039  -1.4009  -1.3924

     occupation numbers 
     1.0000   1.0000   1.0000   1.0000   1.0000   1.0000   1.0000   1.0000
     1.0000   1.0000   1.0000   1.0000   1.0000   1.0000   1.0000   1.0000
     1.0000   1.0000   1.0000   1.0000   0.0000   0.0000   0.0000   0.0000

          k = 0.0000 0.4444 0.1106 ( 17541 PWs)   bands (ev):

   -59.8711 -36.1269 -36.1269 -36.1201 -33.3923 -18.3734 -18.3733 -18.3722
   -16.1418 -16.1107 -16.1102  -2.1403  -1.9307  -1.8522  -1.7654  -1.6648
    -1.6453  -1.6382  -1.5965  -1.5808  -1.4478  -1.4044  -1.3983  -1.3931

     occupation numbers 
     1.0000   1.0000   1.0000   1.0000   1.0000   1.0000   1.0000   1.0000
     1.0000   1.0000   1.0000   1.0000   1.0000   1.0000   1.0000   1.0000
     1.0000   1.0000   1.0000   1.0000   0.0000   0.0000   0.0000   0.0000

          k = 0.0000 0.4444 0.2212 ( 17546 PWs)   bands (ev):

   -59.8711 -36.1269 -36.1269 -36.1201 -33.3923 -18.3734 -18.3733 -18.3723
   -16.1417 -16.1107 -16.1102  -2.1836  -1.9636  -1.8471  -1.8018  -1.6704
    -1.6607  -1.6286  -1.5991  -1.5538  -1.4275  -1.4057  -1.3973  -1.3933

     occupation numbers 
     1.0000   1.0000   1.0000   1.0000   1.0000   1.0000   1.0000   1.0000
     1.0000   1.0000   1.0000   1.0000   1.0000   1.0000   1.0000   1.0000
     1.0000   1.0000   1.0000   1.0007   0.0000   0.0000   0.0000   0.0000

          k = 0.0000 0.4444 0.3318 ( 17544 PWs)   bands (ev):

   -59.8711 -36.1269 -36.1269 -36.1201 -33.3923 -18.3734 -18.3733 -18.3723
   -16.1417 -16.1107 -16.1102  -2.2350  -1.9830  -1.8404  -1.8326  -1.6841
    -1.6763  -1.6130  -1.5989  -1.5333  -1.4082  -1.4067  -1.3971  -1.3907

     occupation numbers 
     1.0000   1.0000   1.0000   1.0000   1.0000   1.0000   1.0000   1.0000
     1.0000   1.0000   1.0000   1.0000   1.0000   1.0000   1.0000   1.0000
     1.0000   1.0000   1.0000   1.0725   0.0000   0.0000   0.0000   0.0000

          k = 0.0000 0.4444 0.4424 ( 17545 PWs)   bands (ev):

   -59.8711 -36.1269 -36.1269 -36.1201 -33.3923 -18.3734 -18.3733 -18.3723
   -16.1416 -16.1107 -16.1102  -2.2676  -1.9906  -1.8495  -1.8353  -1.6985
    -1.6804  -1.6027  -1.5989  -1.5244  -1.4079  -1.3971  -1.3964  -1.3871

     occupation numbers 
     1.0000   1.0000   1.0000   1.0000   1.0000   1.0000   1.0000   1.0000
     1.0000   1.0000   1.0000   1.0000   1.0000   1.0000   1.0000   1.0000
     1.0000   1.0000   1.0000   1.0268   0.0000   0.0000   0.0000   0.0000

          k = 0.1111 0.1111 0.0000 ( 17513 PWs)   bands (ev):

   -59.8711 -36.1269 -36.1269 -36.1201 -33.3923 -18.3733 -18.3733 -18.3722
   -16.1419 -16.1117 -16.1094  -1.9475  -1.9062  -1.8814  -1.6702  -1.6270
    -1.6133  -1.5922  -1.5627  -1.5575  -1.4756  -1.4572  -1.4554  -1.3735

     occupation numbers 
     1.0000   1.0000   1.0000   1.0000   1.0000   1.0000   1.0000   1.0000
     1.0000   1.0000   1.0000   1.0000   1.0000   1.0000   1.0000   1.0000
     1.0000   1.0000   1.0000   1.0002   0.0000   0.0000   0.0000   0.0000

          k = 0.1111 0.1111 0.1106 ( 17510 PWs)   bands (ev):

   -59.8711 -36.1269 -36.1269 -36.1201 -33.3923 -18.3733 -18.3733 -18.3722
   -16.1419 -16.1117 -16.1094  -1.9862  -1.9031  -1.8806  -1.6907  -1.6390
    -1.6172  -1.5936  -1.5691  -1.5521  -1.4731  -1.4500  -1.4496  -1.3673

     occupation numbers 
     1.0000   1.0000   1.0000   1.0000   1.0000   1.0000   1.0000   1.0000
     1.0000   1.0000   1.0000   1.0000   1.0000   1.0000   1.0000   1.0000
     1.0000   1.0000   1.0000   1.0013   0.0000   0.0000   0.0000   0.0000

          k = 0.1111 0.1111 0.2212 ( 17502 PWs)   bands (ev):

   -59.8711 -36.1269 -36.1269 -36.1201 -33.3923 -18.3733 -18.3733 -18.3723
   -16.1418 -16.1117 -16.1094  -2.0651  -1.9002  -1.8784  -1.7248  -1.6637
    -1.6240  -1.6042  -1.5760  -1.5528  -1.4690  -1.4325  -1.4323  -1.3670

     occupation numbers 
     1.0000   1.0000   1.0000   1.0000   1.0000   1.0000   1.0000   1.0000
     1.0000   1.0000   1.0000   1.0000   1.0000   1.0000   1.0000   1.0000
     1.0000   1.0000   1.0000   1.0010   0.0000   0.0000   0.0000   0.0000

          k = 0.1111 0.1111 0.3318 ( 17528 PWs)   bands (ev):

   -59.8711 -36.1269 -36.1269 -36.1201 -33.3923 -18.3733 -18.3733 -18.3723
   -16.1417 -16.1117 -16.1094  -2.1378  -1.8980  -1.8757  -1.7514  -1.6868
    -1.6315  -1.6174  -1.5815  -1.5594  -1.4672  -1.4146  -1.4122  -1.3664

     occupation numbers 
     1.0000   1.0000   1.0000   1.0000   1.0000   1.0000   1.0000   1.0000
     1.0000   1.0000   1.0000   1.0000   1.0000   1.0000   1.0000   1.0000
     1.0000   1.0000   1.0000   1.0001   0.0000   0.0000   0.0000   0.0000

          k = 0.1111 0.1111 0.4424 ( 17548 PWs)   bands (ev):

   -59.8711 -36.1269 -36.1269 -36.1201 -33.3923 -18.3733 -18.3733 -18.3723
   -16.1416 -16.1117 -16.1094  -2.1790  -1.8967  -1.8736  -1.7655  -1.7003
    -1.6362  -1.6259  -1.5843  -1.5652  -1.4666  -1.4041  -1.3997  -1.3657

     occupation numbers 
     1.0000   1.0000   1.0000   1.0000   1.0000   1.0000   1.0000   1.0000
     1.0000   1.0000   1.0000   1.0000   1.0000   1.0000   1.0000   1.0000
     1.0000   1.0000   1.0000   1.0000   0.0000   0.0000   0.0000   0.0000

          k = 0.1111 0.2222 0.0000 ( 17515 PWs)   bands (ev):

   -59.8711 -36.1269 -36.1269 -36.1201 -33.3923 -18.3733 -18.3733 -18.3722
   -16.1419 -16.1114 -16.1096  -2.0191  -1.9122  -1.8857  -1.7124  -1.6422
    -1.6312  -1.6059  -1.5763  -1.5628  -1.4644  -1.4414  -1.4343  -1.3724

     occupation numbers 
     1.0000   1.0000   1.0000   1.0000   1.0000   1.0000   1.0000   1.0000
     1.0000   1.0000   1.0000   1.0000   1.0000   1.0000   1.0000   1.0000
     1.0000   1.0000   1.0000   1.0000   0.0000   0.0000   0.0000   0.0000

          k = 0.1111 0.2222 0.1106 ( 17523 PWs)   bands (ev):

   -59.8711 -36.1269 -36.1269 -36.1201 -33.3923 -18.3733 -18.3733 -18.3722
   -16.1418 -16.1114 -16.1096  -2.0428  -1.9241  -1.8842  -1.7276  -1.6528
    -1.6430  -1.5949  -1.5799  -1.5559  -1.4583  -1.4395  -1.4314  -1.3561

     occupation numbers 
     1.0000   1.0000   1.0000   1.0000   1.0000   1.0000   1.0000   1.0000
     1.0000   1.0000   1.0000   1.0000   1.0000   1.0000   1.0000   1.0000
     1.0000   1.0000   1.0000   1.0003   0.0000   0.0000   0.0000   0.0000

          k = 0.1111 0.2222 0.2212 ( 17540 PWs)   bands (ev):

   -59.8711 -36.1269 -36.1269 -36.1201 -33.3923 -18.3733 -18.3733 -18.3723
   -16.1418 -16.1115 -16.1096  -2.1060  -1.9365  -1.8813  -1.7568  -1.6738
    -1.6552  -1.5941  -1.5804  -1.5476  -1.4480  -1.4294  -1.4225  -1.3484

     occupation numbers 
     1.0000   1.0000   1.0000   1.0000   1.0000   1.0000   1.0000   1.0000
     1.0000   1.0000   1.0000   1.0000   1.0000   1.0000   1.0000   1.0000
     1.0000   1.0000   1.0000   1.0051   0.0000   0.0000   0.0000   0.0000

          k = 0.1111 0.2222 0.3318 ( 17541 PWs)   bands (ev):

   -59.8711 -36.1269 -36.1269 -36.1201 -33.3923 -18.3733 -18.3733 -18.3723
   -16.1417 -16.1115 -16.1096  -2.1717  -1.9411  -1.8781  -1.7817  -1.6962
    -1.6590  -1.6021  -1.5812  -1.5458  -1.4437  -1.4127  -1.4089  -1.3465

     occupation numbers 
     1.0000   1.0000   1.0000   1.0000   1.0000   1.0000   1.0000   1.0000
     1.0000   1.0000   1.0000   1.0000   1.0000   1.0000   1.0000   1.0000
     1.0000   1.0000   1.0000   1.0081   0.0000   0.0000   0.0000   0.0000

          k = 0.1111 0.2222 0.4424 ( 17555 PWs)   bands (ev):

   -59.8711 -36.1269 -36.1269 -36.1201 -33.3923 -18.3733 -18.3733 -18.3723
   -16.1416 -16.1115 -16.1096  -2.2104  -1.9424  -1.8758  -1.7953  -1.7093
    -1.6597  -1.6084  -1.5830  -1.5474  -1.4425  -1.4013  -1.3991  -1.3459

     occupation numbers 
     1.0000   1.0000   1.0000   1.0000   1.0000   1.0000   1.0000   1.0000
     1.0000   1.0000   1.0000   1.0000   1.0000   1.0000   1.0000   1.0000
     1.0000   1.0000   1.0000   1.0054   0.0000   0.0000   0.0000   0.0000

          k = 0.1111 0.3333 0.0000 ( 17515 PWs)   bands (ev):

   -59.8711 -36.1269 -36.1269 -36.1201 -33.3923 -18.3734 -18.3733 -18.3722
   -16.1418 -16.1111 -16.1099  -2.0946  -1.9111  -1.8837  -1.7441  -1.6641
    -1.6375  -1.6265  -1.5858  -1.5722  -1.4616  -1.4188  -1.4089  -1.3726

     occupation numbers 
     1.0000   1.0000   1.0000   1.0000   1.0000   1.0000   1.0000   1.0000
     1.0000   1.0000   1.0000   1.0000   1.0000   1.0000   1.0000   1.0000
     1.0000   1.0000   1.0000   1.0000   0.0000   0.0000   0.0000   0.0000

          k = 0.1111 0.3333 0.1106 ( 17529 PWs)   bands (ev):

   -59.8711 -36.1269 -36.1269 -36.1201 -33.3923 -18.3734 -18.3733 -18.3722
   -16.1418 -16.1111 -16.1099  -2.1119  -1.9296  -1.8818  -1.7565  -1.6767
    -1.6504  -1.6083  -1.5871  -1.5646  -1.4534  -1.4190  -1.4079  -1.3556

     occupation numbers 
     1.0000   1.0000   1.0000   1.0000   1.0000   1.0000   1.0000   1.0000
     1.0000   1.0000   1.0000   1.0000   1.0000   1.0000   1.0000   1.0000
     1.0000   1.0000   1.0000   1.0000   0.0000   0.0000   0.0000   0.0000

          k = 0.1111 0.3333 0.2212 ( 17537 PWs)   bands (ev):

   -59.8711 -36.1269 -36.1269 -36.1201 -33.3923 -18.3734 -18.3733 -18.3723
   -16.1418 -16.1111 -16.1099  -2.1603  -1.9566  -1.8782  -1.7843  -1.6856
    -1.6742  -1.5959  -1.5843  -1.5485  -1.4351  -1.4181  -1.4049  -1.3448

     occupation numbers 
     1.0000   1.0000   1.0000   1.0000   1.0000   1.0000   1.0000   1.0000
     1.0000   1.0000   1.0000   1.0000   1.0000   1.0000   1.0000   1.0000
     1.0000   1.0000   1.0000   1.0038   0.0000   0.0000   0.0000   0.0000

          k = 0.1111 0.3333 0.3318 ( 17542 PWs)   bands (ev):

   -59.8711 -36.1269 -36.1269 -36.1201 -33.3923 -18.3733 -18.3733 -18.3723
   -16.1417 -16.1111 -16.1099  -2.2161  -1.9710  -1.8742  -1.8102  -1.6994
    -1.6846  -1.5945  -1.5808  -1.5358  -1.4217  -1.4114  -1.3986  -1.3424

     occupation numbers 
     1.0000   1.0000   1.0000   1.0000   1.0000   1.0000   1.0000   1.0000
     1.0000   1.0000   1.0000   1.0000   1.0000   1.0000   1.0000   1.0000
     1.0000   1.0000   1.0000   1.0561   0.0000   0.0000   0.0000   0.0000

          k = 0.1111 0.3333 0.4424 ( 17535 PWs)   bands (ev):

   -59.8711 -36.1269 -36.1269 -36.1201 -33.3923 -18.3733 -18.3733 -18.3723
   -16.1416 -16.1111 -16.1099  -2.2506  -1.9763  -1.8713  -1.8247  -1.7120
    -1.6852  -1.5925  -1.5818  -1.5309  -1.4194  -1.4014  -1.3925  -1.3420

     occupation numbers 
     1.0000   1.0000   1.0000   1.0000   1.0000   1.0000   1.0000   1.0000
     1.0000   1.0000   1.0000   1.0000   1.0000   1.0000   1.0000   1.0000
     1.0000   1.0000   1.0000   1.0823   0.0000   0.0000   0.0000   0.0000

          k = 0.1111 0.4444 0.0000 ( 17541 PWs)   bands (ev):

   -59.8711 -36.1269 -36.1269 -36.1201 -33.3923 -18.3734 -18.3733 -18.3722
   -16.1418 -16.1107 -16.1102  -2.1377  -1.9096  -1.8817  -1.7610  -1.6770
    -1.6411  -1.6395  -1.5900  -1.5792  -1.4610  -1.4050  -1.3928  -1.3736

     occupation numbers 
     1.0000   1.0000   1.0000   1.0000   1.0000   1.0000   1.0000   1.0000
     1.0000   1.0000   1.0000   1.0000   1.0000   1.0000   1.0000   1.0000
     1.0000   1.0000   1.0000   1.0000   0.0000   0.0000   0.0000   0.0000

          k = 0.1111 0.4444 0.1106 ( 17545 PWs)   bands (ev):

   -59.8711 -36.1269 -36.1269 -36.1201 -33.3923 -18.3734 -18.3733 -18.3722
   -16.1418 -16.1107 -16.1102  -2.1531  -1.9303  -1.8797  -1.7721  -1.6910
    -1.6537  -1.6192  -1.5888  -1.5719  -1.4523  -1.4055  -1.3928  -1.3559

     occupation numbers 
     1.0000   1.0000   1.0000   1.0000   1.0000   1.0000   1.0000   1.0000
     1.0000   1.0000   1.0000   1.0000   1.0000   1.0000   1.0000   1.0000
     1.0000   1.0000   1.0000   1.0000   0.0000   0.0000   0.0000   0.0000

          k = 0.1111 0.4444 0.2212 ( 17537 PWs)   bands (ev):

   -59.8711 -36.1269 -36.1269 -36.1201 -33.3923 -18.3734 -18.3733 -18.3723
   -16.1417 -16.1107 -16.1102  -2.1957  -1.9632  -1.8757  -1.7994  -1.6989
    -1.6778  -1.6001  -1.5860  -1.5515  -1.4331  -1.4059  -1.3923  -1.3438

     occupation numbers 
     1.0000   1.0000   1.0000   1.0000   1.0000   1.0000   1.0000   1.0000
     1.0000   1.0000   1.0000   1.0000   1.0000   1.0000   1.0000   1.0000
     1.0000   1.0000   1.0000   1.0016   0.0000   0.0000   0.0000   0.0000

          k = 0.1111 0.4444 0.3318 ( 17528 PWs)   bands (ev):

   -59.8711 -36.1269 -36.1269 -36.1201 -33.3923 -18.3734 -18.3733 -18.3723
   -16.1417 -16.1107 -16.1103  -2.2460  -1.9829  -1.8710  -1.8262  -1.7011
    -1.6988  -1.5901  -1.5826  -1.5324  -1.4141  -1.4054  -1.3896  -1.3417

     occupation numbers 
     1.0000   1.0000   1.0000   1.0000   1.0000   1.0000   1.0000   1.0000
     1.0000   1.0000   1.0000   1.0000   1.0000   1.0000   1.0000   1.0000
     1.0000   1.0000   1.0000   1.0774   0.0000   0.0000   0.0000   0.0000

          k = 0.1111 0.4444 0.4424 ( 17530 PWs)   bands (ev):

   -59.8711 -36.1269 -36.1269 -36.1201 -33.3923 -18.3734 -18.3733 -18.3723
   -16.1416 -16.1107 -16.1103  -2.2780  -1.9907  -1.8676  -1.8415  -1.7130
    -1.7001  -1.5838  -1.5810  -1.5235  -1.4057  -1.4018  -1.3861  -1.3417

     occupation numbers 
     1.0000   1.0000   1.0000   1.0000   1.0000   1.0000   1.0000   1.0000
     1.0000   1.0000   1.0000   1.0000   1.0000   1.0000   1.0000   1.0000
     1.0000   1.0000   1.0000   1.0049   0.0000   0.0000   0.0000   0.0000

          k = 0.2222 0.2222 0.0000 ( 17557 PWs)   bands (ev):

   -59.8711 -36.1269 -36.1269 -36.1201 -33.3923 -18.3733 -18.3733 -18.3722
   -16.1418 -16.1112 -16.1097  -2.0719  -1.9173  -1.9088  -1.7489  -1.6548
    -1.6472  -1.6104  -1.5871  -1.5494  -1.4496  -1.4316  -1.4285  -1.3646

     occupation numbers 
     1.0000   1.0000   1.0000   1.0000   1.0000   1.0000   1.0000   1.0000
     1.0000   1.0000   1.0000   1.0000   1.0000   1.0000   1.0000   1.0000
     1.0000   1.0000   1.0000   1.0030   0.0000   0.0000   0.0000   0.0000

          k = 0.2222 0.2222 0.1106 ( 17547 PWs)   bands (ev):

   -59.8711 -36.1269 -36.1269 -36.1201 -33.3923 -18.3733 -18.3733 -18.3722
   -16.1418 -16.1113 -16.1097  -2.0920  -1.9229  -1.9168  -1.7548  -1.6719
    -1.6649  -1.5947  -1.5776  -1.5469  -1.4473  -1.4280  -1.4254  -1.3300

     occupation numbers 
     1.0000   1.0000   1.0000   1.0000   1.0000   1.0000   1.0000   1.0000
     1.0000   1.0000   1.0000   1.0000   1.0000   1.0000   1.0000   1.0000
     1.0000   1.0000   1.0000   1.0062   0.0000   0.0000   0.0000   0.0000

          k = 0.2222 0.2222 0.2212 ( 17547 PWs)   bands (ev):

   -59.8711 -36.1269 -36.1269 -36.1201 -33.3923 -18.3733 -18.3733 -18.3723
   -16.1418 -16.1113 -16.1097  -2.1462  -1.9422  -1.9156  -1.7703  -1.6950
    -1.6877  -1.5796  -1.5700  -1.5403  -1.4395  -1.4187  -1.4174  -1.2751

     occupation numbers 
     1.0000   1.0000   1.0000   1.0000   1.0000   1.0000   1.0000   1.0000
     1.0000   1.0000   1.0000   1.0000   1.0000   1.0000   1.0000   1.0000
     1.0000   1.0000   1.0000   1.0277   0.0000   0.0000   0.0000   0.0000

          k = 0.2222 0.2222 0.3318 ( 17545 PWs)   bands (ev):

   -59.8711 -36.1269 -36.1269 -36.1201 -33.3923 -18.3733 -18.3733 -18.3723
   -16.1417 -16.1113 -16.1097  -2.2055  -1.9515  -1.9141  -1.7873  -1.7202
    -1.6926  -1.5760  -1.5680  -1.5374  -1.4310  -1.4089  -1.4034  -1.2763

     occupation numbers 
     1.0000   1.0000   1.0000   1.0000   1.0000   1.0000   1.0000   1.0000
     1.0000   1.0000   1.0000   1.0000   1.0000   1.0000   1.0000   1.0000
     1.0000   1.0000   1.0000   1.0455   0.0000   0.0000   0.0000   0.0000

          k = 0.2222 0.2222 0.4424 ( 17524 PWs)   bands (ev):

   -59.8711 -36.1269 -36.1269 -36.1201 -33.3923 -18.3733 -18.3733 -18.3723
   -16.1416 -16.1113 -16.1097  -2.2414  -1.9546  -1.9130  -1.7978  -1.7342
    -1.6930  -1.5776  -1.5670  -1.5383  -1.4275  -1.4002  -1.3936  -1.2772

     occupation numbers 
     1.0000   1.0000   1.0000   1.0000   1.0000   1.0000   1.0000   1.0000
     1.0000   1.0000   1.0000   1.0000   1.0000   1.0000   1.0000   1.0000
     1.0000   1.0000   1.0000   1.0396   0.0000   0.0000   0.0000   0.0000

          k = 0.2222 0.3333 0.0000 ( 17543 PWs)   bands (ev):

   -59.8711 -36.1269 -36.1269 -36.1201 -33.3923 -18.3734 -18.3733 -18.3722
   -16.1418 -16.1110 -16.1100  -2.1358  -1.9291  -1.9051  -1.7786  -1.6706
    -1.6541  -1.6220  -1.5965  -1.5470  -1.4422  -1.4168  -1.4089  -1.3637

     occupation numbers 
     1.0000   1.0000   1.0000   1.0000   1.0000   1.0000   1.0000   1.0000
     1.0000   1.0000   1.0000   1.0000   1.0000   1.0000   1.0000   1.0000
     1.0000   1.0000   1.0000   1.0060   0.0000   0.0000   0.0000   0.0000

          k = 0.2222 0.3333 0.1106 ( 17551 PWs)   bands (ev):

   -59.8711 -36.1269 -36.1269 -36.1201 -33.3923 -18.3734 -18.3733 -18.3722
   -16.1418 -16.1110 -16.1100  -2.1522  -1.9328  -1.9190  -1.7799  -1.6926
    -1.6724  -1.5999  -1.5842  -1.5452  -1.4372  -1.4160  -1.4062  -1.3285

     occupation numbers 
     1.0000   1.0000   1.0000   1.0000   1.0000   1.0000   1.0000   1.0000
     1.0000   1.0000   1.0000   1.0000   1.0000   1.0000   1.0000   1.0000
     1.0000   1.0000   1.0000   1.0095   0.0000   0.0000   0.0000   0.0000

          k = 0.2222 0.3333 0.2212 ( 17544 PWs)   bands (ev):

   -59.8711 -36.1269 -36.1269 -36.1201 -33.3923 -18.3733 -18.3733 -18.3723
   -16.1417 -16.1110 -16.1100  -2.1966  -1.9556  -1.9237  -1.7868  -1.7152
    -1.7016  -1.5754  -1.5683  -1.5388  -1.4260  -1.4116  -1.4012  -1.2694

     occupation numbers 
     1.0000   1.0000   1.0000   1.0000   1.0000   1.0000   1.0000   1.0000
     1.0000   1.0000   1.0000   1.0000   1.0000   1.0000   1.0000   1.0000
     1.0000   1.0000   1.0000   1.0360   0.0000   0.0000   0.0000   0.0000

          k = 0.2222 0.3333 0.3318 ( 17549 PWs)   bands (ev):

   -59.8711 -36.1269 -36.1269 -36.1201 -33.3923 -18.3733 -18.3733 -18.3723
   -16.1417 -16.1110 -16.1100  -2.2479  -1.9719  -1.9227  -1.8002  -1.7292
    -1.7180  -1.5656  -1.5580  -1.5311  -1.4150  -1.4033  -1.3942  -1.2533

     occupation numbers 
     1.0000   1.0000   1.0000   1.0000   1.0000   1.0000   1.0000   1.0000
     1.0000   1.0000   1.0000   1.0000   1.0000   1.0000   1.0000   1.0000
     1.0000   1.0000   1.0001   1.0820   0.0000   0.0000   0.0000   0.0000

          k = 0.2222 0.3333 0.4424 ( 17541 PWs)   bands (ev):

   -59.8711 -36.1269 -36.1269 -36.1201 -33.3923 -18.3733 -18.3733 -18.3723
   -16.1416 -16.1110 -16.1100  -2.2801  -1.9784  -1.9217  -1.8102  -1.7416
    -1.7183  -1.5612  -1.5556  -1.5273  -1.4099  -1.3960  -1.3877  -1.2518

     occupation numbers 
     1.0000   1.0000   1.0000   1.0000   1.0000   1.0000   1.0000   1.0000
     1.0000   1.0000   1.0000   1.0000   1.0000   1.0000   1.0000   1.0000
     1.0000   1.0000   1.0004   1.0718   0.0000   0.0000   0.0000   0.0000

          k = 0.2222 0.4444 0.0000 ( 17561 PWs)   bands (ev):

   -59.8711 -36.1269 -36.1269 -36.1201 -33.3923 -18.3734 -18.3733 -18.3722
   -16.1418 -16.1106 -16.1103  -2.1749  -1.9325  -1.9023  -1.7948  -1.6811
    -1.6570  -1.6305  -1.6008  -1.5489  -1.4411  -1.4054  -1.3935  -1.3648

     occupation numbers 
     1.0000   1.0000   1.0000   1.0000   1.0000   1.0000   1.0000   1.0000
     1.0000   1.0000   1.0000   1.0000   1.0000   1.0000   1.0000   1.0000
     1.0000   1.0000   1.0000   1.0035   0.0000   0.0000   0.0000   0.0000

          k = 0.2222 0.4444 0.1106 ( 17541 PWs)   bands (ev):

   -59.8711 -36.1269 -36.1269 -36.1201 -33.3923 -18.3734 -18.3733 -18.3722
   -16.1418 -16.1106 -16.1103  -2.1896  -1.9370  -1.9172  -1.7940  -1.7051
    -1.6749  -1.6045  -1.5887  -1.5472  -1.4347  -1.4053  -1.3921  -1.3292

     occupation numbers 
     1.0000   1.0000   1.0000   1.0000   1.0000   1.0000   1.0000   1.0000
     1.0000   1.0000   1.0000   1.0000   1.0000   1.0000   1.0000   1.0000
     1.0000   1.0000   1.0000   1.0056   0.0000   0.0000   0.0000   0.0000

          k = 0.2222 0.4444 0.2212 ( 17524 PWs)   bands (ev):

   -59.8711 -36.1269 -36.1269 -36.1201 -33.3923 -18.3734 -18.3733 -18.3723
   -16.1417 -16.1106 -16.1103  -2.2295  -1.9623  -1.9240  -1.7974  -1.7294
    -1.7038  -1.5733  -1.5708  -1.5408  -1.4204  -1.4037  -1.3892  -1.2700

     occupation numbers 
     1.0000   1.0000   1.0000   1.0000   1.0000   1.0000   1.0000   1.0000
     1.0000   1.0000   1.0000   1.0000   1.0000   1.0000   1.0000   1.0000
     1.0000   1.0000   1.0000   1.0255   0.0000   0.0000   0.0000   0.0000

          k = 0.2222 0.4444 0.3318 ( 17531 PWs)   bands (ev):

   -59.8711 -36.1269 -36.1269 -36.1201 -33.3923 -18.3734 -18.3733 -18.3723
   -16.1417 -16.1106 -16.1103  -2.2762  -1.9827  -1.9232  -1.8104  -1.7348
    -1.7272  -1.5603  -1.5556  -1.5291  -1.4050  -1.3999  -1.3855  -1.2502

     occupation numbers 
     1.0000   1.0000   1.0000   1.0000   1.0000   1.0000   1.0000   1.0000
     1.0000   1.0000   1.0000   1.0000   1.0000   1.0000   1.0000   1.0000
     1.0000   1.0001   1.0004   1.0820   0.0000   0.0000   0.0000   0.0000

          k = 0.2222 0.4444 0.4424 ( 17534 PWs)   bands (ev):

   -59.8711 -36.1269 -36.1269 -36.1201 -33.3923 -18.3734 -18.3733 -18.3723
   -16.1416 -16.1106 -16.1103  -2.3062  -1.9913  -1.9221  -1.8212  -1.7407
    -1.7322  -1.5537  -1.5507  -1.5212  -1.3983  -1.3938  -1.3821  -1.2474

     occupation numbers 
     1.0000   1.0000   1.0000   1.0000   1.0000   1.0000   1.0000   1.0000
     1.0000   1.0000   1.0000   1.0000   1.0000   1.0000   1.0000   1.0000
     1.0000   1.0007   1.0020   0.9282   0.0000   0.0000   0.0000   0.0000

          k = 0.3333 0.3333 0.0000 ( 17559 PWs)   bands (ev):

   -59.8711 -36.1269 -36.1269 -36.1201 -33.3923 -18.3733 -18.3733 -18.3722
   -16.1418 -16.1108 -16.1101  -2.1879  -1.9525  -1.9013  -1.8086  -1.6747
    -1.6686  -1.6220  -1.6062  -1.5319  -1.4211  -1.4084  -1.4058  -1.3638

     occupation numbers 
     1.0000   1.0000   1.0000   1.0000   1.0000   1.0000   1.0000   1.0000
     1.0000   1.0000   1.0000   1.0000   1.0000   1.0000   1.0000   1.0000
     1.0000   1.0000   1.0000   1.0792   0.0000   0.0000   0.0000   0.0000

          k = 0.3333 0.3333 0.1106 ( 17548 PWs)   bands (ev):

   -59.8711 -36.1269 -36.1269 -36.1201 -33.3923 -18.3733 -18.3733 -18.3722
   -16.1418 -16.1108 -16.1101  -2.2024  -1.9523  -1.9211  -1.8047  -1.6985
    -1.6895  -1.5995  -1.5872  -1.5312  -1.4180  -1.4059  -1.4030  -1.3262

     occupation numbers 
     1.0000   1.0000   1.0000   1.0000   1.0000   1.0000   1.0000   1.0000
     1.0000   1.0000   1.0000   1.0000   1.0000   1.0000   1.0000   1.0000
     1.0000   1.0000   1.0000   1.0818   0.0000   0.0000   0.0000   0.0000

          k = 0.3333 0.3333 0.2212 ( 17539 PWs)   bands (ev):

   -59.8711 -36.1269 -36.1269 -36.1201 -33.3923 -18.3733 -18.3733 -18.3723
   -16.1417 -16.1108 -16.1101  -2.2414  -1.9548  -1.9518  -1.7964  -1.7290
    -1.7221  -1.5691  -1.5608  -1.5286  -1.4118  -1.3987  -1.3975  -1.2467

     occupation numbers 
     1.0000   1.0000   1.0000   1.0000   1.0000   1.0000   1.0000   1.0000
     1.0000   1.0000   1.0000   1.0000   1.0000   1.0000   1.0000   1.0000
     1.0000   1.0000   1.0000   1.0802   0.0000   0.0000   0.0000   0.0000

          k = 0.3333 0.3333 0.3318 ( 17553 PWs)   bands (ev):

   -59.8711 -36.1269 -36.1269 -36.1201 -33.3923 -18.3733 -18.3733 -18.3723
   -16.1417 -16.1108 -16.1101  -2.2870  -1.9764  -1.9511  -1.7937  -1.7481
    -1.7436  -1.5486  -1.5442  -1.5246  -1.4034  -1.3919  -1.3892  -1.1814

     occupation numbers 
     1.0000   1.0000   1.0000   1.0000   1.0000   1.0000   1.0000   1.0000
     1.0000   1.0000   1.0000   1.0000   1.0000   1.0000   1.0000   1.0000
     1.0000   1.0038   1.0121   1.0314   0.0000   0.0000   0.0000   0.0000

          k = 0.3333 0.3333 0.4424 ( 17544 PWs)   bands (ev):

   -59.8711 -36.1269 -36.1269 -36.1201 -33.3923 -18.3733 -18.3733 -18.3723
   -16.1416 -16.1108 -16.1101  -2.3162  -1.9854  -1.9507  -1.7979  -1.7622
    -1.7441  -1.5395  -1.5370  -1.5221  -1.3975  -1.3877  -1.3821  -1.1821

     occupation numbers 
     1.0000   1.0000   1.0000   1.0000   1.0000   1.0000   1.0000   1.0000
     1.0000   1.0000   1.0000   1.0000   1.0000   1.0000   1.0000   1.0000
     1.0000   1.0325   1.0483   0.9635   0.0000   0.0000   0.0000   0.0000

          k = 0.3333 0.4444 0.0000 ( 17554 PWs)   bands (ev):

   -59.8711 -36.1269 -36.1269 -36.1201 -33.3923 -18.3734 -18.3733 -18.3722
   -16.1418 -16.1105 -16.1103  -2.2217  -1.9612  -1.8981  -1.8252  -1.6826
    -1.6730  -1.6223  -1.6101  -1.5274  -1.4156  -1.4015  -1.3943  -1.3661

     occupation numbers 
     1.0000   1.0000   1.0000   1.0000   1.0000   1.0000   1.0000   1.0000
     1.0000   1.0000   1.0000   1.0000   1.0000   1.0000   1.0000   1.0000
     1.0000   1.0000   1.0000   1.0725   0.0000   0.0000   0.0000   0.0000

          k = 0.3333 0.4444 0.1106 ( 17545 PWs)   bands (ev):

   -59.8711 -36.1269 -36.1269 -36.1201 -33.3923 -18.3734 -18.3733 -18.3722
   -16.1418 -16.1105 -16.1103  -2.2351  -1.9613  -1.9192  -1.8193  -1.7063
    -1.6936  -1.5983  -1.5910  -1.5266  -1.4109  -1.4006  -1.3920  -1.3273

     occupation numbers 
     1.0000   1.0000   1.0000   1.0000   1.0000   1.0000   1.0000   1.0000
     1.0000   1.0000   1.0000   1.0000   1.0000   1.0000   1.0000   1.0000
     1.0000   1.0000   1.0000   1.0645   0.0000   0.0000   0.0000   0.0000

          k = 0.3333 0.4444 0.2212 ( 17536 PWs)   bands (ev):

   -59.8711 -36.1269 -36.1269 -36.1201 -33.3923 -18.3734 -18.3733 -18.3723
   -16.1417 -16.1105 -16.1103  -2.2709  -1.9640  -1.9531  -1.8052  -1.7395
    -1.7255  -1.5649  -1.5613  -1.5244  -1.4021  -1.3967  -1.3870  -1.2451

     occupation numbers 
     1.0000   1.0000   1.0000   1.0000   1.0000   1.0000   1.0000   1.0000
     1.0000   1.0000   1.0000   1.0000   1.0000   1.0000   1.0000   1.0000
     1.0000   1.0000   1.0000   1.0270   0.0000   0.0000   0.0000   0.0000

          k = 0.3333 0.4444 0.3318 ( 17556 PWs)   bands (ev):

   -59.8711 -36.1269 -36.1269 -36.1201 -33.3923 -18.3734 -18.3733 -18.3723
   -16.1417 -16.1105 -16.1103  -2.3131  -1.9830  -1.9585  -1.7952  -1.7587
    -1.7507  -1.5423  -1.5376  -1.5212  -1.3935  -1.3891  -1.3815  -1.1795

     occupation numbers 
     1.0000   1.0000   1.0000   1.0000   1.0000   1.0000   1.0000   1.0000
     1.0000   1.0000   1.0000   1.0000   1.0000   1.0000   1.0000   1.0000
     1.0000   1.0188   1.0437   0.9308   0.0000   0.0000   0.0000   0.0000

          k = 0.3333 0.4444 0.4424 ( 17561 PWs)   bands (ev):

   -59.8711 -36.1269 -36.1269 -36.1201 -33.3923 -18.3734 -18.3733 -18.3723
   -16.1416 -16.1106 -16.1103  -2.3405  -1.9933  -1.9585  -1.7979  -1.7648
    -1.7581  -1.5309  -1.5270  -1.5180  -1.3886  -1.3826  -1.3773  -1.1645

     occupation numbers 
     1.0000   1.0000   1.0000   1.0000   1.0000   1.0000   1.0000   1.0000
     1.0000   1.0000   1.0000   1.0000   1.0000   1.0000   1.0000   1.0000
     1.0000   1.0824   1.0691   0.7883   0.0000   0.0000   0.0000   0.0000

          k = 0.4444 0.4444 0.0000 ( 17548 PWs)   bands (ev):

   -59.8711 -36.1269 -36.1269 -36.1201 -33.3923 -18.3734 -18.3734 -18.3722
   -16.1418 -16.1105 -16.1104  -2.2526  -1.9729  -1.8947  -1.8422  -1.6844
    -1.6838  -1.6162  -1.6134  -1.5188  -1.3994  -1.3964  -1.3937  -1.3698

     occupation numbers 
     1.0000   1.0000   1.0000   1.0000   1.0000   1.0000   1.0000   1.0000
     1.0000   1.0000   1.0000   1.0000   1.0000   1.0000   1.0000   1.0000
     1.0000   1.0000   1.0000   0.8275   0.0000   0.0000   0.0000   0.0000

          k = 0.4444 0.4444 0.1106 ( 17542 PWs)   bands (ev):

   -59.8711 -36.1269 -36.1269 -36.1201 -33.3923 -18.3734 -18.3734 -18.3722
   -16.1418 -16.1105 -16.1104  -2.2651  -1.9728  -1.9173  -1.8344  -1.7059
    -1.7046  -1.5944  -1.5922  -1.5180  -1.3967  -1.3940  -1.3917  -1.3293

     occupation numbers 
     1.0000   1.0000   1.0000   1.0000   1.0000   1.0000   1.0000   1.0000
     1.0000   1.0000   1.0000   1.0000   1.0000   1.0000   1.0000   1.0000
     1.0000   1.0000   1.0000   0.7884   0.0000   0.0000   0.0000   0.0000

          k = 0.4444 0.4444 0.2212 ( 17541 PWs)   bands (ev):

   -59.8711 -36.1269 -36.1269 -36.1201 -33.3923 -18.3734 -18.3734 -18.3723
   -16.1417 -16.1105 -16.1104  -2.2985  -1.9727  -1.9570  -1.8146  -1.7389
    -1.7373  -1.5604  -1.5588  -1.5160  -1.3915  -1.3876  -1.3866  -1.2423

     occupation numbers 
     1.0000   1.0000   1.0000   1.0000   1.0000   1.0000   1.0000   1.0000
     1.0000   1.0000   1.0000   1.0000   1.0000   1.0000   1.0000   1.0000
     1.0000   1.0001   1.0001   0.6805   0.0000   0.0000   0.0000   0.0000

          k = 0.4444 0.4444 0.3318 ( 17570 PWs)   bands (ev):

   -59.8711 -36.1269 -36.1269 -36.1201 -33.3923 -18.3734 -18.3734 -18.3723
   -16.1417 -16.1105 -16.1104  -2.3378  -1.9845  -1.9725  -1.7922  -1.7644
    -1.7633  -1.5337  -1.5324  -1.5137  -1.3855  -1.3798  -1.3796  -1.1630

     occupation numbers 
     1.0000   1.0000   1.0000   1.0000   1.0000   1.0000   1.0000   1.0000
     1.0000   1.0000   1.0000   1.0000   1.0000   1.0000   1.0000   1.0000
     1.0000   1.0704   1.0773   0.5535   0.0000   0.0000   0.0000   0.0000

          k = 0.4444 0.4444 0.4424 ( 17584 PWs)   bands (ev):

   -59.8711 -36.1269 -36.1269 -36.1201 -33.3923 -18.3734 -18.3734 -18.3723
   -16.1416 -16.1105 -16.1104  -2.3635  -1.9966  -1.9724  -1.7833  -1.7773
    -1.7724  -1.5195  -1.5179  -1.5127  -1.3814  -1.3747  -1.3738  -1.1193

     occupation numbers 
     1.0000   1.0000   1.0000   1.0000   1.0000   1.0000   1.0000   1.0000
     1.0000   1.0000   1.0000   1.0000   1.0000   1.0000   1.0000   1.0000
     1.0000   0.8600   0.7813   0.4992   0.0000   0.0000   0.0000   0.0000

     the Fermi energy is    -1.5108 ev

!    total energy              =    -285.08563230 Ry
     Harris-Foulkes estimate   =    -285.08563230 Ry
     estimated scf accuracy    <          1.1E-09 Ry

     The total energy is the sum of the following terms:

     one-electron contribution =    -227.73559804 Ry
     hartree contribution      =     118.07753676 Ry
     xc contribution           =     -66.03524997 Ry
     ewald contribution        =    -109.39244319 Ry
     smearing contrib. (-TS)   =       0.00012214 Ry

     convergence has been achieved in  71 iterations

     negative rho (up, down):  9.055E-02 0.000E+00

     Forces acting on atoms (cartesian axes, Ry/au):

     atom    1 type  1   force =     0.00000000    0.00000000   -0.00319470
     atom    2 type  3   force =     0.00000000    0.00000000   -0.02962095
     atom    3 type  2   force =     0.00000000    0.00000000    0.03490924
     atom    4 type  2   force =     0.00000000    0.00000000   -0.00104679
     atom    5 type  2   force =     0.00000000    0.00000000   -0.00104679
     The non-local contrib.  to forces
     atom    1 type  1   force =     0.00000000    0.00000000    0.00285339
     atom    2 type  3   force =     0.00000000    0.00000000    0.03048767
     atom    3 type  2   force =     0.00000000    0.00000000    0.13963342
     atom    4 type  2   force =     0.00000000    0.00000000   -0.01434224
     atom    5 type  2   force =     0.00000000    0.00000000   -0.01434224
     The ionic contribution  to forces
     atom    1 type  1   force =    -0.00000000   -0.00000000    0.01880609
     atom    2 type  3   force =     0.00000000    0.00000000    0.40588359
     atom    3 type  2   force =     0.00000000    0.00000000   -0.78402139
     atom    4 type  2   force =     0.00000000   -0.00000000    0.17966586
     atom    5 type  2   force =    -0.00000000    0.00000000    0.17966586
     The local contribution  to forces
     atom    1 type  1   force =    -0.00000000   -0.00000000   -0.02491238
     atom    2 type  3   force =     0.00000000    0.00000000   -0.46830059
     atom    3 type  2   force =     0.00000000    0.00000000    0.68059740
     atom    4 type  2   force =     0.00000000    0.00000000   -0.16650350
     atom    5 type  2   force =     0.00000000    0.00000000   -0.16650350
     The core correction contribution to forces
     atom    1 type  1   force =     0.00000000    0.00000000    0.00006413
     atom    2 type  3   force =    -0.00000000   -0.00000000    0.00231409
     atom    3 type  2   force =     0.00000000    0.00000000   -0.00129530
     atom    4 type  2   force =     0.00000000    0.00000000    0.00013767
     atom    5 type  2   force =     0.00000000    0.00000000    0.00013767
     The Hubbard contrib.    to forces
     atom    1 type  1   force =     0.00000000    0.00000000    0.00000000
     atom    2 type  3   force =     0.00000000    0.00000000    0.00000000
     atom    3 type  2   force =     0.00000000    0.00000000    0.00000000
     atom    4 type  2   force =     0.00000000    0.00000000    0.00000000
     atom    5 type  2   force =     0.00000000    0.00000000    0.00000000
     The SCF correction term to forces
     atom    1 type  1   force =     0.00000000    0.00000000   -0.00000133
     atom    2 type  3   force =     0.00000000    0.00000000   -0.00000110
     atom    3 type  2   force =     0.00000000   -0.00000000   -0.00000028
     atom    4 type  2   force =     0.00000000   -0.00000000    0.00000002
     atom    5 type  2   force =    -0.00000000    0.00000000    0.00000002

     Total force =     0.045918     Total SCF correction =     0.000002

     number of scf cycles    =   4
     number of bfgs steps    =   3

     energy   old            =    -437.7000256326 Ry
     energy   new            =    -285.0856322975 Ry

     CASE: energy  _new > energy  _old


 %%%%%%%%%%%%%%%%%%%%%%%%%%%%%%%%%%%%%%%%%%%%%%%%%%%%%%%%%%%%%%%%%%%%%%%%%%%%%%
     Error in routine bfgs (1):
     dE0s is positive which should never happen
 %%%%%%%%%%%%%%%%%%%%%%%%%%%%%%%%%%%%%%%%%%%%%%%%%%%%%%%%%%%%%%%%%%%%%%%%%%%%%%

     stopping ...
