
     Program PWSCF v.6.3MaX starts on  6Feb2019 at 21:43:28 

     This program is part of the open-source Quantum ESPRESSO suite
     for quantum simulation of materials; please cite
         "P. Giannozzi et al., J. Phys.:Condens. Matter 21 395502 (2009);
         "P. Giannozzi et al., J. Phys.:Condens. Matter 29 465901 (2017);
          URL http://www.quantum-espresso.org", 
     in publications or presentations arising from this work. More details at
     http://www.quantum-espresso.org/quote

     Parallel version (MPI & OpenMP), running on      20 processor cores
     Number of MPI processes:                20
     Threads/MPI process:                     1

     MPI processes distributed on     1 nodes
     R & G space division:  proc/nbgrp/npool/nimage =      20
     Reading input from /home/azadoks/dftman/projects/SrTiO3 Convergence/EOSWorkflows/dec041a1a445/70f4c65ccf68/pwscf.in
Warning: card &IONS ignored
Warning: card / ignored
Warning: card &CELL ignored
Warning: card / ignored

     Current dimensions of program PWSCF are:
     Max number of different atomic species (ntypx) = 10
     Max number of k-points (npk) =  40000
     Max angular momentum in pseudopotentials (lmaxx) =  3
     Message from routine iosys:
     minimal I/O required, wf_collect reset to FALSE

     Subspace diagonalization in iterative solution of the eigenvalue problem:
     one sub-group per band group will be used
     scalapack distributed-memory algorithm (size of sub-group:  3*  3 procs)

 
     Parallelization info
     --------------------
     sticks:   dense  smooth     PW     G-vecs:    dense   smooth      PW
     Min          59      59     17                 1527     1527     245
     Max          60      60     18                 1530     1530     250
     Sum        1185    1185    349                30551    30551    4945
 


     bravais-lattice index     =            0
     lattice parameter (alat)  =       8.6149  a.u.
     unit-cell volume          =     639.3712 (a.u.)^3
     number of atoms/cell      =            5
     number of atomic types    =            3
     number of electrons       =        40.00
     number of Kohn-Sham states=           24
     kinetic-energy cutoff     =      50.0000  Ry
     charge density cutoff     =     200.0000  Ry
     convergence threshold     =      1.0E-08
     mixing beta               =       0.7000
     number of iterations used =            8  plain     mixing
     Exchange-correlation      =  SLA  PW   PBX  PBC ( 1  4  3  4 0 0)

     celldm(1)=   8.614916  celldm(2)=   0.000000  celldm(3)=   0.000000
     celldm(4)=   0.000000  celldm(5)=   0.000000  celldm(6)=   0.000000

     crystal axes: (cart. coord. in units of alat)
               a(1) = (   1.000000   0.000000   0.000000 )  
               a(2) = (   0.000000   1.000000   0.000000 )  
               a(3) = (   0.000000   0.000000   1.000000 )  

     reciprocal axes: (cart. coord. in units 2 pi/alat)
               b(1) = (  1.000000  0.000000  0.000000 )  
               b(2) = (  0.000000  1.000000  0.000000 )  
               b(3) = (  0.000000  0.000000  1.000000 )  


     PseudoPot. # 1 for O  read from file:
     /home/azadoks/.local/share/pseudo/GBRV_PBE_US/o_pbe_v1.2.uspp.F.UPF
     MD5 check sum: 734c27235a0248c51dbae37a1fbe46ec
     Pseudo is Ultrasoft + core correction, Zval =  6.0
     Generated by new atomic code, or converted to UPF format
     Using radial grid of  737 points,  5 beta functions with: 
                l(1) =   0
                l(2) =   0
                l(3) =   1
                l(4) =   1
                l(5) =   2
     Q(r) pseudized with  8 coefficients,  rinner =    0.900   0.900   0.900
                                                       0.900   0.900

     PseudoPot. # 2 for Sr read from file:
     /home/azadoks/.local/share/pseudo/GBRV_PBE_US/sr_pbe_v1.uspp.F.UPF
     MD5 check sum: 6b418c05fbe9db5448babca5e47b7a5b
     Pseudo is Ultrasoft + core correction, Zval = 10.0
     Generated by new atomic code, or converted to UPF format
     Using radial grid of  883 points,  6 beta functions with: 
                l(1) =   0
                l(2) =   0
                l(3) =   1
                l(4) =   1
                l(5) =   2
                l(6) =   2
     Q(r) pseudized with  6 coefficients,  rinner =    1.400   1.400   1.400
                                                       1.400   1.400

     PseudoPot. # 3 for Ti read from file:
     /home/azadoks/.local/share/pseudo/GBRV_PBE_US/ti_pbe_v1.4.uspp.F.UPF
     MD5 check sum: 88a00a6731bd790ddea75d31a80cb452
     Pseudo is Ultrasoft + core correction, Zval = 12.0
     Generated by new atomic code, or converted to UPF format
     Using radial grid of  851 points,  6 beta functions with: 
                l(1) =   0
                l(2) =   0
                l(3) =   1
                l(4) =   1
                l(5) =   2
                l(6) =   2
     Q(r) pseudized with  6 coefficients,  rinner =    1.000   1.000   1.000
                                                       1.000   1.000

     atomic species   valence    mass     pseudopotential
        O              6.00    15.99940     O ( 1.00)
        Sr            10.00    87.62000     Sr( 1.00)
        Ti            12.00    47.86700     Ti( 1.00)

     48 Sym. Ops., with inversion, found


                                    s                        frac. trans.

      isym =  1     identity                                     

 cryst.   s( 1) = (     1          0          0      )
                  (     0          1          0      )
                  (     0          0          1      )

 cart.    s( 1) = (  1.0000000  0.0000000  0.0000000 )
                  (  0.0000000  1.0000000  0.0000000 )
                  (  0.0000000  0.0000000  1.0000000 )


      isym =  2     180 deg rotation - cart. axis [0,0,1]        

 cryst.   s( 2) = (    -1          0          0      )
                  (     0         -1          0      )
                  (     0          0          1      )

 cart.    s( 2) = ( -1.0000000  0.0000000  0.0000000 )
                  (  0.0000000 -1.0000000  0.0000000 )
                  (  0.0000000  0.0000000  1.0000000 )


      isym =  3     180 deg rotation - cart. axis [0,1,0]        

 cryst.   s( 3) = (    -1          0          0      )
                  (     0          1          0      )
                  (     0          0         -1      )

 cart.    s( 3) = ( -1.0000000  0.0000000  0.0000000 )
                  (  0.0000000  1.0000000  0.0000000 )
                  (  0.0000000  0.0000000 -1.0000000 )


      isym =  4     180 deg rotation - cart. axis [1,0,0]        

 cryst.   s( 4) = (     1          0          0      )
                  (     0         -1          0      )
                  (     0          0         -1      )

 cart.    s( 4) = (  1.0000000  0.0000000  0.0000000 )
                  (  0.0000000 -1.0000000  0.0000000 )
                  (  0.0000000  0.0000000 -1.0000000 )


      isym =  5     180 deg rotation - cart. axis [1,1,0]        

 cryst.   s( 5) = (     0          1          0      )
                  (     1          0          0      )
                  (     0          0         -1      )

 cart.    s( 5) = (  0.0000000  1.0000000  0.0000000 )
                  (  1.0000000  0.0000000  0.0000000 )
                  (  0.0000000  0.0000000 -1.0000000 )


      isym =  6     180 deg rotation - cart. axis [1,-1,0]       

 cryst.   s( 6) = (     0         -1          0      )
                  (    -1          0          0      )
                  (     0          0         -1      )

 cart.    s( 6) = (  0.0000000 -1.0000000  0.0000000 )
                  ( -1.0000000  0.0000000  0.0000000 )
                  (  0.0000000  0.0000000 -1.0000000 )


      isym =  7      90 deg rotation - cart. axis [0,0,-1]       

 cryst.   s( 7) = (     0         -1          0      )
                  (     1          0          0      )
                  (     0          0          1      )

 cart.    s( 7) = (  0.0000000  1.0000000  0.0000000 )
                  ( -1.0000000  0.0000000  0.0000000 )
                  (  0.0000000  0.0000000  1.0000000 )


      isym =  8      90 deg rotation - cart. axis [0,0,1]        

 cryst.   s( 8) = (     0          1          0      )
                  (    -1          0          0      )
                  (     0          0          1      )

 cart.    s( 8) = (  0.0000000 -1.0000000  0.0000000 )
                  (  1.0000000  0.0000000  0.0000000 )
                  (  0.0000000  0.0000000  1.0000000 )


      isym =  9     180 deg rotation - cart. axis [1,0,1]        

 cryst.   s( 9) = (     0          0          1      )
                  (     0         -1          0      )
                  (     1          0          0      )

 cart.    s( 9) = (  0.0000000  0.0000000  1.0000000 )
                  (  0.0000000 -1.0000000  0.0000000 )
                  (  1.0000000  0.0000000  0.0000000 )


      isym = 10     180 deg rotation - cart. axis [-1,0,1]       

 cryst.   s(10) = (     0          0         -1      )
                  (     0         -1          0      )
                  (    -1          0          0      )

 cart.    s(10) = (  0.0000000  0.0000000 -1.0000000 )
                  (  0.0000000 -1.0000000  0.0000000 )
                  ( -1.0000000  0.0000000  0.0000000 )


      isym = 11      90 deg rotation - cart. axis [0,1,0]        

 cryst.   s(11) = (     0          0         -1      )
                  (     0          1          0      )
                  (     1          0          0      )

 cart.    s(11) = (  0.0000000  0.0000000  1.0000000 )
                  (  0.0000000  1.0000000  0.0000000 )
                  ( -1.0000000  0.0000000  0.0000000 )


      isym = 12      90 deg rotation - cart. axis [0,-1,0]       

 cryst.   s(12) = (     0          0          1      )
                  (     0          1          0      )
                  (    -1          0          0      )

 cart.    s(12) = (  0.0000000  0.0000000 -1.0000000 )
                  (  0.0000000  1.0000000  0.0000000 )
                  (  1.0000000  0.0000000  0.0000000 )


      isym = 13     180 deg rotation - cart. axis [0,1,1]        

 cryst.   s(13) = (    -1          0          0      )
                  (     0          0          1      )
                  (     0          1          0      )

 cart.    s(13) = ( -1.0000000  0.0000000  0.0000000 )
                  (  0.0000000  0.0000000  1.0000000 )
                  (  0.0000000  1.0000000  0.0000000 )


      isym = 14     180 deg rotation - cart. axis [0,1,-1]       

 cryst.   s(14) = (    -1          0          0      )
                  (     0          0         -1      )
                  (     0         -1          0      )

 cart.    s(14) = ( -1.0000000  0.0000000  0.0000000 )
                  (  0.0000000  0.0000000 -1.0000000 )
                  (  0.0000000 -1.0000000  0.0000000 )


      isym = 15      90 deg rotation - cart. axis [-1,0,0]       

 cryst.   s(15) = (     1          0          0      )
                  (     0          0         -1      )
                  (     0          1          0      )

 cart.    s(15) = (  1.0000000  0.0000000  0.0000000 )
                  (  0.0000000  0.0000000  1.0000000 )
                  (  0.0000000 -1.0000000  0.0000000 )


      isym = 16      90 deg rotation - cart. axis [1,0,0]        

 cryst.   s(16) = (     1          0          0      )
                  (     0          0          1      )
                  (     0         -1          0      )

 cart.    s(16) = (  1.0000000  0.0000000  0.0000000 )
                  (  0.0000000  0.0000000 -1.0000000 )
                  (  0.0000000  1.0000000  0.0000000 )


      isym = 17     120 deg rotation - cart. axis [-1,-1,-1]     

 cryst.   s(17) = (     0          0          1      )
                  (     1          0          0      )
                  (     0          1          0      )

 cart.    s(17) = (  0.0000000  1.0000000  0.0000000 )
                  (  0.0000000  0.0000000  1.0000000 )
                  (  1.0000000  0.0000000  0.0000000 )


      isym = 18     120 deg rotation - cart. axis [-1,1,1]       

 cryst.   s(18) = (     0          0         -1      )
                  (    -1          0          0      )
                  (     0          1          0      )

 cart.    s(18) = (  0.0000000 -1.0000000  0.0000000 )
                  (  0.0000000  0.0000000  1.0000000 )
                  ( -1.0000000  0.0000000  0.0000000 )


      isym = 19     120 deg rotation - cart. axis [1,1,-1]       

 cryst.   s(19) = (     0          0         -1      )
                  (     1          0          0      )
                  (     0         -1          0      )

 cart.    s(19) = (  0.0000000  1.0000000  0.0000000 )
                  (  0.0000000  0.0000000 -1.0000000 )
                  ( -1.0000000  0.0000000  0.0000000 )


      isym = 20     120 deg rotation - cart. axis [1,-1,1]       

 cryst.   s(20) = (     0          0          1      )
                  (    -1          0          0      )
                  (     0         -1          0      )

 cart.    s(20) = (  0.0000000 -1.0000000  0.0000000 )
                  (  0.0000000  0.0000000 -1.0000000 )
                  (  1.0000000  0.0000000  0.0000000 )


      isym = 21     120 deg rotation - cart. axis [1,1,1]        

 cryst.   s(21) = (     0          1          0      )
                  (     0          0          1      )
                  (     1          0          0      )

 cart.    s(21) = (  0.0000000  0.0000000  1.0000000 )
                  (  1.0000000  0.0000000  0.0000000 )
                  (  0.0000000  1.0000000  0.0000000 )


      isym = 22     120 deg rotation - cart. axis [-1,1,-1]      

 cryst.   s(22) = (     0         -1          0      )
                  (     0          0         -1      )
                  (     1          0          0      )

 cart.    s(22) = (  0.0000000  0.0000000  1.0000000 )
                  ( -1.0000000  0.0000000  0.0000000 )
                  (  0.0000000 -1.0000000  0.0000000 )


      isym = 23     120 deg rotation - cart. axis [1,-1,-1]      

 cryst.   s(23) = (     0         -1          0      )
                  (     0          0          1      )
                  (    -1          0          0      )

 cart.    s(23) = (  0.0000000  0.0000000 -1.0000000 )
                  ( -1.0000000  0.0000000  0.0000000 )
                  (  0.0000000  1.0000000  0.0000000 )


      isym = 24     120 deg rotation - cart. axis [-1,-1,1]      

 cryst.   s(24) = (     0          1          0      )
                  (     0          0         -1      )
                  (    -1          0          0      )

 cart.    s(24) = (  0.0000000  0.0000000 -1.0000000 )
                  (  1.0000000  0.0000000  0.0000000 )
                  (  0.0000000 -1.0000000  0.0000000 )


      isym = 25     inversion                                    

 cryst.   s(25) = (    -1          0          0      )
                  (     0         -1          0      )
                  (     0          0         -1      )

 cart.    s(25) = ( -1.0000000  0.0000000  0.0000000 )
                  (  0.0000000 -1.0000000  0.0000000 )
                  (  0.0000000  0.0000000 -1.0000000 )


      isym = 26     inv. 180 deg rotation - cart. axis [0,0,1]   

 cryst.   s(26) = (     1          0          0      )
                  (     0          1          0      )
                  (     0          0         -1      )

 cart.    s(26) = (  1.0000000  0.0000000  0.0000000 )
                  (  0.0000000  1.0000000  0.0000000 )
                  (  0.0000000  0.0000000 -1.0000000 )


      isym = 27     inv. 180 deg rotation - cart. axis [0,1,0]   

 cryst.   s(27) = (     1          0          0      )
                  (     0         -1          0      )
                  (     0          0          1      )

 cart.    s(27) = (  1.0000000  0.0000000  0.0000000 )
                  (  0.0000000 -1.0000000  0.0000000 )
                  (  0.0000000  0.0000000  1.0000000 )


      isym = 28     inv. 180 deg rotation - cart. axis [1,0,0]   

 cryst.   s(28) = (    -1          0          0      )
                  (     0          1          0      )
                  (     0          0          1      )

 cart.    s(28) = ( -1.0000000  0.0000000  0.0000000 )
                  (  0.0000000  1.0000000  0.0000000 )
                  (  0.0000000  0.0000000  1.0000000 )


      isym = 29     inv. 180 deg rotation - cart. axis [1,1,0]   

 cryst.   s(29) = (     0         -1          0      )
                  (    -1          0          0      )
                  (     0          0          1      )

 cart.    s(29) = (  0.0000000 -1.0000000  0.0000000 )
                  ( -1.0000000  0.0000000  0.0000000 )
                  (  0.0000000  0.0000000  1.0000000 )


      isym = 30     inv. 180 deg rotation - cart. axis [1,-1,0]  

 cryst.   s(30) = (     0          1          0      )
                  (     1          0          0      )
                  (     0          0          1      )

 cart.    s(30) = (  0.0000000  1.0000000  0.0000000 )
                  (  1.0000000  0.0000000  0.0000000 )
                  (  0.0000000  0.0000000  1.0000000 )


      isym = 31     inv.  90 deg rotation - cart. axis [0,0,-1]  

 cryst.   s(31) = (     0          1          0      )
                  (    -1          0          0      )
                  (     0          0         -1      )

 cart.    s(31) = (  0.0000000 -1.0000000  0.0000000 )
                  (  1.0000000  0.0000000  0.0000000 )
                  (  0.0000000  0.0000000 -1.0000000 )


      isym = 32     inv.  90 deg rotation - cart. axis [0,0,1]   

 cryst.   s(32) = (     0         -1          0      )
                  (     1          0          0      )
                  (     0          0         -1      )

 cart.    s(32) = (  0.0000000  1.0000000  0.0000000 )
                  ( -1.0000000  0.0000000  0.0000000 )
                  (  0.0000000  0.0000000 -1.0000000 )


      isym = 33     inv. 180 deg rotation - cart. axis [1,0,1]   

 cryst.   s(33) = (     0          0         -1      )
                  (     0          1          0      )
                  (    -1          0          0      )

 cart.    s(33) = (  0.0000000  0.0000000 -1.0000000 )
                  (  0.0000000  1.0000000  0.0000000 )
                  ( -1.0000000  0.0000000  0.0000000 )


      isym = 34     inv. 180 deg rotation - cart. axis [-1,0,1]  

 cryst.   s(34) = (     0          0          1      )
                  (     0          1          0      )
                  (     1          0          0      )

 cart.    s(34) = (  0.0000000  0.0000000  1.0000000 )
                  (  0.0000000  1.0000000  0.0000000 )
                  (  1.0000000  0.0000000  0.0000000 )


      isym = 35     inv.  90 deg rotation - cart. axis [0,1,0]   

 cryst.   s(35) = (     0          0          1      )
                  (     0         -1          0      )
                  (    -1          0          0      )

 cart.    s(35) = (  0.0000000  0.0000000 -1.0000000 )
                  (  0.0000000 -1.0000000  0.0000000 )
                  (  1.0000000  0.0000000  0.0000000 )


      isym = 36     inv.  90 deg rotation - cart. axis [0,-1,0]  

 cryst.   s(36) = (     0          0         -1      )
                  (     0         -1          0      )
                  (     1          0          0      )

 cart.    s(36) = (  0.0000000  0.0000000  1.0000000 )
                  (  0.0000000 -1.0000000  0.0000000 )
                  ( -1.0000000  0.0000000  0.0000000 )


      isym = 37     inv. 180 deg rotation - cart. axis [0,1,1]   

 cryst.   s(37) = (     1          0          0      )
                  (     0          0         -1      )
                  (     0         -1          0      )

 cart.    s(37) = (  1.0000000  0.0000000  0.0000000 )
                  (  0.0000000  0.0000000 -1.0000000 )
                  (  0.0000000 -1.0000000  0.0000000 )


      isym = 38     inv. 180 deg rotation - cart. axis [0,1,-1]  

 cryst.   s(38) = (     1          0          0      )
                  (     0          0          1      )
                  (     0          1          0      )

 cart.    s(38) = (  1.0000000  0.0000000  0.0000000 )
                  (  0.0000000  0.0000000  1.0000000 )
                  (  0.0000000  1.0000000  0.0000000 )


      isym = 39     inv.  90 deg rotation - cart. axis [-1,0,0]  

 cryst.   s(39) = (    -1          0          0      )
                  (     0          0          1      )
                  (     0         -1          0      )

 cart.    s(39) = ( -1.0000000  0.0000000  0.0000000 )
                  (  0.0000000  0.0000000 -1.0000000 )
                  (  0.0000000  1.0000000  0.0000000 )


      isym = 40     inv.  90 deg rotation - cart. axis [1,0,0]   

 cryst.   s(40) = (    -1          0          0      )
                  (     0          0         -1      )
                  (     0          1          0      )

 cart.    s(40) = ( -1.0000000  0.0000000  0.0000000 )
                  (  0.0000000  0.0000000  1.0000000 )
                  (  0.0000000 -1.0000000  0.0000000 )


      isym = 41     inv. 120 deg rotation - cart. axis [-1,-1,-1]

 cryst.   s(41) = (     0          0         -1      )
                  (    -1          0          0      )
                  (     0         -1          0      )

 cart.    s(41) = (  0.0000000 -1.0000000  0.0000000 )
                  (  0.0000000  0.0000000 -1.0000000 )
                  ( -1.0000000  0.0000000  0.0000000 )


      isym = 42     inv. 120 deg rotation - cart. axis [-1,1,1]  

 cryst.   s(42) = (     0          0          1      )
                  (     1          0          0      )
                  (     0         -1          0      )

 cart.    s(42) = (  0.0000000  1.0000000  0.0000000 )
                  (  0.0000000  0.0000000 -1.0000000 )
                  (  1.0000000  0.0000000  0.0000000 )


      isym = 43     inv. 120 deg rotation - cart. axis [1,1,-1]  

 cryst.   s(43) = (     0          0          1      )
                  (    -1          0          0      )
                  (     0          1          0      )

 cart.    s(43) = (  0.0000000 -1.0000000  0.0000000 )
                  (  0.0000000  0.0000000  1.0000000 )
                  (  1.0000000  0.0000000  0.0000000 )


      isym = 44     inv. 120 deg rotation - cart. axis [1,-1,1]  

 cryst.   s(44) = (     0          0         -1      )
                  (     1          0          0      )
                  (     0          1          0      )

 cart.    s(44) = (  0.0000000  1.0000000  0.0000000 )
                  (  0.0000000  0.0000000  1.0000000 )
                  ( -1.0000000  0.0000000  0.0000000 )


      isym = 45     inv. 120 deg rotation - cart. axis [1,1,1]   

 cryst.   s(45) = (     0         -1          0      )
                  (     0          0         -1      )
                  (    -1          0          0      )

 cart.    s(45) = (  0.0000000  0.0000000 -1.0000000 )
                  ( -1.0000000  0.0000000  0.0000000 )
                  (  0.0000000 -1.0000000  0.0000000 )


      isym = 46     inv. 120 deg rotation - cart. axis [-1,1,-1] 

 cryst.   s(46) = (     0          1          0      )
                  (     0          0          1      )
                  (    -1          0          0      )

 cart.    s(46) = (  0.0000000  0.0000000 -1.0000000 )
                  (  1.0000000  0.0000000  0.0000000 )
                  (  0.0000000  1.0000000  0.0000000 )


      isym = 47     inv. 120 deg rotation - cart. axis [1,-1,-1] 

 cryst.   s(47) = (     0          1          0      )
                  (     0          0         -1      )
                  (     1          0          0      )

 cart.    s(47) = (  0.0000000  0.0000000  1.0000000 )
                  (  1.0000000  0.0000000  0.0000000 )
                  (  0.0000000 -1.0000000  0.0000000 )


      isym = 48     inv. 120 deg rotation - cart. axis [-1,-1,1] 

 cryst.   s(48) = (     0         -1          0      )
                  (     0          0          1      )
                  (     1          0          0      )

 cart.    s(48) = (  0.0000000  0.0000000  1.0000000 )
                  ( -1.0000000  0.0000000  0.0000000 )
                  (  0.0000000  1.0000000  0.0000000 )


   Cartesian axes

     site n.     atom                  positions (alat units)
         1           O   tau(   1) = (   0.5000000   0.0000000   0.5000000  )
         2           O   tau(   2) = (   0.5000000   0.5000000   0.0000000  )
         3           O   tau(   3) = (   0.0000000   0.5000000   0.5000000  )
         4           Ti  tau(   4) = (   0.5000000   0.5000000   0.5000000  )
         5           Sr  tau(   5) = (   0.0000000   0.0000000   0.0000000  )

   Crystallographic axes

     site n.     atom                  positions (cryst. coord.)
         1           O   tau(   1) = (  0.5000000  0.0000000  0.5000000  )
         2           O   tau(   2) = (  0.5000000  0.5000000  0.0000000  )
         3           O   tau(   3) = (  0.0000000  0.5000000  0.5000000  )
         4           Ti  tau(   4) = (  0.5000000  0.5000000  0.5000000  )
         5           Sr  tau(   5) = (  0.0000000  0.0000000  0.0000000  )

     number of k points=   120  Marzari-Vanderbilt smearing, width (Ry)=  0.0010
                       cart. coord. in units 2pi/alat
        k(    1) = (   0.0000000   0.0000000   0.0000000), wk =   0.0007289
        k(    2) = (   0.0000000   0.0000000   0.0714286), wk =   0.0043732
        k(    3) = (   0.0000000   0.0000000   0.1428571), wk =   0.0043732
        k(    4) = (   0.0000000   0.0000000   0.2142857), wk =   0.0043732
        k(    5) = (   0.0000000   0.0000000   0.2857143), wk =   0.0043732
        k(    6) = (   0.0000000   0.0000000   0.3571429), wk =   0.0043732
        k(    7) = (   0.0000000   0.0000000   0.4285714), wk =   0.0043732
        k(    8) = (   0.0000000   0.0000000  -0.5000000), wk =   0.0021866
        k(    9) = (   0.0000000   0.0714286   0.0714286), wk =   0.0087464
        k(   10) = (   0.0000000   0.0714286   0.1428571), wk =   0.0174927
        k(   11) = (   0.0000000   0.0714286   0.2142857), wk =   0.0174927
        k(   12) = (   0.0000000   0.0714286   0.2857143), wk =   0.0174927
        k(   13) = (   0.0000000   0.0714286   0.3571429), wk =   0.0174927
        k(   14) = (   0.0000000   0.0714286   0.4285714), wk =   0.0174927
        k(   15) = (   0.0000000   0.0714286  -0.5000000), wk =   0.0087464
        k(   16) = (   0.0000000   0.1428571   0.1428571), wk =   0.0087464
        k(   17) = (   0.0000000   0.1428571   0.2142857), wk =   0.0174927
        k(   18) = (   0.0000000   0.1428571   0.2857143), wk =   0.0174927
        k(   19) = (   0.0000000   0.1428571   0.3571429), wk =   0.0174927
        k(   20) = (   0.0000000   0.1428571   0.4285714), wk =   0.0174927
        k(   21) = (   0.0000000   0.1428571  -0.5000000), wk =   0.0087464
        k(   22) = (   0.0000000   0.2142857   0.2142857), wk =   0.0087464
        k(   23) = (   0.0000000   0.2142857   0.2857143), wk =   0.0174927
        k(   24) = (   0.0000000   0.2142857   0.3571429), wk =   0.0174927
        k(   25) = (   0.0000000   0.2142857   0.4285714), wk =   0.0174927
        k(   26) = (   0.0000000   0.2142857  -0.5000000), wk =   0.0087464
        k(   27) = (   0.0000000   0.2857143   0.2857143), wk =   0.0087464
        k(   28) = (   0.0000000   0.2857143   0.3571429), wk =   0.0174927
        k(   29) = (   0.0000000   0.2857143   0.4285714), wk =   0.0174927
        k(   30) = (   0.0000000   0.2857143  -0.5000000), wk =   0.0087464
        k(   31) = (   0.0000000   0.3571429   0.3571429), wk =   0.0087464
        k(   32) = (   0.0000000   0.3571429   0.4285714), wk =   0.0174927
        k(   33) = (   0.0000000   0.3571429  -0.5000000), wk =   0.0087464
        k(   34) = (   0.0000000   0.4285714   0.4285714), wk =   0.0087464
        k(   35) = (   0.0000000   0.4285714  -0.5000000), wk =   0.0087464
        k(   36) = (   0.0000000  -0.5000000  -0.5000000), wk =   0.0021866
        k(   37) = (   0.0714286   0.0714286   0.0714286), wk =   0.0058309
        k(   38) = (   0.0714286   0.0714286   0.1428571), wk =   0.0174927
        k(   39) = (   0.0714286   0.0714286   0.2142857), wk =   0.0174927
        k(   40) = (   0.0714286   0.0714286   0.2857143), wk =   0.0174927
        k(   41) = (   0.0714286   0.0714286   0.3571429), wk =   0.0174927
        k(   42) = (   0.0714286   0.0714286   0.4285714), wk =   0.0174927
        k(   43) = (   0.0714286   0.0714286  -0.5000000), wk =   0.0087464
        k(   44) = (   0.0714286   0.1428571   0.1428571), wk =   0.0174927
        k(   45) = (   0.0714286   0.1428571   0.2142857), wk =   0.0349854
        k(   46) = (   0.0714286   0.1428571   0.2857143), wk =   0.0349854
        k(   47) = (   0.0714286   0.1428571   0.3571429), wk =   0.0349854
        k(   48) = (   0.0714286   0.1428571   0.4285714), wk =   0.0349854
        k(   49) = (   0.0714286   0.1428571  -0.5000000), wk =   0.0174927
        k(   50) = (   0.0714286   0.2142857   0.2142857), wk =   0.0174927
        k(   51) = (   0.0714286   0.2142857   0.2857143), wk =   0.0349854
        k(   52) = (   0.0714286   0.2142857   0.3571429), wk =   0.0349854
        k(   53) = (   0.0714286   0.2142857   0.4285714), wk =   0.0349854
        k(   54) = (   0.0714286   0.2142857  -0.5000000), wk =   0.0174927
        k(   55) = (   0.0714286   0.2857143   0.2857143), wk =   0.0174927
        k(   56) = (   0.0714286   0.2857143   0.3571429), wk =   0.0349854
        k(   57) = (   0.0714286   0.2857143   0.4285714), wk =   0.0349854
        k(   58) = (   0.0714286   0.2857143  -0.5000000), wk =   0.0174927
        k(   59) = (   0.0714286   0.3571429   0.3571429), wk =   0.0174927
        k(   60) = (   0.0714286   0.3571429   0.4285714), wk =   0.0349854
        k(   61) = (   0.0714286   0.3571429  -0.5000000), wk =   0.0174927
        k(   62) = (   0.0714286   0.4285714   0.4285714), wk =   0.0174927
        k(   63) = (   0.0714286   0.4285714  -0.5000000), wk =   0.0174927
        k(   64) = (   0.0714286  -0.5000000  -0.5000000), wk =   0.0043732
        k(   65) = (   0.1428571   0.1428571   0.1428571), wk =   0.0058309
        k(   66) = (   0.1428571   0.1428571   0.2142857), wk =   0.0174927
        k(   67) = (   0.1428571   0.1428571   0.2857143), wk =   0.0174927
        k(   68) = (   0.1428571   0.1428571   0.3571429), wk =   0.0174927
        k(   69) = (   0.1428571   0.1428571   0.4285714), wk =   0.0174927
        k(   70) = (   0.1428571   0.1428571  -0.5000000), wk =   0.0087464
        k(   71) = (   0.1428571   0.2142857   0.2142857), wk =   0.0174927
        k(   72) = (   0.1428571   0.2142857   0.2857143), wk =   0.0349854
        k(   73) = (   0.1428571   0.2142857   0.3571429), wk =   0.0349854
        k(   74) = (   0.1428571   0.2142857   0.4285714), wk =   0.0349854
        k(   75) = (   0.1428571   0.2142857  -0.5000000), wk =   0.0174927
        k(   76) = (   0.1428571   0.2857143   0.2857143), wk =   0.0174927
        k(   77) = (   0.1428571   0.2857143   0.3571429), wk =   0.0349854
        k(   78) = (   0.1428571   0.2857143   0.4285714), wk =   0.0349854
        k(   79) = (   0.1428571   0.2857143  -0.5000000), wk =   0.0174927
        k(   80) = (   0.1428571   0.3571429   0.3571429), wk =   0.0174927
        k(   81) = (   0.1428571   0.3571429   0.4285714), wk =   0.0349854
        k(   82) = (   0.1428571   0.3571429  -0.5000000), wk =   0.0174927
        k(   83) = (   0.1428571   0.4285714   0.4285714), wk =   0.0174927
        k(   84) = (   0.1428571   0.4285714  -0.5000000), wk =   0.0174927
        k(   85) = (   0.1428571  -0.5000000  -0.5000000), wk =   0.0043732
        k(   86) = (   0.2142857   0.2142857   0.2142857), wk =   0.0058309
        k(   87) = (   0.2142857   0.2142857   0.2857143), wk =   0.0174927
        k(   88) = (   0.2142857   0.2142857   0.3571429), wk =   0.0174927
        k(   89) = (   0.2142857   0.2142857   0.4285714), wk =   0.0174927
        k(   90) = (   0.2142857   0.2142857  -0.5000000), wk =   0.0087464
        k(   91) = (   0.2142857   0.2857143   0.2857143), wk =   0.0174927
        k(   92) = (   0.2142857   0.2857143   0.3571429), wk =   0.0349854
        k(   93) = (   0.2142857   0.2857143   0.4285714), wk =   0.0349854
        k(   94) = (   0.2142857   0.2857143  -0.5000000), wk =   0.0174927
        k(   95) = (   0.2142857   0.3571429   0.3571429), wk =   0.0174927
        k(   96) = (   0.2142857   0.3571429   0.4285714), wk =   0.0349854
        k(   97) = (   0.2142857   0.3571429  -0.5000000), wk =   0.0174927
        k(   98) = (   0.2142857   0.4285714   0.4285714), wk =   0.0174927
        k(   99) = (   0.2142857   0.4285714  -0.5000000), wk =   0.0174927
        k(  100) = (   0.2142857  -0.5000000  -0.5000000), wk =   0.0043732
        k(  101) = (   0.2857143   0.2857143   0.2857143), wk =   0.0058309
        k(  102) = (   0.2857143   0.2857143   0.3571429), wk =   0.0174927
        k(  103) = (   0.2857143   0.2857143   0.4285714), wk =   0.0174927
        k(  104) = (   0.2857143   0.2857143  -0.5000000), wk =   0.0087464
        k(  105) = (   0.2857143   0.3571429   0.3571429), wk =   0.0174927
        k(  106) = (   0.2857143   0.3571429   0.4285714), wk =   0.0349854
        k(  107) = (   0.2857143   0.3571429  -0.5000000), wk =   0.0174927
        k(  108) = (   0.2857143   0.4285714   0.4285714), wk =   0.0174927
        k(  109) = (   0.2857143   0.4285714  -0.5000000), wk =   0.0174927
        k(  110) = (   0.2857143  -0.5000000  -0.5000000), wk =   0.0043732
        k(  111) = (   0.3571429   0.3571429   0.3571429), wk =   0.0058309
        k(  112) = (   0.3571429   0.3571429   0.4285714), wk =   0.0174927
        k(  113) = (   0.3571429   0.3571429  -0.5000000), wk =   0.0087464
        k(  114) = (   0.3571429   0.4285714   0.4285714), wk =   0.0174927
        k(  115) = (   0.3571429   0.4285714  -0.5000000), wk =   0.0174927
        k(  116) = (   0.3571429  -0.5000000  -0.5000000), wk =   0.0043732
        k(  117) = (   0.4285714   0.4285714   0.4285714), wk =   0.0058309
        k(  118) = (   0.4285714   0.4285714  -0.5000000), wk =   0.0087464
        k(  119) = (   0.4285714  -0.5000000  -0.5000000), wk =   0.0043732
        k(  120) = (  -0.5000000  -0.5000000  -0.5000000), wk =   0.0007289

                       cryst. coord.
        k(    1) = (   0.0000000   0.0000000   0.0000000), wk =   0.0007289
        k(    2) = (   0.0000000   0.0000000   0.0714286), wk =   0.0043732
        k(    3) = (   0.0000000   0.0000000   0.1428571), wk =   0.0043732
        k(    4) = (   0.0000000   0.0000000   0.2142857), wk =   0.0043732
        k(    5) = (   0.0000000   0.0000000   0.2857143), wk =   0.0043732
        k(    6) = (   0.0000000   0.0000000   0.3571429), wk =   0.0043732
        k(    7) = (   0.0000000   0.0000000   0.4285714), wk =   0.0043732
        k(    8) = (   0.0000000   0.0000000  -0.5000000), wk =   0.0021866
        k(    9) = (   0.0000000   0.0714286   0.0714286), wk =   0.0087464
        k(   10) = (   0.0000000   0.0714286   0.1428571), wk =   0.0174927
        k(   11) = (   0.0000000   0.0714286   0.2142857), wk =   0.0174927
        k(   12) = (   0.0000000   0.0714286   0.2857143), wk =   0.0174927
        k(   13) = (   0.0000000   0.0714286   0.3571429), wk =   0.0174927
        k(   14) = (   0.0000000   0.0714286   0.4285714), wk =   0.0174927
        k(   15) = (   0.0000000   0.0714286  -0.5000000), wk =   0.0087464
        k(   16) = (   0.0000000   0.1428571   0.1428571), wk =   0.0087464
        k(   17) = (   0.0000000   0.1428571   0.2142857), wk =   0.0174927
        k(   18) = (   0.0000000   0.1428571   0.2857143), wk =   0.0174927
        k(   19) = (   0.0000000   0.1428571   0.3571429), wk =   0.0174927
        k(   20) = (   0.0000000   0.1428571   0.4285714), wk =   0.0174927
        k(   21) = (   0.0000000   0.1428571  -0.5000000), wk =   0.0087464
        k(   22) = (   0.0000000   0.2142857   0.2142857), wk =   0.0087464
        k(   23) = (   0.0000000   0.2142857   0.2857143), wk =   0.0174927
        k(   24) = (   0.0000000   0.2142857   0.3571429), wk =   0.0174927
        k(   25) = (   0.0000000   0.2142857   0.4285714), wk =   0.0174927
        k(   26) = (   0.0000000   0.2142857  -0.5000000), wk =   0.0087464
        k(   27) = (   0.0000000   0.2857143   0.2857143), wk =   0.0087464
        k(   28) = (   0.0000000   0.2857143   0.3571429), wk =   0.0174927
        k(   29) = (   0.0000000   0.2857143   0.4285714), wk =   0.0174927
        k(   30) = (   0.0000000   0.2857143  -0.5000000), wk =   0.0087464
        k(   31) = (   0.0000000   0.3571429   0.3571429), wk =   0.0087464
        k(   32) = (   0.0000000   0.3571429   0.4285714), wk =   0.0174927
        k(   33) = (   0.0000000   0.3571429  -0.5000000), wk =   0.0087464
        k(   34) = (   0.0000000   0.4285714   0.4285714), wk =   0.0087464
        k(   35) = (   0.0000000   0.4285714  -0.5000000), wk =   0.0087464
        k(   36) = (   0.0000000  -0.5000000  -0.5000000), wk =   0.0021866
        k(   37) = (   0.0714286   0.0714286   0.0714286), wk =   0.0058309
        k(   38) = (   0.0714286   0.0714286   0.1428571), wk =   0.0174927
        k(   39) = (   0.0714286   0.0714286   0.2142857), wk =   0.0174927
        k(   40) = (   0.0714286   0.0714286   0.2857143), wk =   0.0174927
        k(   41) = (   0.0714286   0.0714286   0.3571429), wk =   0.0174927
        k(   42) = (   0.0714286   0.0714286   0.4285714), wk =   0.0174927
        k(   43) = (   0.0714286   0.0714286  -0.5000000), wk =   0.0087464
        k(   44) = (   0.0714286   0.1428571   0.1428571), wk =   0.0174927
        k(   45) = (   0.0714286   0.1428571   0.2142857), wk =   0.0349854
        k(   46) = (   0.0714286   0.1428571   0.2857143), wk =   0.0349854
        k(   47) = (   0.0714286   0.1428571   0.3571429), wk =   0.0349854
        k(   48) = (   0.0714286   0.1428571   0.4285714), wk =   0.0349854
        k(   49) = (   0.0714286   0.1428571  -0.5000000), wk =   0.0174927
        k(   50) = (   0.0714286   0.2142857   0.2142857), wk =   0.0174927
        k(   51) = (   0.0714286   0.2142857   0.2857143), wk =   0.0349854
        k(   52) = (   0.0714286   0.2142857   0.3571429), wk =   0.0349854
        k(   53) = (   0.0714286   0.2142857   0.4285714), wk =   0.0349854
        k(   54) = (   0.0714286   0.2142857  -0.5000000), wk =   0.0174927
        k(   55) = (   0.0714286   0.2857143   0.2857143), wk =   0.0174927
        k(   56) = (   0.0714286   0.2857143   0.3571429), wk =   0.0349854
        k(   57) = (   0.0714286   0.2857143   0.4285714), wk =   0.0349854
        k(   58) = (   0.0714286   0.2857143  -0.5000000), wk =   0.0174927
        k(   59) = (   0.0714286   0.3571429   0.3571429), wk =   0.0174927
        k(   60) = (   0.0714286   0.3571429   0.4285714), wk =   0.0349854
        k(   61) = (   0.0714286   0.3571429  -0.5000000), wk =   0.0174927
        k(   62) = (   0.0714286   0.4285714   0.4285714), wk =   0.0174927
        k(   63) = (   0.0714286   0.4285714  -0.5000000), wk =   0.0174927
        k(   64) = (   0.0714286  -0.5000000  -0.5000000), wk =   0.0043732
        k(   65) = (   0.1428571   0.1428571   0.1428571), wk =   0.0058309
        k(   66) = (   0.1428571   0.1428571   0.2142857), wk =   0.0174927
        k(   67) = (   0.1428571   0.1428571   0.2857143), wk =   0.0174927
        k(   68) = (   0.1428571   0.1428571   0.3571429), wk =   0.0174927
        k(   69) = (   0.1428571   0.1428571   0.4285714), wk =   0.0174927
        k(   70) = (   0.1428571   0.1428571  -0.5000000), wk =   0.0087464
        k(   71) = (   0.1428571   0.2142857   0.2142857), wk =   0.0174927
        k(   72) = (   0.1428571   0.2142857   0.2857143), wk =   0.0349854
        k(   73) = (   0.1428571   0.2142857   0.3571429), wk =   0.0349854
        k(   74) = (   0.1428571   0.2142857   0.4285714), wk =   0.0349854
        k(   75) = (   0.1428571   0.2142857  -0.5000000), wk =   0.0174927
        k(   76) = (   0.1428571   0.2857143   0.2857143), wk =   0.0174927
        k(   77) = (   0.1428571   0.2857143   0.3571429), wk =   0.0349854
        k(   78) = (   0.1428571   0.2857143   0.4285714), wk =   0.0349854
        k(   79) = (   0.1428571   0.2857143  -0.5000000), wk =   0.0174927
        k(   80) = (   0.1428571   0.3571429   0.3571429), wk =   0.0174927
        k(   81) = (   0.1428571   0.3571429   0.4285714), wk =   0.0349854
        k(   82) = (   0.1428571   0.3571429  -0.5000000), wk =   0.0174927
        k(   83) = (   0.1428571   0.4285714   0.4285714), wk =   0.0174927
        k(   84) = (   0.1428571   0.4285714  -0.5000000), wk =   0.0174927
        k(   85) = (   0.1428571  -0.5000000  -0.5000000), wk =   0.0043732
        k(   86) = (   0.2142857   0.2142857   0.2142857), wk =   0.0058309
        k(   87) = (   0.2142857   0.2142857   0.2857143), wk =   0.0174927
        k(   88) = (   0.2142857   0.2142857   0.3571429), wk =   0.0174927
        k(   89) = (   0.2142857   0.2142857   0.4285714), wk =   0.0174927
        k(   90) = (   0.2142857   0.2142857  -0.5000000), wk =   0.0087464
        k(   91) = (   0.2142857   0.2857143   0.2857143), wk =   0.0174927
        k(   92) = (   0.2142857   0.2857143   0.3571429), wk =   0.0349854
        k(   93) = (   0.2142857   0.2857143   0.4285714), wk =   0.0349854
        k(   94) = (   0.2142857   0.2857143  -0.5000000), wk =   0.0174927
        k(   95) = (   0.2142857   0.3571429   0.3571429), wk =   0.0174927
        k(   96) = (   0.2142857   0.3571429   0.4285714), wk =   0.0349854
        k(   97) = (   0.2142857   0.3571429  -0.5000000), wk =   0.0174927
        k(   98) = (   0.2142857   0.4285714   0.4285714), wk =   0.0174927
        k(   99) = (   0.2142857   0.4285714  -0.5000000), wk =   0.0174927
        k(  100) = (   0.2142857  -0.5000000  -0.5000000), wk =   0.0043732
        k(  101) = (   0.2857143   0.2857143   0.2857143), wk =   0.0058309
        k(  102) = (   0.2857143   0.2857143   0.3571429), wk =   0.0174927
        k(  103) = (   0.2857143   0.2857143   0.4285714), wk =   0.0174927
        k(  104) = (   0.2857143   0.2857143  -0.5000000), wk =   0.0087464
        k(  105) = (   0.2857143   0.3571429   0.3571429), wk =   0.0174927
        k(  106) = (   0.2857143   0.3571429   0.4285714), wk =   0.0349854
        k(  107) = (   0.2857143   0.3571429  -0.5000000), wk =   0.0174927
        k(  108) = (   0.2857143   0.4285714   0.4285714), wk =   0.0174927
        k(  109) = (   0.2857143   0.4285714  -0.5000000), wk =   0.0174927
        k(  110) = (   0.2857143  -0.5000000  -0.5000000), wk =   0.0043732
        k(  111) = (   0.3571429   0.3571429   0.3571429), wk =   0.0058309
        k(  112) = (   0.3571429   0.3571429   0.4285714), wk =   0.0174927
        k(  113) = (   0.3571429   0.3571429  -0.5000000), wk =   0.0087464
        k(  114) = (   0.3571429   0.4285714   0.4285714), wk =   0.0174927
        k(  115) = (   0.3571429   0.4285714  -0.5000000), wk =   0.0174927
        k(  116) = (   0.3571429  -0.5000000  -0.5000000), wk =   0.0043732
        k(  117) = (   0.4285714   0.4285714   0.4285714), wk =   0.0058309
        k(  118) = (   0.4285714   0.4285714  -0.5000000), wk =   0.0087464
        k(  119) = (   0.4285714  -0.5000000  -0.5000000), wk =   0.0043732
        k(  120) = (  -0.5000000  -0.5000000  -0.5000000), wk =   0.0007289

     Dense  grid:    30551 G-vectors     FFT dimensions: (  40,  40,  40)

     Dynamical RAM for                 wfc:       0.07 MB

     Dynamical RAM for     wfc (w. buffer):       8.42 MB

     Dynamical RAM for           str. fact:       0.07 MB

     Dynamical RAM for           local pot:       0.00 MB

     Dynamical RAM for          nlocal pot:       0.22 MB

     Dynamical RAM for                qrad:       4.67 MB

     Dynamical RAM for          rho,v,vnew:       0.14 MB

     Dynamical RAM for               rhoin:       0.05 MB

     Dynamical RAM for            rho*nmix:       0.37 MB

     Dynamical RAM for           G-vectors:       0.10 MB

     Dynamical RAM for          h,s,v(r/c):       0.05 MB

     Dynamical RAM for          <psi|beta>:       0.03 MB

     Dynamical RAM for                 psi:       0.28 MB

     Dynamical RAM for                hpsi:       0.28 MB

     Dynamical RAM for                spsi:       0.28 MB

     Dynamical RAM for      wfcinit/wfcrot:       0.23 MB

     Dynamical RAM for           addusdens:       4.41 MB

     Estimated static dynamical RAM per process >      14.26 MB

     Estimated max dynamical RAM per process >      18.67 MB

     Estimated total dynamical RAM >     373.36 MB

     Check: negative/imaginary core charge=   -0.000004    0.000000

     Initial potential from superposition of free atoms
     Check: negative starting charge=   -0.064609

     starting charge   38.96630, renormalised to   40.00000

     negative rho (up, down):  6.632E-02 0.000E+00
     Starting wfcs are   35 randomized atomic wfcs

     total cpu time spent up to now is        1.4 secs

     Self-consistent Calculation

     iteration #  1     ecut=    50.00 Ry     beta= 0.70
     Davidson diagonalization with overlap
     ethr =  1.00E-02,  avg # of iterations =  1.9

     negative rho (up, down):  6.445E-02 0.000E+00

     total cpu time spent up to now is        3.7 secs

     total energy              =    -285.98780084 Ry
     Harris-Foulkes estimate   =    -286.97463536 Ry
     estimated scf accuracy    <       1.23288089 Ry

     iteration #  2     ecut=    50.00 Ry     beta= 0.70
     Davidson diagonalization with overlap
     ethr =  3.08E-03,  avg # of iterations =  4.0

     negative rho (up, down):  6.385E-02 0.000E+00

     total cpu time spent up to now is        8.6 secs

     total energy              =    -283.37699438 Ry
     Harris-Foulkes estimate   =    -290.47569149 Ry
     estimated scf accuracy    <      45.97358149 Ry

     iteration #  3     ecut=    50.00 Ry     beta= 0.70
     Davidson diagonalization with overlap
     ethr =  3.08E-03,  avg # of iterations =  4.3

     negative rho (up, down):  6.515E-02 0.000E+00

     total cpu time spent up to now is       13.2 secs

     total energy              =    -286.65247843 Ry
     Harris-Foulkes estimate   =    -286.82824114 Ry
     estimated scf accuracy    <       0.51301348 Ry

     iteration #  4     ecut=    50.00 Ry     beta= 0.70
     Davidson diagonalization with overlap
     ethr =  1.28E-03,  avg # of iterations =  2.4

     negative rho (up, down):  6.612E-02 0.000E+00

     total cpu time spent up to now is       16.2 secs

     total energy              =    -286.68407044 Ry
     Harris-Foulkes estimate   =    -286.71813527 Ry
     estimated scf accuracy    <       0.21453840 Ry

     iteration #  5     ecut=    50.00 Ry     beta= 0.70
     Davidson diagonalization with overlap
     ethr =  5.36E-04,  avg # of iterations =  2.4

     negative rho (up, down):  6.619E-02 0.000E+00

     total cpu time spent up to now is       18.9 secs

     total energy              =    -286.68823413 Ry
     Harris-Foulkes estimate   =    -286.69597464 Ry
     estimated scf accuracy    <       0.04105874 Ry

     iteration #  6     ecut=    50.00 Ry     beta= 0.70
     Davidson diagonalization with overlap
     ethr =  1.03E-04,  avg # of iterations =  2.5

     negative rho (up, down):  6.621E-02 0.000E+00

     total cpu time spent up to now is       21.7 secs

     total energy              =    -286.69027633 Ry
     Harris-Foulkes estimate   =    -286.69139712 Ry
     estimated scf accuracy    <       0.00395011 Ry

     iteration #  7     ecut=    50.00 Ry     beta= 0.70
     Davidson diagonalization with overlap
     ethr =  9.88E-06,  avg # of iterations =  3.2

     negative rho (up, down):  6.630E-02 0.000E+00

     total cpu time spent up to now is       25.2 secs

     total energy              =    -286.69101938 Ry
     Harris-Foulkes estimate   =    -286.69102842 Ry
     estimated scf accuracy    <       0.00004779 Ry

     iteration #  8     ecut=    50.00 Ry     beta= 0.70
     Davidson diagonalization with overlap
     ethr =  1.19E-07,  avg # of iterations =  4.2

     negative rho (up, down):  6.627E-02 0.000E+00

     total cpu time spent up to now is       29.9 secs

     total energy              =    -286.69132447 Ry
     Harris-Foulkes estimate   =    -286.69142699 Ry
     estimated scf accuracy    <       0.00027908 Ry

     iteration #  9     ecut=    50.00 Ry     beta= 0.70
     Davidson diagonalization with overlap
     ethr =  1.19E-07,  avg # of iterations =  3.8

     negative rho (up, down):  6.629E-02 0.000E+00

     total cpu time spent up to now is       34.1 secs

     total energy              =    -286.69135690 Ry
     Harris-Foulkes estimate   =    -286.69135875 Ry
     estimated scf accuracy    <       0.00001152 Ry

     iteration # 10     ecut=    50.00 Ry     beta= 0.70
     Davidson diagonalization with overlap
     ethr =  2.88E-08,  avg # of iterations =  2.1

     negative rho (up, down):  6.629E-02 0.000E+00

     total cpu time spent up to now is       36.7 secs

     total energy              =    -286.69135653 Ry
     Harris-Foulkes estimate   =    -286.69135759 Ry
     estimated scf accuracy    <       0.00000439 Ry

     iteration # 11     ecut=    50.00 Ry     beta= 0.70
     Davidson diagonalization with overlap
     ethr =  1.10E-08,  avg # of iterations =  2.9

     negative rho (up, down):  6.629E-02 0.000E+00

     total cpu time spent up to now is       39.7 secs

     total energy              =    -286.69135726 Ry
     Harris-Foulkes estimate   =    -286.69135739 Ry
     estimated scf accuracy    <       0.00000049 Ry

     iteration # 12     ecut=    50.00 Ry     beta= 0.70
     Davidson diagonalization with overlap
     ethr =  1.22E-09,  avg # of iterations =  2.6

     negative rho (up, down):  6.629E-02 0.000E+00

     total cpu time spent up to now is       42.7 secs

     total energy              =    -286.69135732 Ry
     Harris-Foulkes estimate   =    -286.69135733 Ry
     estimated scf accuracy    <       0.00000004 Ry

     iteration # 13     ecut=    50.00 Ry     beta= 0.70
     Davidson diagonalization with overlap
     ethr =  9.86E-11,  avg # of iterations =  3.7

     negative rho (up, down):  6.629E-02 0.000E+00

     total cpu time spent up to now is       46.3 secs

     End of self-consistent calculation

          k = 0.0000 0.0000 0.0000 (  3791 PWs)   bands (ev):

   -53.1886 -29.6658 -29.2814 -29.2814 -29.2814 -11.5504 -11.5504 -11.5504
   -11.1274 -10.6254 -10.6254   2.6299   2.6299   2.6299   4.2076   4.2076
     4.2076   4.4050   4.4050   4.4050   5.7798   5.7798   5.7798   6.6017

     occupation numbers 
     1.0000   1.0000   1.0000   1.0000   1.0000   1.0000   1.0000   1.0000
     1.0000   1.0000   1.0000   1.0000   1.0000   1.0000   1.0000   1.0000
     1.0000   1.0000   1.0000   1.0000   0.0000   0.0000   0.0000   0.0000

          k = 0.0000 0.0000 0.0714 (  3831 PWs)   bands (ev):

   -53.1886 -29.6657 -29.2817 -29.2814 -29.2814 -11.5684 -11.5501 -11.5501
   -11.1057 -10.6250 -10.6224   2.5884   2.6346   2.6346   4.1678   4.1678
     4.1880   4.2945   4.3837   4.3837   5.7818   5.8402   5.8402   6.6021

     occupation numbers 
     1.0000   1.0000   1.0000   1.0000   1.0000   1.0000   1.0000   1.0000
     1.0000   1.0000   1.0000   1.0000   1.0000   1.0000   1.0000   1.0000
     1.0000   1.0000   1.0000   1.0000   0.0000   0.0000   0.0000   0.0000

          k = 0.0000 0.0000 0.1429 (  3827 PWs)   bands (ev):

   -53.1886 -29.6655 -29.2825 -29.2814 -29.2814 -11.6124 -11.5493 -11.5493
   -11.0501 -10.6238 -10.6148   2.4723   2.6492   2.6492   4.0382   4.0499
     4.0499   4.1346   4.3472   4.3472   5.7877   5.9925   5.9925   6.6032

     occupation numbers 
     1.0000   1.0000   1.0000   1.0000   1.0000   1.0000   1.0000   1.0000
     1.0000   1.0000   1.0000   1.0000   1.0000   1.0000   1.0000   1.0000
     1.0000   1.0000   1.0000   1.0000   0.0000   0.0000   0.0000   0.0000

          k = 0.0000 0.0000 0.2143 (  3823 PWs)   bands (ev):

   -53.1886 -29.6653 -29.2836 -29.2813 -29.2813 -11.6655 -11.5482 -11.5482
   -10.9769 -10.6222 -10.6071   2.3046   2.6736   2.6736   3.7530   3.8850
     3.8850   4.0604   4.3156   4.3156   5.7962   6.1835   6.1835   7.1884

     occupation numbers 
     1.0000   1.0000   1.0000   1.0000   1.0000   1.0000   1.0000   1.0000
     1.0000   1.0000   1.0000   1.0000   1.0000   1.0000   1.0000   1.0000
     1.0000   1.0000   1.0000   1.0000   0.0000   0.0000   0.0000   0.0000

          k = 0.0000 0.0000 0.2857 (  3827 PWs)   bands (ev):

   -53.1886 -29.6650 -29.2849 -29.2813 -29.2813 -11.7159 -11.5469 -11.5469
   -10.8977 -10.6203 -10.6046   2.1191   2.7069   2.7069   3.5058   3.7137
     3.7137   3.9818   4.2887   4.2887   5.8057   6.3708   6.3708   6.6059

     occupation numbers 
     1.0000   1.0000   1.0000   1.0000   1.0000   1.0000   1.0000   1.0000
     1.0000   1.0000   1.0000   1.0000   1.0000   1.0000   1.0000   1.0000
     1.0000   1.0000   1.0000   1.0000   0.0000   0.0000   0.0000   0.0000

          k = 0.0000 0.0000 0.3571 (  3820 PWs)   bands (ev):

   -53.1886 -29.6647 -29.2860 -29.2812 -29.2812 -11.7562 -11.5458 -11.5458
   -10.8213 -10.6186 -10.6123   1.9531   2.7458   2.7458   3.3232   3.5636
     3.5636   3.9139   4.2672   4.2672   5.8143   6.5251   6.5251   6.6071

     occupation numbers 
     1.0000   1.0000   1.0000   1.0000   1.0000   1.0000   1.0000   1.0000
     1.0000   1.0000   1.0000   1.0000   1.0000   1.0000   1.0000   1.0000
     1.0000   1.0000   1.0000   1.0000   0.0000   0.0000   0.0000   0.0000

          k = 0.0000 0.0000 0.4286 (  3836 PWs)   bands (ev):

   -53.1886 -29.6645 -29.2868 -29.2812 -29.2812 -11.7820 -11.5450 -11.5450
   -10.7564 -10.6315 -10.6174   1.8392   2.7807   2.7807   3.2129   3.4574
     3.4574   3.8685   4.2531   4.2531   5.8203   6.6078   6.6260   6.6260

     occupation numbers 
     1.0000   1.0000   1.0000   1.0000   1.0000   1.0000   1.0000   1.0000
     1.0000   1.0000   1.0000   1.0000   1.0000   1.0000   1.0000   1.0000
     1.0000   1.0000   1.0000   1.0000   0.0000   0.0000   0.0000   0.0000

          k = 0.0000 0.0000-0.5000 (  3804 PWs)   bands (ev):

   -53.1886 -29.6645 -29.2871 -29.2812 -29.2812 -11.7909 -11.5447 -11.5447
   -10.7238 -10.6482 -10.6170   1.7989   2.7957   2.7957   3.1761   3.4181
     3.4181   3.8526   4.2483   4.2483   5.8224   6.6081   6.6611   6.6611

     occupation numbers 
     1.0000   1.0000   1.0000   1.0000   1.0000   1.0000   1.0000   1.0000
     1.0000   1.0000   1.0000   1.0000   1.0000   1.0000   1.0000   1.0000
     1.0000   1.0000   1.0000   1.0000   0.0000   0.0000   0.0000   0.0000

          k = 0.0000 0.0714 0.0714 (  3827 PWs)   bands (ev):

   -53.1886 -29.6657 -29.2817 -29.2817 -29.2814 -11.5774 -11.5570 -11.5498
   -11.0857 -10.6235 -10.6205   2.5701   2.6157   2.6396   4.0740   4.1349
     4.2098   4.2462   4.3293   4.3561   5.8343   5.8496   5.8898   6.6521

     occupation numbers 
     1.0000   1.0000   1.0000   1.0000   1.0000   1.0000   1.0000   1.0000
     1.0000   1.0000   1.0000   1.0000   1.0000   1.0000   1.0000   1.0000
     1.0000   1.0000   1.0000   1.0000   0.0000   0.0000   0.0000   0.0000

          k = 0.0000 0.0714 0.1429 (  3822 PWs)   bands (ev):

   -53.1886 -29.6655 -29.2825 -29.2817 -29.2814 -11.6150 -11.5589 -11.5490
   -11.0338 -10.6223 -10.6133   2.4641   2.6186   2.6544   3.8818   4.0296
     4.0671   4.1976   4.2824   4.3079   5.8459   5.9946   6.0223   6.6715

     occupation numbers 
     1.0000   1.0000   1.0000   1.0000   1.0000   1.0000   1.0000   1.0000
     1.0000   1.0000   1.0000   1.0000   1.0000   1.0000   1.0000   1.0000
     1.0000   1.0000   1.0000   1.0000   0.0000   0.0000   0.0000   0.0000

          k = 0.0000 0.0714 0.2143 (  3826 PWs)   bands (ev):

   -53.1886 -29.6652 -29.2836 -29.2816 -29.2813 -11.6648 -11.5575 -11.5479
   -10.9642 -10.6212 -10.6054   2.2988   2.6374   2.6792   3.6281   3.8724
     3.8837   4.1461   4.2488   4.2696   5.8537   6.1846   6.1982   6.6764

     occupation numbers 
     1.0000   1.0000   1.0000   1.0000   1.0000   1.0000   1.0000   1.0000
     1.0000   1.0000   1.0000   1.0000   1.0000   1.0000   1.0000   1.0000
     1.0000   1.0000   1.0000   1.0000   0.0000   0.0000   0.0000   0.0000

          k = 0.0000 0.0714 0.2857 (  3822 PWs)   bands (ev):

   -53.1886 -29.6649 -29.2849 -29.2816 -29.2813 -11.7129 -11.5554 -11.5466
   -10.8883 -10.6200 -10.6024   2.1144   2.6653   2.7132   3.3873   3.7044
     3.7243   4.0755   4.2240   4.2399   5.8622   6.3713   6.3770   6.6791

     occupation numbers 
     1.0000   1.0000   1.0000   1.0000   1.0000   1.0000   1.0000   1.0000
     1.0000   1.0000   1.0000   1.0000   1.0000   1.0000   1.0000   1.0000
     1.0000   1.0000   1.0000   1.0000   0.0000   0.0000   0.0000   0.0000

          k = 0.0000 0.0714 0.3571 (  3824 PWs)   bands (ev):

   -53.1886 -29.6646 -29.2860 -29.2815 -29.2812 -11.7518 -11.5535 -11.5455
   -10.8149 -10.6193 -10.6087   1.9489   2.6997   2.7528   3.1983   3.5556
     3.5970   4.0094   4.2048   4.2171   5.8700   6.5251   6.5275   6.6807

     occupation numbers 
     1.0000   1.0000   1.0000   1.0000   1.0000   1.0000   1.0000   1.0000
     1.0000   1.0000   1.0000   1.0000   1.0000   1.0000   1.0000   1.0000
     1.0000   1.0000   1.0000   1.0000   0.0000   0.0000   0.0000   0.0000

          k = 0.0000 0.0714 0.4286 (  3829 PWs)   bands (ev):

   -53.1886 -29.6644 -29.2868 -29.2815 -29.2812 -11.7768 -11.5521 -11.5447
   -10.7529 -10.6278 -10.6169   1.8351   2.7343   2.7887   3.0739   3.4497
     3.5135   3.9639   4.1922   4.2024   5.8754   6.6258   6.6278   6.6808

     occupation numbers 
     1.0000   1.0000   1.0000   1.0000   1.0000   1.0000   1.0000   1.0000
     1.0000   1.0000   1.0000   1.0000   1.0000   1.0000   1.0000   1.0000
     1.0000   1.0000   1.0000   1.0000   0.0000   0.0000   0.0000   0.0000

          k = 0.0000 0.0714-0.5000 (  3818 PWs)   bands (ev):

   -53.1886 -29.6644 -29.2871 -29.2815 -29.2812 -11.7854 -11.5516 -11.5444
   -10.7227 -10.6420 -10.6171   1.7947   2.7513   2.8041   3.0279   3.4102
     3.4843   3.9478   4.1878   4.1974   5.8773   6.6608   6.6658   6.6779

     occupation numbers 
     1.0000   1.0000   1.0000   1.0000   1.0000   1.0000   1.0000   1.0000
     1.0000   1.0000   1.0000   1.0000   1.0000   1.0000   1.0000   1.0000
     1.0000   1.0000   1.0000   1.0000   0.0000   0.0000   0.0000   0.0000

          k = 0.0000 0.1429 0.1429 (  3833 PWs)   bands (ev):

   -53.1886 -29.6653 -29.2825 -29.2824 -29.2813 -11.6301 -11.5750 -11.5482
   -10.9901 -10.6208 -10.6072   2.4114   2.5631   2.6700   3.6484   3.9587
     4.0245   4.1310   4.2273   4.2722   5.9758   6.0178   6.1143   6.7604

     occupation numbers 
     1.0000   1.0000   1.0000   1.0000   1.0000   1.0000   1.0000   1.0000
     1.0000   1.0000   1.0000   1.0000   1.0000   1.0000   1.0000   1.0000
     1.0000   1.0000   1.0000   1.0000   0.0000   0.0000   0.0000   0.0000

          k = 0.0000 0.1429 0.2143 (  3825 PWs)   bands (ev):

   -53.1886 -29.6650 -29.2836 -29.2824 -29.2813 -11.6647 -11.5798 -11.5471
   -10.9298 -10.6209 -10.5988   2.2734   2.5470   2.6961   3.3913   3.8305
     3.8830   4.0942   4.1615   4.2709   5.9986   6.1887   6.2541   6.7975

     occupation numbers 
     1.0000   1.0000   1.0000   1.0000   1.0000   1.0000   1.0000   1.0000
     1.0000   1.0000   1.0000   1.0000   1.0000   1.0000   1.0000   1.0000
     1.0000   1.0000   1.0000   1.0000   0.0000   0.0000   0.0000   0.0000

          k = 0.0000 0.1429 0.2857 (  3811 PWs)   bands (ev):

   -53.1886 -29.6646 -29.2849 -29.2824 -29.2813 -11.7050 -11.5778 -11.5458
   -10.8629 -10.6217 -10.5938   2.0973   2.5560   2.7320   3.1550   3.6763
     3.7436   4.0804   4.1186   4.2395   6.0061   6.3728   6.4103   6.8131

     occupation numbers 
     1.0000   1.0000   1.0000   1.0000   1.0000   1.0000   1.0000   1.0000
     1.0000   1.0000   1.0000   1.0000   1.0000   1.0000   1.0000   1.0000
     1.0000   1.0000   1.0000   1.0000   0.0000   0.0000   0.0000   0.0000

          k = 0.0000 0.1429 0.3571 (  3812 PWs)   bands (ev):

   -53.1886 -29.6643 -29.2861 -29.2824 -29.2812 -11.7394 -11.5743 -11.5446
   -10.7982 -10.6226 -10.5967   1.9343   2.5768   2.7741   2.9674   3.5330
     3.6389   4.0691   4.0898   4.1990   6.0122   6.5254   6.5502   6.8199

     occupation numbers 
     1.0000   1.0000   1.0000   1.0000   1.0000   1.0000   1.0000   1.0000
     1.0000   1.0000   1.0000   1.0000   1.0000   1.0000   1.0000   1.0000
     1.0000   1.0000   1.0000   1.0000   0.0000   0.0000   0.0000   0.0000

          k = 0.0000 0.1429 0.4286 (  3822 PWs)   bands (ev):

   -53.1886 -29.6641 -29.2869 -29.2824 -29.2812 -11.7621 -11.5716 -11.5438
   -10.7457 -10.6238 -10.6072   1.8211   2.6053   2.8126   2.8386   3.4281
     3.5744   4.0610   4.0725   4.1673   6.0164   6.6255   6.6475   6.8213

     occupation numbers 
     1.0000   1.0000   1.0000   1.0000   1.0000   1.0000   1.0000   1.0000
     1.0000   1.0000   1.0000   1.0000   1.0000   1.0000   1.0000   1.0000
     1.0000   1.0000   1.0000   1.0000   0.0000   0.0000   0.0000   0.0000

          k = 0.0000 0.1429-0.5000 (  3830 PWs)   bands (ev):

   -53.1886 -29.6641 -29.2871 -29.2824 -29.2812 -11.7699 -11.5706 -11.5436
   -10.7228 -10.6253 -10.6143   1.7807   2.6240   2.7865   2.8294   3.3883
     3.5526   4.0580   4.0666   4.1554   6.0179   6.6603   6.6830   6.8206

     occupation numbers 
     1.0000   1.0000   1.0000   1.0000   1.0000   1.0000   1.0000   1.0000
     1.0000   1.0000   1.0000   1.0000   1.0000   1.0000   1.0000   1.0000
     1.0000   1.0000   1.0000   1.0000   0.0000   0.0000   0.0000   0.0000

          k = 0.0000 0.2143 0.2143 (  3824 PWs)   bands (ev):

   -53.1886 -29.6646 -29.2837 -29.2835 -29.2813 -11.6730 -11.6001 -11.5459
   -10.8814 -10.6228 -10.5889   2.1964   2.4595   2.7244   3.1349   3.7484
     3.8474   3.9805   4.0504   4.3449   6.1608   6.2158   6.3536   6.8726

     occupation numbers 
     1.0000   1.0000   1.0000   1.0000   1.0000   1.0000   1.0000   1.0000
     1.0000   1.0000   1.0000   1.0000   1.0000   1.0000   1.0000   1.0000
     1.0000   1.0000   1.0000   1.0000   0.0000   0.0000   0.0000   0.0000

          k = 0.0000 0.2143 0.2857 (  3813 PWs)   bands (ev):

   -53.1886 -29.6643 -29.2849 -29.2836 -29.2812 -11.6956 -11.6057 -11.5446
   -10.8280 -10.6247 -10.5811   2.0541   2.4219   2.7633   2.9037   3.6274
     3.7574   3.9491   3.9737   4.3764   6.1880   6.3760   6.4784   6.9103

     occupation numbers 
     1.0000   1.0000   1.0000   1.0000   1.0000   1.0000   1.0000   1.0000
     1.0000   1.0000   1.0000   1.0000   1.0000   1.0000   1.0000   1.0000
     1.0000   1.0000   1.0000   1.0000   0.0000   0.0000   0.0000   0.0000

          k = 0.0000 0.2143 0.3571 (  3822 PWs)   bands (ev):

   -53.1886 -29.6639 -29.2861 -29.2836 -29.2812 -11.7215 -11.6026 -11.5435
   -10.7787 -10.6237 -10.5801   1.9019   2.4174   2.7235   2.8094   3.4983
     3.6776   3.9283   3.9413   4.3802   6.1935   6.5260   6.5991   6.9293

     occupation numbers 
     1.0000   1.0000   1.0000   1.0000   1.0000   1.0000   1.0000   1.0000
     1.0000   1.0000   1.0000   1.0000   1.0000   1.0000   1.0000   1.0000
     1.0000   1.0000   1.0000   1.0000   0.0000   0.0000   0.0000   0.0000

          k = 0.0000 0.2143 0.4286 (  3817 PWs)   bands (ev):

   -53.1886 -29.6637 -29.2869 -29.2836 -29.2811 -11.7402 -11.5986 -11.5427
   -10.7437 -10.6164 -10.5879   1.7916   2.4297   2.6028   2.8528   3.3971
     3.6286   3.9036   3.9373   4.3744   6.1966   6.6251   6.6864   6.9376

     occupation numbers 
     1.0000   1.0000   1.0000   1.0000   1.0000   1.0000   1.0000   1.0000
     1.0000   1.0000   1.0000   1.0000   1.0000   1.0000   1.0000   1.0000
     1.0000   1.0000   1.0000   1.0000   0.0000   0.0000   0.0000   0.0000

          k = 0.0000 0.2143-0.5000 (  3810 PWs)   bands (ev):

   -53.1886 -29.6636 -29.2872 -29.2836 -29.2811 -11.7469 -11.5970 -11.5424
   -10.7311 -10.6026 -10.6022   1.7517   2.4424   2.5544   2.8722   3.3571
     3.6123   3.8956   3.9358   4.3710   6.1977   6.6596   6.7185   6.9396

     occupation numbers 
     1.0000   1.0000   1.0000   1.0000   1.0000   1.0000   1.0000   1.0000
     1.0000   1.0000   1.0000   1.0000   1.0000   1.0000   1.0000   1.0000
     1.0000   1.0000   1.0000   1.0000   0.0000   0.0000   0.0000   0.0000

          k = 0.0000 0.2857 0.2857 (  3818 PWs)   bands (ev):

   -53.1886 -29.6638 -29.2851 -29.2848 -29.2812 -11.6925 -11.6267 -11.5433
   -10.7926 -10.6243 -10.5696   1.9627   2.3200   2.6789   2.8065   3.5520
     3.7459   3.8489   3.8737   4.4682   6.3500   6.3978   6.5726   6.9642

     occupation numbers 
     1.0000   1.0000   1.0000   1.0000   1.0000   1.0000   1.0000   1.0000
     1.0000   1.0000   1.0000   1.0000   1.0000   1.0000   1.0000   1.0000
     1.0000   1.0000   1.0000   1.0000   0.0000   0.0000   0.0000   0.0000

          k = 0.0000 0.2857 0.3571 (  3810 PWs)   bands (ev):

   -53.1886 -29.6635 -29.2861 -29.2850 -29.2811 -11.7024 -11.6309 -11.5422
   -10.7659 -10.6157 -10.5641   1.8379   2.2734   2.5074   2.8585   3.4536
     3.7093   3.7681   3.8535   4.5188   6.3731   6.5272   6.6708   6.9928

     occupation numbers 
     1.0000   1.0000   1.0000   1.0000   1.0000   1.0000   1.0000   1.0000
     1.0000   1.0000   1.0000   1.0000   1.0000   1.0000   1.0000   1.0000
     1.0000   1.0000   1.0000   1.0000   0.0000   0.0000   0.0000   0.0000

          k = 0.0000 0.2857 0.4286 (  3818 PWs)   bands (ev):

   -53.1885 -29.6632 -29.2870 -29.2850 -29.2811 -11.7152 -11.6270 -11.5413
   -10.7520 -10.5988 -10.5674   1.7367   2.2612   2.3982   2.9092   3.3625
     3.6798   3.7267   3.8509   4.5413   6.3760   6.6247   6.7452   7.0067

     occupation numbers 
     1.0000   1.0000   1.0000   1.0000   1.0000   1.0000   1.0000   1.0000
     1.0000   1.0000   1.0000   1.0000   1.0000   1.0000   1.0000   1.0000
     1.0000   1.0000   1.0000   1.0000   0.0000   0.0000   0.0000   0.0000

          k = 0.0000 0.2857-0.5000 (  3802 PWs)   bands (ev):

   -53.1885 -29.6631 -29.2873 -29.2850 -29.2811 -11.7203 -11.6248 -11.5410
   -10.7482 -10.5824 -10.5779   1.6989   2.2622   2.3582   2.9331   3.3230
     3.6695   3.7141   3.8508   4.5474   6.3768   6.6589   6.7729   7.0107

     occupation numbers 
     1.0000   1.0000   1.0000   1.0000   1.0000   1.0000   1.0000   1.0000
     1.0000   1.0000   1.0000   1.0000   1.0000   1.0000   1.0000   1.0000
     1.0000   1.0000   1.0000   1.0000   0.0000   0.0000   0.0000   0.0000

          k = 0.0000 0.3571 0.3571 (  3798 PWs)   bands (ev):

   -53.1885 -29.6631 -29.2863 -29.2861 -29.2811 -11.6900 -11.6498 -11.5410
   -10.7634 -10.5975 -10.5531   1.7424   2.1839   2.3450   2.9189   3.3967
     3.6385   3.7251   3.8091   4.6080   6.5114   6.5393   6.7500   7.0269

     occupation numbers 
     1.0000   1.0000   1.0000   1.0000   1.0000   1.0000   1.0000   1.0000
     1.0000   1.0000   1.0000   1.0000   1.0000   1.0000   1.0000   1.0000
     1.0000   1.0000   1.0000   1.0000   0.0000   0.0000   0.0000   0.0000

          k = 0.0000 0.3571 0.4286 (  3809 PWs)   bands (ev):

   -53.1885 -29.6628 -29.2870 -29.2862 -29.2810 -11.6919 -11.6512 -11.5402
   -10.7662 -10.5760 -10.5508   1.6555   2.1450   2.2451   2.9808   3.3295
     3.5622   3.7226   3.7993   4.6551   6.5251   6.6246   6.8121   7.0435

     occupation numbers 
     1.0000   1.0000   1.0000   1.0000   1.0000   1.0000   1.0000   1.0000
     1.0000   1.0000   1.0000   1.0000   1.0000   1.0000   1.0000   1.0000
     1.0000   1.0000   1.0000   1.0000   0.0000   0.0000   0.0000   0.0000

          k = 0.0000 0.3571-0.5000 (  3810 PWs)   bands (ev):

   -53.1885 -29.6627 -29.2873 -29.2862 -29.2810 -11.6953 -11.6489 -11.5399
   -10.7679 -10.5606 -10.5571   1.6214   2.1354   2.2108   3.0128   3.2927
     3.5391   3.7190   3.7996   4.6695   6.5257   6.6584   6.8358   7.0485

     occupation numbers 
     1.0000   1.0000   1.0000   1.0000   1.0000   1.0000   1.0000   1.0000
     1.0000   1.0000   1.0000   1.0000   1.0000   1.0000   1.0000   1.0000
     1.0000   1.0000   1.0000   1.0000   0.0000   0.0000   0.0000   0.0000

          k = 0.0000 0.4286 0.4286 (  3816 PWs)   bands (ev):

   -53.1885 -29.6625 -29.2871 -29.2870 -29.2810 -11.6774 -11.6652 -11.5393
   -10.7785 -10.5558 -10.5422   1.5788   2.0878   2.1512   3.0613   3.2982
     3.4318   3.7485   3.7752   4.7185   6.6198   6.6279   6.8660   7.0614

     occupation numbers 
     1.0000   1.0000   1.0000   1.0000   1.0000   1.0000   1.0000   1.0000
     1.0000   1.0000   1.0000   1.0000   1.0000   1.0000   1.0000   1.0000
     1.0000   1.0000   1.0000   1.0000   0.0000   0.0000   0.0000   0.0000

          k = 0.0000 0.4286-0.5000 (  3812 PWs)   bands (ev):

   -53.1885 -29.6624 -29.2874 -29.2871 -29.2810 -11.6773 -11.6650 -11.5390
   -10.7832 -10.5443 -10.5432   1.5479   2.0717   2.1196   3.1114   3.2719
     3.3801   3.7527   3.7729   4.7385   6.6238   6.6581   6.8867   7.0667

     occupation numbers 
     1.0000   1.0000   1.0000   1.0000   1.0000   1.0000   1.0000   1.0000
     1.0000   1.0000   1.0000   1.0000   1.0000   1.0000   1.0000   1.0000
     1.0000   1.0000   1.0000   1.0000   0.0000   0.0000   0.0000   0.0000

          k = 0.0000-0.5000-0.5000 (  3836 PWs)   bands (ev):

   -53.1885 -29.6623 -29.2874 -29.2874 -29.2810 -11.6707 -11.6707 -11.5387
   -10.7890 -10.5384 -10.5384   1.5180   2.0534   2.0888   3.2064   3.2645
     3.2645   3.7646   3.7646   4.7604   6.6580   6.6580   6.9064   7.0721

     occupation numbers 
     1.0000   1.0000   1.0000   1.0000   1.0000   1.0000   1.0000   1.0000
     1.0000   1.0000   1.0000   1.0000   1.0000   1.0000   1.0000   1.0000
     1.0000   1.0000   1.0000   1.0000   0.0000   0.0000   0.0000   0.0000

          k = 0.0714 0.0714 0.0714 (  3830 PWs)   bands (ev):

   -53.1886 -29.6656 -29.2817 -29.2817 -29.2816 -11.5854 -11.5565 -11.5565
   -11.0672 -10.6204 -10.6204   2.5520   2.6203   2.6203   4.0496   4.0496
     4.1529   4.2349   4.3219   4.3219   5.8754   5.8994   5.8994   6.7593

     occupation numbers 
     1.0000   1.0000   1.0000   1.0000   1.0000   1.0000   1.0000   1.0000
     1.0000   1.0000   1.0000   1.0000   1.0000   1.0000   1.0000   1.0000
     1.0000   1.0000   1.0000   1.0000   0.0000   0.0000   0.0000   0.0000

          k = 0.0714 0.0714 0.1429 (  3829 PWs)   bands (ev):

   -53.1886 -29.6654 -29.2825 -29.2817 -29.2816 -11.6178 -11.5609 -11.5551
   -11.0185 -10.6200 -10.6127   2.4546   2.6140   2.6342   3.8644   3.8950
     4.0525   4.2316   4.2373   4.2990   5.8933   6.0195   6.0308   6.7602

     occupation numbers 
     1.0000   1.0000   1.0000   1.0000   1.0000   1.0000   1.0000   1.0000
     1.0000   1.0000   1.0000   1.0000   1.0000   1.0000   1.0000   1.0000
     1.0000   1.0000   1.0000   1.0000   0.0000   0.0000   0.0000   0.0000

          k = 0.0714 0.0714 0.2143 (  3822 PWs)   bands (ev):

   -53.1886 -29.6651 -29.2836 -29.2816 -29.2816 -11.6641 -11.5604 -11.5531
   -10.9523 -10.6195 -10.6046   2.2927   2.6284   2.6576   3.5886   3.7214
     3.9617   4.1634   4.1892   4.2710   5.9017   6.1960   6.2042   6.7612

     occupation numbers 
     1.0000   1.0000   1.0000   1.0000   1.0000   1.0000   1.0000   1.0000
     1.0000   1.0000   1.0000   1.0000   1.0000   1.0000   1.0000   1.0000
     1.0000   1.0000   1.0000   1.0000   0.0000   0.0000   0.0000   0.0000

          k = 0.0714 0.0714 0.2857 (  3825 PWs)   bands (ev):

   -53.1886 -29.6648 -29.2849 -29.2816 -29.2816 -11.7100 -11.5588 -11.5508
   -10.8794 -10.6189 -10.6012   2.1098   2.6529   2.6897   3.3387   3.5535
     3.8446   4.1210   4.1252   4.2465   5.9103   6.3758   6.3809   6.7618

     occupation numbers 
     1.0000   1.0000   1.0000   1.0000   1.0000   1.0000   1.0000   1.0000
     1.0000   1.0000   1.0000   1.0000   1.0000   1.0000   1.0000   1.0000
     1.0000   1.0000   1.0000   1.0000   0.0000   0.0000   0.0000   0.0000

          k = 0.0714 0.0714 0.3571 (  3822 PWs)   bands (ev):

   -53.1886 -29.6645 -29.2860 -29.2815 -29.2815 -11.7475 -11.5570 -11.5488
   -10.8087 -10.6183 -10.6072   1.9447   2.6851   2.7277   3.1439   3.4099
     3.7380   4.0631   4.0950   4.2266   5.9179   6.5270   6.5308   6.7611

     occupation numbers 
     1.0000   1.0000   1.0000   1.0000   1.0000   1.0000   1.0000   1.0000
     1.0000   1.0000   1.0000   1.0000   1.0000   1.0000   1.0000   1.0000
     1.0000   1.0000   1.0000   1.0000   0.0000   0.0000   0.0000   0.0000

          k = 0.0714 0.0714 0.4286 (  3826 PWs)   bands (ev):

   -53.1886 -29.6643 -29.2868 -29.2815 -29.2815 -11.7717 -11.5558 -11.5474
   -10.7492 -10.6233 -10.6180   1.8310   2.7206   2.7629   3.0130   3.3083
     3.6658   4.0194   4.0795   4.2134   5.9232   6.6270   6.6324   6.7583

     occupation numbers 
     1.0000   1.0000   1.0000   1.0000   1.0000   1.0000   1.0000   1.0000
     1.0000   1.0000   1.0000   1.0000   1.0000   1.0000   1.0000   1.0000
     1.0000   1.0000   1.0000   1.0000   0.0000   0.0000   0.0000   0.0000

          k = 0.0714 0.0714-0.5000 (  3840 PWs)   bands (ev):

   -53.1886 -29.6642 -29.2871 -29.2815 -29.2815 -11.7801 -11.5553 -11.5469
   -10.7208 -10.6365 -10.6178   1.7906   2.7402   2.7783   2.9622   3.2702
     3.6404   4.0038   4.0742   4.2088   5.9250   6.6620   6.6699   6.7553

     occupation numbers 
     1.0000   1.0000   1.0000   1.0000   1.0000   1.0000   1.0000   1.0000
     1.0000   1.0000   1.0000   1.0000   1.0000   1.0000   1.0000   1.0000
     1.0000   1.0000   1.0000   1.0000   0.0000   0.0000   0.0000   0.0000

          k = 0.0714 0.1429 0.1429 (  3827 PWs)   bands (ev):

   -53.1886 -29.6652 -29.2825 -29.2824 -29.2816 -11.6322 -11.5739 -11.5556
   -10.9772 -10.6177 -10.6078   2.4009   2.5670   2.6411   3.6483   3.8488
     3.8988   4.1898   4.2394   4.2798   6.0025   6.0501   6.1187   6.8769

     occupation numbers 
     1.0000   1.0000   1.0000   1.0000   1.0000   1.0000   1.0000   1.0000
     1.0000   1.0000   1.0000   1.0000   1.0000   1.0000   1.0000   1.0000
     1.0000   1.0000   1.0000   1.0000   0.0000   0.0000   0.0000   0.0000

          k = 0.0714 0.1429 0.2143 (  3827 PWs)   bands (ev):

   -53.1886 -29.6649 -29.2836 -29.2824 -29.2816 -11.6642 -11.5793 -11.5537
   -10.9195 -10.6181 -10.5996   2.2663   2.5483   2.6637   3.3896   3.6708
     3.8569   4.1013   4.2026   4.2829   6.0286   6.2051   6.2579   6.9095

     occupation numbers 
     1.0000   1.0000   1.0000   1.0000   1.0000   1.0000   1.0000   1.0000
     1.0000   1.0000   1.0000   1.0000   1.0000   1.0000   1.0000   1.0000
     1.0000   1.0000   1.0000   1.0000   0.0000   0.0000   0.0000   0.0000

          k = 0.0714 0.1429 0.2857 (  3822 PWs)   bands (ev):

   -53.1886 -29.6645 -29.2849 -29.2824 -29.2815 -11.7023 -11.5780 -11.5514
   -10.8551 -10.6192 -10.5947   2.0924   2.5549   2.6957   3.1504   3.4943
     3.8243   4.0082   4.1798   4.2546   6.0379   6.3807   6.4136   6.9187

     occupation numbers 
     1.0000   1.0000   1.0000   1.0000   1.0000   1.0000   1.0000   1.0000
     1.0000   1.0000   1.0000   1.0000   1.0000   1.0000   1.0000   1.0000
     1.0000   1.0000   1.0000   1.0000   0.0000   0.0000   0.0000   0.0000

          k = 0.0714 0.1429 0.3571 (  3815 PWs)   bands (ev):

   -53.1886 -29.6642 -29.2861 -29.2824 -29.2815 -11.7353 -11.5751 -11.5492
   -10.7925 -10.6204 -10.5975   1.9302   2.5746   2.7342   2.9606   3.3484
     3.7857   3.9418   4.1621   4.2158   6.0452   6.5299   6.5535   6.9205

     occupation numbers 
     1.0000   1.0000   1.0000   1.0000   1.0000   1.0000   1.0000   1.0000
     1.0000   1.0000   1.0000   1.0000   1.0000   1.0000   1.0000   1.0000
     1.0000   1.0000   1.0000   1.0000   0.0000   0.0000   0.0000   0.0000

          k = 0.0714 0.1429 0.4286 (  3821 PWs)   bands (ev):

   -53.1886 -29.6640 -29.2869 -29.2824 -29.2815 -11.7572 -11.5728 -11.5477
   -10.7415 -10.6212 -10.6083   1.8171   2.6037   2.7706   2.8298   3.2457
     3.7527   3.9059   4.1507   4.1845   6.0500   6.6292   6.6509   6.9185

     occupation numbers 
     1.0000   1.0000   1.0000   1.0000   1.0000   1.0000   1.0000   1.0000
     1.0000   1.0000   1.0000   1.0000   1.0000   1.0000   1.0000   1.0000
     1.0000   1.0000   1.0000   1.0000   0.0000   0.0000   0.0000   0.0000

          k = 0.0714 0.1429-0.5000 (  3822 PWs)   bands (ev):

   -53.1886 -29.6639 -29.2872 -29.2824 -29.2815 -11.7648 -11.5720 -11.5471
   -10.7192 -10.6214 -10.6166   1.7768   2.6240   2.7733   2.7897   3.2068
     3.7399   3.8949   4.1470   4.1724   6.0517   6.6640   6.6864   6.9166

     occupation numbers 
     1.0000   1.0000   1.0000   1.0000   1.0000   1.0000   1.0000   1.0000
     1.0000   1.0000   1.0000   1.0000   1.0000   1.0000   1.0000   1.0000
     1.0000   1.0000   1.0000   1.0000   0.0000   0.0000   0.0000   0.0000

          k = 0.0714 0.2143 0.2143 (  3811 PWs)   bands (ev):

   -53.1886 -29.6645 -29.2837 -29.2835 -29.2816 -11.6722 -11.5983 -11.5520
   -10.8731 -10.6198 -10.5905   2.1895   2.4623   2.6872   3.1381   3.6281
     3.7048   4.0710   4.1122   4.3526   6.1750   6.2364   6.3573   6.9953

     occupation numbers 
     1.0000   1.0000   1.0000   1.0000   1.0000   1.0000   1.0000   1.0000
     1.0000   1.0000   1.0000   1.0000   1.0000   1.0000   1.0000   1.0000
     1.0000   1.0000   1.0000   1.0000   0.0000   0.0000   0.0000   0.0000

          k = 0.0714 0.2143 0.2857 (  3817 PWs)   bands (ev):

   -53.1886 -29.6642 -29.2849 -29.2836 -29.2815 -11.6932 -11.6042 -11.5498
   -10.8213 -10.6222 -10.5831   2.0492   2.4233   2.7201   2.9091   3.4781
     3.6768   3.9847   4.0810   4.3827   6.2062   6.3868   6.4818   7.0315

     occupation numbers 
     1.0000   1.0000   1.0000   1.0000   1.0000   1.0000   1.0000   1.0000
     1.0000   1.0000   1.0000   1.0000   1.0000   1.0000   1.0000   1.0000
     1.0000   1.0000   1.0000   1.0000   0.0000   0.0000   0.0000   0.0000

          k = 0.0714 0.2143 0.3571 (  3813 PWs)   bands (ev):

   -53.1886 -29.6638 -29.2861 -29.2836 -29.2815 -11.7178 -11.6017 -11.5478
   -10.7731 -10.6221 -10.5822   1.8979   2.4180   2.7197   2.7716   3.3344
     3.6799   3.8933   4.0690   4.3861   6.2139   6.5330   6.6023   7.0466

     occupation numbers 
     1.0000   1.0000   1.0000   1.0000   1.0000   1.0000   1.0000   1.0000
     1.0000   1.0000   1.0000   1.0000   1.0000   1.0000   1.0000   1.0000
     1.0000   1.0000   1.0000   1.0000   0.0000   0.0000   0.0000   0.0000

          k = 0.0714 0.2143 0.4286 (  3822 PWs)   bands (ev):

   -53.1886 -29.6636 -29.2869 -29.2836 -29.2814 -11.7357 -11.5982 -11.5464
   -10.7382 -10.6164 -10.5896   1.7878   2.4305   2.6051   2.8065   3.2299
     3.6959   3.8209   4.0614   4.3799   6.2182   6.6312   6.6895   7.0516

     occupation numbers 
     1.0000   1.0000   1.0000   1.0000   1.0000   1.0000   1.0000   1.0000
     1.0000   1.0000   1.0000   1.0000   1.0000   1.0000   1.0000   1.0000
     1.0000   1.0000   1.0000   1.0000   0.0000   0.0000   0.0000   0.0000

          k = 0.0714 0.2143-0.5000 (  3812 PWs)   bands (ev):

   -53.1886 -29.6635 -29.2872 -29.2836 -29.2814 -11.7421 -11.5967 -11.5458
   -10.7255 -10.6064 -10.6006   1.7480   2.4436   2.5568   2.8256   3.1891
     3.7111   3.7864   4.0586   4.3765   6.2196   6.6658   6.7215   7.0523

     occupation numbers 
[...]
     1.0000   1.0000   1.0000   1.0000   0.0000   0.0000   0.0000   0.0000

          k = 0.2143 0.2857 0.2857 (  3815 PWs)   bands (ev):

   -53.1885 -29.6631 -29.2850 -29.2848 -29.2835 -11.6745 -11.6061 -11.5772
   -10.7458 -10.6117 -10.5912   1.9071   2.3352   2.4815   2.7114   3.0269
     3.0443   4.2436   4.2664   4.5154   6.4721   6.5308   6.5998   7.7828

     occupation numbers 
     1.0000   1.0000   1.0000   1.0000   1.0000   1.0000   1.0000   1.0000
     1.0000   1.0000   1.0000   1.0000   1.0000   1.0000   1.0000   1.0000
     1.0000   1.0000   1.0000   1.0000   0.0000   0.0000   0.0000   0.0000

          k = 0.2143 0.2857 0.3571 (  3817 PWs)   bands (ev):

   -53.1885 -29.6628 -29.2861 -29.2849 -29.2835 -11.6762 -11.6129 -11.5709
   -10.7195 -10.6160 -10.5864   1.7907   2.2812   2.4938   2.5643   2.8957
     3.0432   4.2550   4.2826   4.5538   6.5080   6.6246   6.6962   7.8076

     occupation numbers 
     1.0000   1.0000   1.0000   1.0000   1.0000   1.0000   1.0000   1.0000
     1.0000   1.0000   1.0000   1.0000   1.0000   1.0000   1.0000   1.0000
     1.0000   1.0000   1.0000   1.0000   0.0000   0.0000   0.0000   0.0000

          k = 0.2143 0.2857 0.4286 (  3821 PWs)   bands (ev):

   -53.1885 -29.6625 -29.2870 -29.2849 -29.2835 -11.6817 -11.6137 -11.5656
   -10.7030 -10.6167 -10.5840   1.6920   2.2653   2.4535   2.5264   2.8015
     3.0542   4.2639   4.2821   4.5722   6.5185   6.7056   6.7697   7.8097

     occupation numbers 
     1.0000   1.0000   1.0000   1.0000   1.0000   1.0000   1.0000   1.0000
     1.0000   1.0000   1.0000   1.0000   1.0000   1.0000   1.0000   1.0000
     1.0000   1.0000   1.0000   1.0000   0.0000   0.0000   0.0000   0.0000

          k = 0.2143 0.2857-0.5000 (  3824 PWs)   bands (ev):

   -53.1885 -29.6624 -29.2873 -29.2849 -29.2835 -11.6844 -11.6133 -11.5637
   -10.6977 -10.6158 -10.5836   1.6544   2.2650   2.4189   2.5360   2.7658
     3.0588   4.2709   4.2766   4.5772   6.5217   6.7355   6.7972   7.8091

     occupation numbers 
     1.0000   1.0000   1.0000   1.0000   1.0000   1.0000   1.0000   1.0000
     1.0000   1.0000   1.0000   1.0000   1.0000   1.0000   1.0000   1.0000
     1.0000   1.0000   1.0000   1.0000   0.0000   0.0000   0.0000   0.0000

          k = 0.2143 0.3571 0.3571 (  3813 PWs)   bands (ev):

   -53.1885 -29.6624 -29.2862 -29.2861 -29.2835 -11.6645 -11.6242 -11.5670
   -10.7112 -10.6101 -10.5819   1.6974   2.1923   2.4219   2.5213   2.8982
     2.9048   4.2756   4.3085   4.6278   6.6133   6.6487   6.7736   7.8687

     occupation numbers 
     1.0000   1.0000   1.0000   1.0000   1.0000   1.0000   1.0000   1.0000
     1.0000   1.0000   1.0000   1.0000   1.0000   1.0000   1.0000   1.0000
     1.0000   1.0000   1.0000   1.0000   0.0000   0.0000   0.0000   0.0000

          k = 0.2143 0.3571 0.4286 (  3813 PWs)   bands (ev):

   -53.1885 -29.6621 -29.2870 -29.2861 -29.2834 -11.6616 -11.6275 -11.5632
   -10.7106 -10.6009 -10.5790   1.6113   2.1511   2.3400   2.5426   2.8045
     2.9133   4.2914   4.3127   4.6716   6.6364   6.7170   6.8350   7.8856

     occupation numbers 
     1.0000   1.0000   1.0000   1.0000   1.0000   1.0000   1.0000   1.0000
     1.0000   1.0000   1.0000   1.0000   1.0000   1.0000   1.0000   1.0000
     1.0000   1.0000   1.0000   1.0000   0.0000   0.0000   0.0000   0.0000

          k = 0.2143 0.3571-0.5000 (  3820 PWs)   bands (ev):

   -53.1885 -29.6620 -29.2873 -29.2861 -29.2834 -11.6623 -11.6269 -11.5617
   -10.7114 -10.5964 -10.5783   1.5772   2.1406   2.3110   2.5557   2.7671
     2.9181   4.3024   4.3073   4.6856   6.6399   6.7466   6.8583   7.8887

     occupation numbers 
     1.0000   1.0000   1.0000   1.0000   1.0000   1.0000   1.0000   1.0000
     1.0000   1.0000   1.0000   1.0000   1.0000   1.0000   1.0000   1.0000
     1.0000   1.0000   1.0000   1.0000   0.0000   0.0000   0.0000   0.0000

          k = 0.2143 0.4286 0.4286 (  3817 PWs)   bands (ev):

   -53.1885 -29.6618 -29.2870 -29.2870 -29.2834 -11.6486 -11.6364 -11.5605
   -10.7204 -10.5858 -10.5757   1.5348   2.0922   2.2641   2.5697   2.8101
     2.8211   4.3096   4.3229   4.7330   6.7168   6.7276   6.8883   7.9096

     occupation numbers 
     1.0000   1.0000   1.0000   1.0000   1.0000   1.0000   1.0000   1.0000
     1.0000   1.0000   1.0000   1.0000   1.0000   1.0000   1.0000   1.0000
     1.0000   1.0000   1.0000   1.0000   0.0000   0.0000   0.0000   0.0000

          k = 0.2143 0.4286-0.5000 (  3818 PWs)   bands (ev):

   -53.1885 -29.6617 -29.2873 -29.2870 -29.2834 -11.6465 -11.6370 -11.5594
   -10.7244 -10.5798 -10.5747   1.5038   2.0754   2.2379   2.5856   2.7766
     2.8204   4.3200   4.3213   4.7532   6.7244   6.7530   6.9088   7.9147

     occupation numbers 
     1.0000   1.0000   1.0000   1.0000   1.0000   1.0000   1.0000   1.0000
     1.0000   1.0000   1.0000   1.0000   1.0000   1.0000   1.0000   1.0000
     1.0000   1.0000   1.0000   1.0000   0.0000   0.0000   0.0000   0.0000

          k = 0.2143-0.5000-0.5000 (  3824 PWs)   bands (ev):

   -53.1885 -29.6616 -29.2873 -29.2873 -29.2834 -11.6407 -11.6407 -11.5584
   -10.7295 -10.5735 -10.5735   1.4740   2.0565   2.2125   2.6031   2.7807
     2.7807   4.3256   4.3256   4.7755   6.7551   6.7551   6.9283   7.9203

     occupation numbers 
     1.0000   1.0000   1.0000   1.0000   1.0000   1.0000   1.0000   1.0000
     1.0000   1.0000   1.0000   1.0000   1.0000   1.0000   1.0000   1.0000
     1.0000   1.0000   1.0000   1.0000   0.0000   0.0000   0.0000   0.0000

          k = 0.2857 0.2857 0.2857 (  3809 PWs)   bands (ev):

   -53.1885 -29.6627 -29.2849 -29.2849 -29.2848 -11.6661 -11.5940 -11.5940
   -10.7195 -10.6040 -10.6040   1.8355   2.3468   2.3468   2.6572   2.8806
     2.8806   4.3322   4.3322   4.5590   6.5596   6.6250   6.6250   8.1499

     occupation numbers 
     1.0000   1.0000   1.0000   1.0000   1.0000   1.0000   1.0000   1.0000
     1.0000   1.0000   1.0000   1.0000   1.0000   1.0000   1.0000   1.0000
     1.0000   1.0000   1.0000   1.0000   0.0000   0.0000   0.0000   0.0000

          k = 0.2857 0.2857 0.3571 (  3809 PWs)   bands (ev):

   -53.1885 -29.6623 -29.2861 -29.2849 -29.2848 -11.6616 -11.6056 -11.5827
   -10.6968 -10.6159 -10.5962   1.7310   2.2668   2.3608   2.5413   2.7533
     2.8604   4.3627   4.3889   4.5963   6.6051   6.6905   6.7209   8.1399

     occupation numbers 
     1.0000   1.0000   1.0000   1.0000   1.0000   1.0000   1.0000   1.0000
     1.0000   1.0000   1.0000   1.0000   1.0000   1.0000   1.0000   1.0000
     1.0000   1.0000   1.0000   1.0000   0.0000   0.0000   0.0000   0.0000

          k = 0.2857 0.2857 0.4286 (  3821 PWs)   bands (ev):

   -53.1885 -29.6621 -29.2869 -29.2849 -29.2849 -11.6618 -11.6102 -11.5747
   -10.6820 -10.6242 -10.5899   1.6382   2.2375   2.3745   2.4522   2.6701
     2.8686   4.3768   4.4186   4.6167   6.6186   6.7586   6.7934   8.1318

     occupation numbers 
     1.0000   1.0000   1.0000   1.0000   1.0000   1.0000   1.0000   1.0000
     1.0000   1.0000   1.0000   1.0000   1.0000   1.0000   1.0000   1.0000
     1.0000   1.0000   1.0000   1.0000   0.0000   0.0000   0.0000   0.0000

          k = 0.2857 0.2857-0.5000 (  3824 PWs)   bands (ev):

   -53.1885 -29.6620 -29.2873 -29.2849 -29.2848 -11.6627 -11.6110 -11.5719
   -10.6770 -10.6272 -10.5873   1.6021   2.2325   2.3808   2.4195   2.6403
     2.8732   4.3812   4.4275   4.6227   6.6224   6.7848   6.8204   8.1286

     occupation numbers 
     1.0000   1.0000   1.0000   1.0000   1.0000   1.0000   1.0000   1.0000
     1.0000   1.0000   1.0000   1.0000   1.0000   1.0000   1.0000   1.0000
     1.0000   1.0000   1.0000   1.0000   0.0000   0.0000   0.0000   0.0000

          k = 0.2857 0.3571 0.3571 (  3819 PWs)   bands (ev):

   -53.1885 -29.6620 -29.2861 -29.2861 -29.2848 -11.6496 -11.6089 -11.5817
   -10.6830 -10.6155 -10.5991   1.6419   2.1983   2.3325   2.4625   2.7119
     2.7382   4.4251   4.4496   4.6486   6.6922   6.7263   6.7881   8.2702

     occupation numbers 
     1.0000   1.0000   1.0000   1.0000   1.0000   1.0000   1.0000   1.0000
     1.0000   1.0000   1.0000   1.0000   1.0000   1.0000   1.0000   1.0000
     1.0000   1.0000   1.0000   1.0000   0.0000   0.0000   0.0000   0.0000

          k = 0.2857 0.3571 0.4286 (  3817 PWs)   bands (ev):

   -53.1885 -29.6617 -29.2869 -29.2861 -29.2848 -11.6435 -11.6137 -11.5757
   -10.6794 -10.6164 -10.5942   1.5592   2.1532   2.3397   2.3913   2.6393
     2.7343   4.4525   4.4833   4.6864   6.7171   6.7834   6.8490   8.2887

     occupation numbers 
     1.0000   1.0000   1.0000   1.0000   1.0000   1.0000   1.0000   1.0000
     1.0000   1.0000   1.0000   1.0000   1.0000   1.0000   1.0000   1.0000
     1.0000   1.0000   1.0000   1.0000   0.0000   0.0000   0.0000   0.0000

          k = 0.2857 0.3571-0.5000 (  3816 PWs)   bands (ev):

   -53.1885 -29.6616 -29.2872 -29.2861 -29.2848 -11.6424 -11.6147 -11.5732
   -10.6794 -10.6170 -10.5909   1.5261   2.1409   2.3453   2.3646   2.6100
     2.7390   4.4603   4.4940   4.6994   6.7215   6.8091   6.8723   8.2905

     occupation numbers 
     1.0000   1.0000   1.0000   1.0000   1.0000   1.0000   1.0000   1.0000
     1.0000   1.0000   1.0000   1.0000   1.0000   1.0000   1.0000   1.0000
     1.0000   1.0000   1.0000   1.0000   0.0000   0.0000   0.0000   0.0000

          k = 0.2857 0.4286 0.4286 (  3806 PWs)   bands (ev):

   -53.1885 -29.6614 -29.2869 -29.2869 -29.2848 -11.6313 -11.6190 -11.5725
   -10.6866 -10.6037 -10.5957   1.4845   2.0950   2.3286   2.3459   2.6446
     2.6531   4.4951   4.5083   4.7423   6.7866   6.7969   6.9014   8.3306

     occupation numbers 
     1.0000   1.0000   1.0000   1.0000   1.0000   1.0000   1.0000   1.0000
     1.0000   1.0000   1.0000   1.0000   1.0000   1.0000   1.0000   1.0000
     1.0000   1.0000   1.0000   1.0000   0.0000   0.0000   0.0000   0.0000

          k = 0.2857 0.4286-0.5000 (  3806 PWs)   bands (ev):

   -53.1885 -29.6614 -29.2872 -29.2869 -29.2848 -11.6279 -11.6203 -11.5709
   -10.6902 -10.6010 -10.5936   1.4543   2.0775   2.3066   2.3498   2.6190
     2.6546   4.5072   4.5168   4.7620   6.7948   6.8189   6.9218   8.3381

     occupation numbers 
     1.0000   1.0000   1.0000   1.0000   1.0000   1.0000   1.0000   1.0000
     1.0000   1.0000   1.0000   1.0000   1.0000   1.0000   1.0000   1.0000
     1.0000   1.0000   1.0000   1.0000   0.0000   0.0000   0.0000   0.0000

          k = 0.2857-0.5000-0.5000 (  3800 PWs)   bands (ev):

   -53.1885 -29.6613 -29.2872 -29.2872 -29.2848 -11.6226 -11.6226 -11.5697
   -10.6948 -10.5945 -10.5945   1.4250   2.0583   2.2847   2.3543   2.6249
     2.6249   4.5227   4.5227   4.7842   6.8220   6.8220   6.9413   8.3472

     occupation numbers 
     1.0000   1.0000   1.0000   1.0000   1.0000   1.0000   1.0000   1.0000
     1.0000   1.0000   1.0000   1.0000   1.0000   1.0000   1.0000   1.0000
     1.0000   1.0000   1.0000   1.0000   0.0000   0.0000   0.0000   0.0000

          k = 0.3571 0.3571 0.3571 (  3803 PWs)   bands (ev):

   -53.1885 -29.6616 -29.2861 -29.2861 -29.2860 -11.6361 -11.5946 -11.5946
   -10.6630 -10.6150 -10.6150   1.5604   2.2051   2.2051   2.4589   2.6169
     2.6169   4.5329   4.5329   4.6812   6.7682   6.8066   6.8066   8.6034

     occupation numbers 
     1.0000   1.0000   1.0000   1.0000   1.0000   1.0000   1.0000   1.0000
     1.0000   1.0000   1.0000   1.0000   1.0000   1.0000   1.0000   1.0000
     1.0000   1.0000   1.0000   1.0000   0.0000   0.0000   0.0000   0.0000

          k = 0.3571 0.3571 0.4286 (  3812 PWs)   bands (ev):

   -53.1885 -29.6614 -29.2869 -29.2860 -29.2860 -11.6269 -11.6032 -11.5845
   -10.6566 -10.6263 -10.6072   1.4841   2.1419   2.2113   2.4146   2.5404
     2.6079   4.5685   4.5965   4.7135   6.7992   6.8468   6.8685   8.5954

     occupation numbers 
     1.0000   1.0000   1.0000   1.0000   1.0000   1.0000   1.0000   1.0000
     1.0000   1.0000   1.0000   1.0000   1.0000   1.0000   1.0000   1.0000
     1.0000   1.0000   1.0000   1.0000   0.0000   0.0000   0.0000   0.0000

          k = 0.3571 0.3571-0.5000 (  3830 PWs)   bands (ev):

   -53.1885 -29.6613 -29.2872 -29.2860 -29.2860 -11.6238 -11.6060 -11.5808
   -10.6560 -10.6304 -10.6027   1.4532   2.1242   2.2140   2.3934   2.5141
     2.6120   4.5779   4.6173   4.7263   6.8043   6.8683   6.8920   8.5922

     occupation numbers 
     1.0000   1.0000   1.0000   1.0000   1.0000   1.0000   1.0000   1.0000
     1.0000   1.0000   1.0000   1.0000   1.0000   1.0000   1.0000   1.0000
     1.0000   1.0000   1.0000   1.0000   0.0000   0.0000   0.0000   0.0000

          k = 0.3571 0.4286 0.4286 (  3815 PWs)   bands (ev):

   -53.1885 -29.6611 -29.2869 -29.2869 -29.2860 -11.6151 -11.6028 -11.5834
   -10.6562 -10.6200 -10.6144   1.4137   2.0978   2.1848   2.3868   2.5225
     2.5356   4.6351   4.6457   4.7525   6.8586   6.8685   6.9137   8.6941

     occupation numbers 
     1.0000   1.0000   1.0000   1.0000   1.0000   1.0000   1.0000   1.0000
     1.0000   1.0000   1.0000   1.0000   1.0000   1.0000   1.0000   1.0000
     1.0000   1.0000   1.0000   1.0000   0.0000   0.0000   0.0000   0.0000

          k = 0.3571 0.4286-0.5000 (  3824 PWs)   bands (ev):

   -53.1885 -29.6610 -29.2872 -29.2869 -29.2860 -11.6105 -11.6048 -11.5811
   -10.6591 -10.6206 -10.6111   1.3850   2.0790   2.1837   2.3685   2.5025
     2.5349   4.6496   4.6643   4.7708   6.8673   6.8871   6.9340   8.7044

     occupation numbers 
     1.0000   1.0000   1.0000   1.0000   1.0000   1.0000   1.0000   1.0000
     1.0000   1.0000   1.0000   1.0000   1.0000   1.0000   1.0000   1.0000
     1.0000   1.0000   1.0000   1.0000   0.0000   0.0000   0.0000   0.0000

          k = 0.3571-0.5000-0.5000 (  3796 PWs)   bands (ev):

   -53.1885 -29.6609 -29.2872 -29.2872 -29.2860 -11.6057 -11.6057 -11.5797
   -10.6632 -10.6142 -10.6142   1.3572   2.0599   2.1813   2.3507   2.5088
     2.5088   4.6737   4.6737   4.7921   6.8910   6.8910   6.9532   8.7213

     occupation numbers 
     1.0000   1.0000   1.0000   1.0000   1.0000   1.0000   1.0000   1.0000
     1.0000   1.0000   1.0000   1.0000   1.0000   1.0000   1.0000   1.0000
     1.0000   1.0000   1.0000   1.0000   0.0000   0.0000   0.0000   0.0000

          k = 0.4286 0.4286 0.4286 (  3828 PWs)   bands (ev):

   -53.1885 -29.6609 -29.2869 -29.2869 -29.2869 -11.6033 -11.5912 -11.5912
   -10.6389 -10.6276 -10.6276   1.3476   2.1001   2.1001   2.4132   2.4631
     2.4631   4.7213   4.7213   4.7680   6.9125   6.9241   6.9241   8.9453

     occupation numbers 
     1.0000   1.0000   1.0000   1.0000   1.0000   1.0000   1.0000   1.0000
     1.0000   1.0000   1.0000   1.0000   1.0000   1.0000   1.0000   1.0000
     1.0000   1.0000   1.0000   1.0000   0.0000   0.0000   0.0000   0.0000

          k = 0.4286 0.4286-0.5000 (  3824 PWs)   bands (ev):

   -53.1885 -29.6608 -29.2872 -29.2869 -29.2869 -11.5981 -11.5948 -11.5870
   -10.6395 -10.6325 -10.6236   1.3207   2.0749   2.1010   2.4042   2.4385
     2.4620   4.7379   4.7502   4.7821   6.9232   6.9376   6.9452   8.9434

     occupation numbers 
     1.0000   1.0000   1.0000   1.0000   1.0000   1.0000   1.0000   1.0000
     1.0000   1.0000   1.0000   1.0000   1.0000   1.0000   1.0000   1.0000
     1.0000   1.0000   1.0000   1.0000   0.0000   0.0000   0.0000   0.0000

          k = 0.4286-0.5000-0.5000 (  3844 PWs)   bands (ev):

   -53.1885 -29.6607 -29.2872 -29.2872 -29.2868 -11.5936 -11.5936 -11.5867
   -10.6411 -10.6281 -10.6281   1.2944   2.0609   2.0890   2.3968   2.4374
     2.4374   4.7676   4.7676   4.7975   6.9444   6.9444   6.9617   8.9872

     occupation numbers 
     1.0000   1.0000   1.0000   1.0000   1.0000   1.0000   1.0000   1.0000
     1.0000   1.0000   1.0000   1.0000   1.0000   1.0000   1.0000   1.0000
     1.0000   1.0000   1.0000   1.0000   0.0000   0.0000   0.0000   0.0000

          k =-0.5000-0.5000-0.5000 (  3840 PWs)   bands (ev):

   -53.1885 -29.6606 -29.2872 -29.2872 -29.2872 -11.5892 -11.5892 -11.5892
   -10.6332 -10.6332 -10.6332   1.2688   2.0613   2.0613   2.4133   2.4133
     2.4133   4.7994   4.7994   4.7994   6.9648   6.9648   6.9648   9.0872

     occupation numbers 
     1.0000   1.0000   1.0000   1.0000   1.0000   1.0000   1.0000   1.0000
     1.0000   1.0000   1.0000   1.0000   1.0000   1.0000   1.0000   1.0000
     1.0000   1.0000   1.0000   1.0000   0.0000   0.0000   0.0000   0.0000

     the Fermi energy is     5.2187 ev

!    total energy              =    -286.69135733 Ry
     Harris-Foulkes estimate   =    -286.69135733 Ry
     estimated scf accuracy    <          7.5E-10 Ry

     The total energy is the sum of the following terms:

     one-electron contribution =    -122.12038649 Ry
     hartree contribution      =      74.82946040 Ry
     xc contribution           =     -57.37096366 Ry
     ewald contribution        =    -182.02946758 Ry
     smearing contrib. (-TS)   =       0.00000000 Ry

     convergence has been achieved in  13 iterations
 
     init_run     :      1.08s CPU      1.23s WALL (       1 calls)
     electrons    :     41.21s CPU     44.97s WALL (       1 calls)

     Called by init_run:
     wfcinit      :      0.97s CPU      1.05s WALL (       1 calls)
     wfcinit:atom :      0.01s CPU      0.01s WALL (     120 calls)
     wfcinit:wfcr :      0.91s CPU      0.99s WALL (     120 calls)
     potinit      :      0.01s CPU      0.01s WALL (       1 calls)
     hinit0       :      0.08s CPU      0.13s WALL (       1 calls)

     Called by electrons:
     c_bands      :     37.90s CPU     41.49s WALL (      13 calls)
     sum_band     :      3.11s CPU      3.26s WALL (      13 calls)
     v_of_rho     :      0.03s CPU      0.03s WALL (      14 calls)
     v_h          :      0.00s CPU      0.00s WALL (      14 calls)
     v_xc         :      0.03s CPU      0.03s WALL (      14 calls)
     newd         :      0.16s CPU      0.16s WALL (      14 calls)
     mix_rho      :      0.01s CPU      0.01s WALL (      13 calls)

     Called by c_bands:
     init_us_2    :      0.38s CPU      0.39s WALL (    3240 calls)
     cegterg      :     36.38s CPU     39.92s WALL (    1560 calls)

     Called by sum_band:
     sum_band:bec :      0.03s CPU      0.03s WALL (    1560 calls)
     addusdens    :      0.16s CPU      0.17s WALL (      13 calls)

     Called by *egterg:
     h_psi        :     13.42s CPU     14.08s WALL (    6485 calls)
     s_psi        :      0.44s CPU      0.46s WALL (    6485 calls)
     g_psi        :      0.10s CPU      0.11s WALL (    4805 calls)
     cdiaghg      :     18.90s CPU     21.02s WALL (    6365 calls)
     cegterg:over :      2.47s CPU      3.24s WALL (    4805 calls)
     cegterg:upda :      0.95s CPU      0.97s WALL (    4805 calls)
     cegterg:last :      0.36s CPU      0.37s WALL (    1560 calls)
     cdiaghg:chol :      0.54s CPU      0.65s WALL (    6365 calls)
     cdiaghg:inve :      0.32s CPU      0.39s WALL (    6365 calls)
     cdiaghg:para :      1.01s CPU      1.10s WALL (   12730 calls)

     Called by h_psi:
     h_psi:pot    :     13.37s CPU     14.03s WALL (    6485 calls)
     h_psi:calbec :      0.72s CPU      0.75s WALL (    6485 calls)
     vloc_psi     :     12.17s CPU     12.77s WALL (    6485 calls)
     add_vuspsi   :      0.46s CPU      0.48s WALL (    6485 calls)

     General routines
     calbec       :      0.93s CPU      0.98s WALL (    8045 calls)
     fft          :      0.02s CPU      0.06s WALL (     155 calls)
     ffts         :      0.00s CPU      0.00s WALL (      13 calls)
     fftw         :     13.68s CPU     14.36s WALL (  234824 calls)
 
     Parallel routines
     fft_scatt_xy :      1.08s CPU      1.14s WALL (  234992 calls)
     fft_scatt_yz :      8.66s CPU      9.13s WALL (  234992 calls)
 
     PWSCF        :    42.37s CPU        46.36s WALL

 
   This run was terminated on:  21:44:14   6Feb2019            

=------------------------------------------------------------------------------=
   JOB DONE.
=------------------------------------------------------------------------------=
