
     Program PWSCF v.6.3MaX starts on  6Feb2019 at 21:43:21 

     This program is part of the open-source Quantum ESPRESSO suite
     for quantum simulation of materials; please cite
         "P. Giannozzi et al., J. Phys.:Condens. Matter 21 395502 (2009);
         "P. Giannozzi et al., J. Phys.:Condens. Matter 29 465901 (2017);
          URL http://www.quantum-espresso.org", 
     in publications or presentations arising from this work. More details at
     http://www.quantum-espresso.org/quote

     Parallel version (MPI & OpenMP), running on      20 processor cores
     Number of MPI processes:                20
     Threads/MPI process:                     1

     MPI processes distributed on     1 nodes
     R & G space division:  proc/nbgrp/npool/nimage =      20
     Reading input from /home/azadoks/dftman/projects/SrTiO3 Convergence/EOSWorkflows/dec041a1a445/2abd2d894cc4/pwscf.in
Warning: card &IONS ignored
Warning: card / ignored
Warning: card &CELL ignored
Warning: card / ignored

     Current dimensions of program PWSCF are:
     Max number of different atomic species (ntypx) = 10
     Max number of k-points (npk) =  40000
     Max angular momentum in pseudopotentials (lmaxx) =  3
     Message from routine iosys:
     minimal I/O required, wf_collect reset to FALSE

     Subspace diagonalization in iterative solution of the eigenvalue problem:
     one sub-group per band group will be used
     scalapack distributed-memory algorithm (size of sub-group:  3*  3 procs)

 
     Parallelization info
     --------------------
     sticks:   dense  smooth     PW     G-vecs:    dense   smooth      PW
     Min          34      34     11                  696      696     123
     Max          35      35     12                  699      699     126
     Sum         697     697    221                13949    13949    2469
 


     bravais-lattice index     =            0
     lattice parameter (alat)  =       6.6269  a.u.
     unit-cell volume          =     291.0201 (a.u.)^3
     number of atoms/cell      =            5
     number of atomic types    =            3
     number of electrons       =        40.00
     number of Kohn-Sham states=           24
     kinetic-energy cutoff     =      50.0000  Ry
     charge density cutoff     =     200.0000  Ry
     convergence threshold     =      1.0E-08
     mixing beta               =       0.7000
     number of iterations used =            8  plain     mixing
     Exchange-correlation      =  SLA  PW   PBX  PBC ( 1  4  3  4 0 0)

     celldm(1)=   6.626858  celldm(2)=   0.000000  celldm(3)=   0.000000
     celldm(4)=   0.000000  celldm(5)=   0.000000  celldm(6)=   0.000000

     crystal axes: (cart. coord. in units of alat)
               a(1) = (   1.000000   0.000000   0.000000 )  
               a(2) = (   0.000000   1.000000   0.000000 )  
               a(3) = (   0.000000   0.000000   1.000000 )  

     reciprocal axes: (cart. coord. in units 2 pi/alat)
               b(1) = (  1.000000  0.000000  0.000000 )  
               b(2) = (  0.000000  1.000000  0.000000 )  
               b(3) = (  0.000000  0.000000  1.000000 )  


     PseudoPot. # 1 for O  read from file:
     /home/azadoks/.local/share/pseudo/GBRV_PBE_US/o_pbe_v1.2.uspp.F.UPF
     MD5 check sum: 734c27235a0248c51dbae37a1fbe46ec
     Pseudo is Ultrasoft + core correction, Zval =  6.0
     Generated by new atomic code, or converted to UPF format
     Using radial grid of  737 points,  5 beta functions with: 
                l(1) =   0
                l(2) =   0
                l(3) =   1
                l(4) =   1
                l(5) =   2
     Q(r) pseudized with  8 coefficients,  rinner =    0.900   0.900   0.900
                                                       0.900   0.900

     PseudoPot. # 2 for Sr read from file:
     /home/azadoks/.local/share/pseudo/GBRV_PBE_US/sr_pbe_v1.uspp.F.UPF
     MD5 check sum: 6b418c05fbe9db5448babca5e47b7a5b
     Pseudo is Ultrasoft + core correction, Zval = 10.0
     Generated by new atomic code, or converted to UPF format
     Using radial grid of  883 points,  6 beta functions with: 
                l(1) =   0
                l(2) =   0
                l(3) =   1
                l(4) =   1
                l(5) =   2
                l(6) =   2
     Q(r) pseudized with  6 coefficients,  rinner =    1.400   1.400   1.400
                                                       1.400   1.400

     PseudoPot. # 3 for Ti read from file:
     /home/azadoks/.local/share/pseudo/GBRV_PBE_US/ti_pbe_v1.4.uspp.F.UPF
     MD5 check sum: 88a00a6731bd790ddea75d31a80cb452
     Pseudo is Ultrasoft + core correction, Zval = 12.0
     Generated by new atomic code, or converted to UPF format
     Using radial grid of  851 points,  6 beta functions with: 
                l(1) =   0
                l(2) =   0
                l(3) =   1
                l(4) =   1
                l(5) =   2
                l(6) =   2
     Q(r) pseudized with  6 coefficients,  rinner =    1.000   1.000   1.000
                                                       1.000   1.000

     atomic species   valence    mass     pseudopotential
        O              6.00    15.99940     O ( 1.00)
        Sr            10.00    87.62000     Sr( 1.00)
        Ti            12.00    47.86700     Ti( 1.00)

     48 Sym. Ops., with inversion, found


                                    s                        frac. trans.

      isym =  1     identity                                     

 cryst.   s( 1) = (     1          0          0      )
                  (     0          1          0      )
                  (     0          0          1      )

 cart.    s( 1) = (  1.0000000  0.0000000  0.0000000 )
                  (  0.0000000  1.0000000  0.0000000 )
                  (  0.0000000  0.0000000  1.0000000 )


      isym =  2     180 deg rotation - cart. axis [0,0,1]        

 cryst.   s( 2) = (    -1          0          0      )
                  (     0         -1          0      )
                  (     0          0          1      )

 cart.    s( 2) = ( -1.0000000  0.0000000  0.0000000 )
                  (  0.0000000 -1.0000000  0.0000000 )
                  (  0.0000000  0.0000000  1.0000000 )


      isym =  3     180 deg rotation - cart. axis [0,1,0]        

 cryst.   s( 3) = (    -1          0          0      )
                  (     0          1          0      )
                  (     0          0         -1      )

 cart.    s( 3) = ( -1.0000000  0.0000000  0.0000000 )
                  (  0.0000000  1.0000000  0.0000000 )
                  (  0.0000000  0.0000000 -1.0000000 )


      isym =  4     180 deg rotation - cart. axis [1,0,0]        

 cryst.   s( 4) = (     1          0          0      )
                  (     0         -1          0      )
                  (     0          0         -1      )

 cart.    s( 4) = (  1.0000000  0.0000000  0.0000000 )
                  (  0.0000000 -1.0000000  0.0000000 )
                  (  0.0000000  0.0000000 -1.0000000 )


      isym =  5     180 deg rotation - cart. axis [1,1,0]        

 cryst.   s( 5) = (     0          1          0      )
                  (     1          0          0      )
                  (     0          0         -1      )

 cart.    s( 5) = (  0.0000000  1.0000000  0.0000000 )
                  (  1.0000000  0.0000000  0.0000000 )
                  (  0.0000000  0.0000000 -1.0000000 )


      isym =  6     180 deg rotation - cart. axis [1,-1,0]       

 cryst.   s( 6) = (     0         -1          0      )
                  (    -1          0          0      )
                  (     0          0         -1      )

 cart.    s( 6) = (  0.0000000 -1.0000000  0.0000000 )
                  ( -1.0000000  0.0000000  0.0000000 )
                  (  0.0000000  0.0000000 -1.0000000 )


      isym =  7      90 deg rotation - cart. axis [0,0,-1]       

 cryst.   s( 7) = (     0         -1          0      )
                  (     1          0          0      )
                  (     0          0          1      )

 cart.    s( 7) = (  0.0000000  1.0000000  0.0000000 )
                  ( -1.0000000  0.0000000  0.0000000 )
                  (  0.0000000  0.0000000  1.0000000 )


      isym =  8      90 deg rotation - cart. axis [0,0,1]        

 cryst.   s( 8) = (     0          1          0      )
                  (    -1          0          0      )
                  (     0          0          1      )

 cart.    s( 8) = (  0.0000000 -1.0000000  0.0000000 )
                  (  1.0000000  0.0000000  0.0000000 )
                  (  0.0000000  0.0000000  1.0000000 )


      isym =  9     180 deg rotation - cart. axis [1,0,1]        

 cryst.   s( 9) = (     0          0          1      )
                  (     0         -1          0      )
                  (     1          0          0      )

 cart.    s( 9) = (  0.0000000  0.0000000  1.0000000 )
                  (  0.0000000 -1.0000000  0.0000000 )
                  (  1.0000000  0.0000000  0.0000000 )


      isym = 10     180 deg rotation - cart. axis [-1,0,1]       

 cryst.   s(10) = (     0          0         -1      )
                  (     0         -1          0      )
                  (    -1          0          0      )

 cart.    s(10) = (  0.0000000  0.0000000 -1.0000000 )
                  (  0.0000000 -1.0000000  0.0000000 )
                  ( -1.0000000  0.0000000  0.0000000 )


      isym = 11      90 deg rotation - cart. axis [0,1,0]        

 cryst.   s(11) = (     0          0         -1      )
                  (     0          1          0      )
                  (     1          0          0      )

 cart.    s(11) = (  0.0000000  0.0000000  1.0000000 )
                  (  0.0000000  1.0000000  0.0000000 )
                  ( -1.0000000  0.0000000  0.0000000 )


      isym = 12      90 deg rotation - cart. axis [0,-1,0]       

 cryst.   s(12) = (     0          0          1      )
                  (     0          1          0      )
                  (    -1          0          0      )

 cart.    s(12) = (  0.0000000  0.0000000 -1.0000000 )
                  (  0.0000000  1.0000000  0.0000000 )
                  (  1.0000000  0.0000000  0.0000000 )


      isym = 13     180 deg rotation - cart. axis [0,1,1]        

 cryst.   s(13) = (    -1          0          0      )
                  (     0          0          1      )
                  (     0          1          0      )

 cart.    s(13) = ( -1.0000000  0.0000000  0.0000000 )
                  (  0.0000000  0.0000000  1.0000000 )
                  (  0.0000000  1.0000000  0.0000000 )


      isym = 14     180 deg rotation - cart. axis [0,1,-1]       

 cryst.   s(14) = (    -1          0          0      )
                  (     0          0         -1      )
                  (     0         -1          0      )

 cart.    s(14) = ( -1.0000000  0.0000000  0.0000000 )
                  (  0.0000000  0.0000000 -1.0000000 )
                  (  0.0000000 -1.0000000  0.0000000 )


      isym = 15      90 deg rotation - cart. axis [-1,0,0]       

 cryst.   s(15) = (     1          0          0      )
                  (     0          0         -1      )
                  (     0          1          0      )

 cart.    s(15) = (  1.0000000  0.0000000  0.0000000 )
                  (  0.0000000  0.0000000  1.0000000 )
                  (  0.0000000 -1.0000000  0.0000000 )


      isym = 16      90 deg rotation - cart. axis [1,0,0]        

 cryst.   s(16) = (     1          0          0      )
                  (     0          0          1      )
                  (     0         -1          0      )

 cart.    s(16) = (  1.0000000  0.0000000  0.0000000 )
                  (  0.0000000  0.0000000 -1.0000000 )
                  (  0.0000000  1.0000000  0.0000000 )


      isym = 17     120 deg rotation - cart. axis [-1,-1,-1]     

 cryst.   s(17) = (     0          0          1      )
                  (     1          0          0      )
                  (     0          1          0      )

 cart.    s(17) = (  0.0000000  1.0000000  0.0000000 )
                  (  0.0000000  0.0000000  1.0000000 )
                  (  1.0000000  0.0000000  0.0000000 )


      isym = 18     120 deg rotation - cart. axis [-1,1,1]       

 cryst.   s(18) = (     0          0         -1      )
                  (    -1          0          0      )
                  (     0          1          0      )

 cart.    s(18) = (  0.0000000 -1.0000000  0.0000000 )
                  (  0.0000000  0.0000000  1.0000000 )
                  ( -1.0000000  0.0000000  0.0000000 )


      isym = 19     120 deg rotation - cart. axis [1,1,-1]       

 cryst.   s(19) = (     0          0         -1      )
                  (     1          0          0      )
                  (     0         -1          0      )

 cart.    s(19) = (  0.0000000  1.0000000  0.0000000 )
                  (  0.0000000  0.0000000 -1.0000000 )
                  ( -1.0000000  0.0000000  0.0000000 )


      isym = 20     120 deg rotation - cart. axis [1,-1,1]       

 cryst.   s(20) = (     0          0          1      )
                  (    -1          0          0      )
                  (     0         -1          0      )

 cart.    s(20) = (  0.0000000 -1.0000000  0.0000000 )
                  (  0.0000000  0.0000000 -1.0000000 )
                  (  1.0000000  0.0000000  0.0000000 )


      isym = 21     120 deg rotation - cart. axis [1,1,1]        

 cryst.   s(21) = (     0          1          0      )
                  (     0          0          1      )
                  (     1          0          0      )

 cart.    s(21) = (  0.0000000  0.0000000  1.0000000 )
                  (  1.0000000  0.0000000  0.0000000 )
                  (  0.0000000  1.0000000  0.0000000 )


      isym = 22     120 deg rotation - cart. axis [-1,1,-1]      

 cryst.   s(22) = (     0         -1          0      )
                  (     0          0         -1      )
                  (     1          0          0      )

 cart.    s(22) = (  0.0000000  0.0000000  1.0000000 )
                  ( -1.0000000  0.0000000  0.0000000 )
                  (  0.0000000 -1.0000000  0.0000000 )


      isym = 23     120 deg rotation - cart. axis [1,-1,-1]      

 cryst.   s(23) = (     0         -1          0      )
                  (     0          0          1      )
                  (    -1          0          0      )

 cart.    s(23) = (  0.0000000  0.0000000 -1.0000000 )
                  ( -1.0000000  0.0000000  0.0000000 )
                  (  0.0000000  1.0000000  0.0000000 )


      isym = 24     120 deg rotation - cart. axis [-1,-1,1]      

 cryst.   s(24) = (     0          1          0      )
                  (     0          0         -1      )
                  (    -1          0          0      )

 cart.    s(24) = (  0.0000000  0.0000000 -1.0000000 )
                  (  1.0000000  0.0000000  0.0000000 )
                  (  0.0000000 -1.0000000  0.0000000 )


      isym = 25     inversion                                    

 cryst.   s(25) = (    -1          0          0      )
                  (     0         -1          0      )
                  (     0          0         -1      )

 cart.    s(25) = ( -1.0000000  0.0000000  0.0000000 )
                  (  0.0000000 -1.0000000  0.0000000 )
                  (  0.0000000  0.0000000 -1.0000000 )


      isym = 26     inv. 180 deg rotation - cart. axis [0,0,1]   

 cryst.   s(26) = (     1          0          0      )
                  (     0          1          0      )
                  (     0          0         -1      )

 cart.    s(26) = (  1.0000000  0.0000000  0.0000000 )
                  (  0.0000000  1.0000000  0.0000000 )
                  (  0.0000000  0.0000000 -1.0000000 )


      isym = 27     inv. 180 deg rotation - cart. axis [0,1,0]   

 cryst.   s(27) = (     1          0          0      )
                  (     0         -1          0      )
                  (     0          0          1      )

 cart.    s(27) = (  1.0000000  0.0000000  0.0000000 )
                  (  0.0000000 -1.0000000  0.0000000 )
                  (  0.0000000  0.0000000  1.0000000 )


      isym = 28     inv. 180 deg rotation - cart. axis [1,0,0]   

 cryst.   s(28) = (    -1          0          0      )
                  (     0          1          0      )
                  (     0          0          1      )

 cart.    s(28) = ( -1.0000000  0.0000000  0.0000000 )
                  (  0.0000000  1.0000000  0.0000000 )
                  (  0.0000000  0.0000000  1.0000000 )


      isym = 29     inv. 180 deg rotation - cart. axis [1,1,0]   

 cryst.   s(29) = (     0         -1          0      )
                  (    -1          0          0      )
                  (     0          0          1      )

 cart.    s(29) = (  0.0000000 -1.0000000  0.0000000 )
                  ( -1.0000000  0.0000000  0.0000000 )
                  (  0.0000000  0.0000000  1.0000000 )


      isym = 30     inv. 180 deg rotation - cart. axis [1,-1,0]  

 cryst.   s(30) = (     0          1          0      )
                  (     1          0          0      )
                  (     0          0          1      )

 cart.    s(30) = (  0.0000000  1.0000000  0.0000000 )
                  (  1.0000000  0.0000000  0.0000000 )
                  (  0.0000000  0.0000000  1.0000000 )


      isym = 31     inv.  90 deg rotation - cart. axis [0,0,-1]  

 cryst.   s(31) = (     0          1          0      )
                  (    -1          0          0      )
                  (     0          0         -1      )

 cart.    s(31) = (  0.0000000 -1.0000000  0.0000000 )
                  (  1.0000000  0.0000000  0.0000000 )
                  (  0.0000000  0.0000000 -1.0000000 )


      isym = 32     inv.  90 deg rotation - cart. axis [0,0,1]   

 cryst.   s(32) = (     0         -1          0      )
                  (     1          0          0      )
                  (     0          0         -1      )

 cart.    s(32) = (  0.0000000  1.0000000  0.0000000 )
                  ( -1.0000000  0.0000000  0.0000000 )
                  (  0.0000000  0.0000000 -1.0000000 )


      isym = 33     inv. 180 deg rotation - cart. axis [1,0,1]   

 cryst.   s(33) = (     0          0         -1      )
                  (     0          1          0      )
                  (    -1          0          0      )

 cart.    s(33) = (  0.0000000  0.0000000 -1.0000000 )
                  (  0.0000000  1.0000000  0.0000000 )
                  ( -1.0000000  0.0000000  0.0000000 )


      isym = 34     inv. 180 deg rotation - cart. axis [-1,0,1]  

 cryst.   s(34) = (     0          0          1      )
                  (     0          1          0      )
                  (     1          0          0      )

 cart.    s(34) = (  0.0000000  0.0000000  1.0000000 )
                  (  0.0000000  1.0000000  0.0000000 )
                  (  1.0000000  0.0000000  0.0000000 )


      isym = 35     inv.  90 deg rotation - cart. axis [0,1,0]   

 cryst.   s(35) = (     0          0          1      )
                  (     0         -1          0      )
                  (    -1          0          0      )

 cart.    s(35) = (  0.0000000  0.0000000 -1.0000000 )
                  (  0.0000000 -1.0000000  0.0000000 )
                  (  1.0000000  0.0000000  0.0000000 )


      isym = 36     inv.  90 deg rotation - cart. axis [0,-1,0]  

 cryst.   s(36) = (     0          0         -1      )
                  (     0         -1          0      )
                  (     1          0          0      )

 cart.    s(36) = (  0.0000000  0.0000000  1.0000000 )
                  (  0.0000000 -1.0000000  0.0000000 )
                  ( -1.0000000  0.0000000  0.0000000 )


      isym = 37     inv. 180 deg rotation - cart. axis [0,1,1]   

 cryst.   s(37) = (     1          0          0      )
                  (     0          0         -1      )
                  (     0         -1          0      )

 cart.    s(37) = (  1.0000000  0.0000000  0.0000000 )
                  (  0.0000000  0.0000000 -1.0000000 )
                  (  0.0000000 -1.0000000  0.0000000 )


      isym = 38     inv. 180 deg rotation - cart. axis [0,1,-1]  

 cryst.   s(38) = (     1          0          0      )
                  (     0          0          1      )
                  (     0          1          0      )

 cart.    s(38) = (  1.0000000  0.0000000  0.0000000 )
                  (  0.0000000  0.0000000  1.0000000 )
                  (  0.0000000  1.0000000  0.0000000 )


      isym = 39     inv.  90 deg rotation - cart. axis [-1,0,0]  

 cryst.   s(39) = (    -1          0          0      )
                  (     0          0          1      )
                  (     0         -1          0      )

 cart.    s(39) = ( -1.0000000  0.0000000  0.0000000 )
                  (  0.0000000  0.0000000 -1.0000000 )
                  (  0.0000000  1.0000000  0.0000000 )


      isym = 40     inv.  90 deg rotation - cart. axis [1,0,0]   

 cryst.   s(40) = (    -1          0          0      )
                  (     0          0         -1      )
                  (     0          1          0      )

 cart.    s(40) = ( -1.0000000  0.0000000  0.0000000 )
                  (  0.0000000  0.0000000  1.0000000 )
                  (  0.0000000 -1.0000000  0.0000000 )


      isym = 41     inv. 120 deg rotation - cart. axis [-1,-1,-1]

 cryst.   s(41) = (     0          0         -1      )
                  (    -1          0          0      )
                  (     0         -1          0      )

 cart.    s(41) = (  0.0000000 -1.0000000  0.0000000 )
                  (  0.0000000  0.0000000 -1.0000000 )
                  ( -1.0000000  0.0000000  0.0000000 )


      isym = 42     inv. 120 deg rotation - cart. axis [-1,1,1]  

 cryst.   s(42) = (     0          0          1      )
                  (     1          0          0      )
                  (     0         -1          0      )

 cart.    s(42) = (  0.0000000  1.0000000  0.0000000 )
                  (  0.0000000  0.0000000 -1.0000000 )
                  (  1.0000000  0.0000000  0.0000000 )


      isym = 43     inv. 120 deg rotation - cart. axis [1,1,-1]  

 cryst.   s(43) = (     0          0          1      )
                  (    -1          0          0      )
                  (     0          1          0      )

 cart.    s(43) = (  0.0000000 -1.0000000  0.0000000 )
                  (  0.0000000  0.0000000  1.0000000 )
                  (  1.0000000  0.0000000  0.0000000 )


      isym = 44     inv. 120 deg rotation - cart. axis [1,-1,1]  

 cryst.   s(44) = (     0          0         -1      )
                  (     1          0          0      )
                  (     0          1          0      )

 cart.    s(44) = (  0.0000000  1.0000000  0.0000000 )
                  (  0.0000000  0.0000000  1.0000000 )
                  ( -1.0000000  0.0000000  0.0000000 )


      isym = 45     inv. 120 deg rotation - cart. axis [1,1,1]   

 cryst.   s(45) = (     0         -1          0      )
                  (     0          0         -1      )
                  (    -1          0          0      )

 cart.    s(45) = (  0.0000000  0.0000000 -1.0000000 )
                  ( -1.0000000  0.0000000  0.0000000 )
                  (  0.0000000 -1.0000000  0.0000000 )


      isym = 46     inv. 120 deg rotation - cart. axis [-1,1,-1] 

 cryst.   s(46) = (     0          1          0      )
                  (     0          0          1      )
                  (    -1          0          0      )

 cart.    s(46) = (  0.0000000  0.0000000 -1.0000000 )
                  (  1.0000000  0.0000000  0.0000000 )
                  (  0.0000000  1.0000000  0.0000000 )


      isym = 47     inv. 120 deg rotation - cart. axis [1,-1,-1] 

 cryst.   s(47) = (     0          1          0      )
                  (     0          0         -1      )
                  (     1          0          0      )

 cart.    s(47) = (  0.0000000  0.0000000  1.0000000 )
                  (  1.0000000  0.0000000  0.0000000 )
                  (  0.0000000 -1.0000000  0.0000000 )


      isym = 48     inv. 120 deg rotation - cart. axis [-1,-1,1] 

 cryst.   s(48) = (     0         -1          0      )
                  (     0          0          1      )
                  (     1          0          0      )

 cart.    s(48) = (  0.0000000  0.0000000  1.0000000 )
                  ( -1.0000000  0.0000000  0.0000000 )
                  (  0.0000000  1.0000000  0.0000000 )


   Cartesian axes

     site n.     atom                  positions (alat units)
         1           O   tau(   1) = (   0.5000000   0.0000000   0.5000000  )
         2           O   tau(   2) = (   0.5000000   0.5000000   0.0000000  )
         3           O   tau(   3) = (   0.0000000   0.5000000   0.5000000  )
         4           Ti  tau(   4) = (   0.5000000   0.5000000   0.5000000  )
         5           Sr  tau(   5) = (   0.0000000   0.0000000   0.0000000  )

   Crystallographic axes

     site n.     atom                  positions (cryst. coord.)
         1           O   tau(   1) = (  0.5000000  0.0000000  0.5000000  )
         2           O   tau(   2) = (  0.5000000  0.5000000  0.0000000  )
         3           O   tau(   3) = (  0.0000000  0.5000000  0.5000000  )
         4           Ti  tau(   4) = (  0.5000000  0.5000000  0.5000000  )
         5           Sr  tau(   5) = (  0.0000000  0.0000000  0.0000000  )

     number of k points=   120  Marzari-Vanderbilt smearing, width (Ry)=  0.0010
                       cart. coord. in units 2pi/alat
        k(    1) = (   0.0000000   0.0000000   0.0000000), wk =   0.0007289
        k(    2) = (   0.0000000   0.0000000   0.0714286), wk =   0.0043732
        k(    3) = (   0.0000000   0.0000000   0.1428571), wk =   0.0043732
        k(    4) = (   0.0000000   0.0000000   0.2142857), wk =   0.0043732
        k(    5) = (   0.0000000   0.0000000   0.2857143), wk =   0.0043732
        k(    6) = (   0.0000000   0.0000000   0.3571429), wk =   0.0043732
        k(    7) = (   0.0000000   0.0000000   0.4285714), wk =   0.0043732
        k(    8) = (   0.0000000   0.0000000  -0.5000000), wk =   0.0021866
        k(    9) = (   0.0000000   0.0714286   0.0714286), wk =   0.0087464
        k(   10) = (   0.0000000   0.0714286   0.1428571), wk =   0.0174927
        k(   11) = (   0.0000000   0.0714286   0.2142857), wk =   0.0174927
        k(   12) = (   0.0000000   0.0714286   0.2857143), wk =   0.0174927
        k(   13) = (   0.0000000   0.0714286   0.3571429), wk =   0.0174927
        k(   14) = (   0.0000000   0.0714286   0.4285714), wk =   0.0174927
        k(   15) = (   0.0000000   0.0714286  -0.5000000), wk =   0.0087464
        k(   16) = (   0.0000000   0.1428571   0.1428571), wk =   0.0087464
        k(   17) = (   0.0000000   0.1428571   0.2142857), wk =   0.0174927
        k(   18) = (   0.0000000   0.1428571   0.2857143), wk =   0.0174927
        k(   19) = (   0.0000000   0.1428571   0.3571429), wk =   0.0174927
        k(   20) = (   0.0000000   0.1428571   0.4285714), wk =   0.0174927
        k(   21) = (   0.0000000   0.1428571  -0.5000000), wk =   0.0087464
        k(   22) = (   0.0000000   0.2142857   0.2142857), wk =   0.0087464
        k(   23) = (   0.0000000   0.2142857   0.2857143), wk =   0.0174927
        k(   24) = (   0.0000000   0.2142857   0.3571429), wk =   0.0174927
        k(   25) = (   0.0000000   0.2142857   0.4285714), wk =   0.0174927
        k(   26) = (   0.0000000   0.2142857  -0.5000000), wk =   0.0087464
        k(   27) = (   0.0000000   0.2857143   0.2857143), wk =   0.0087464
        k(   28) = (   0.0000000   0.2857143   0.3571429), wk =   0.0174927
        k(   29) = (   0.0000000   0.2857143   0.4285714), wk =   0.0174927
        k(   30) = (   0.0000000   0.2857143  -0.5000000), wk =   0.0087464
        k(   31) = (   0.0000000   0.3571429   0.3571429), wk =   0.0087464
        k(   32) = (   0.0000000   0.3571429   0.4285714), wk =   0.0174927
        k(   33) = (   0.0000000   0.3571429  -0.5000000), wk =   0.0087464
        k(   34) = (   0.0000000   0.4285714   0.4285714), wk =   0.0087464
        k(   35) = (   0.0000000   0.4285714  -0.5000000), wk =   0.0087464
        k(   36) = (   0.0000000  -0.5000000  -0.5000000), wk =   0.0021866
        k(   37) = (   0.0714286   0.0714286   0.0714286), wk =   0.0058309
        k(   38) = (   0.0714286   0.0714286   0.1428571), wk =   0.0174927
        k(   39) = (   0.0714286   0.0714286   0.2142857), wk =   0.0174927
        k(   40) = (   0.0714286   0.0714286   0.2857143), wk =   0.0174927
        k(   41) = (   0.0714286   0.0714286   0.3571429), wk =   0.0174927
        k(   42) = (   0.0714286   0.0714286   0.4285714), wk =   0.0174927
        k(   43) = (   0.0714286   0.0714286  -0.5000000), wk =   0.0087464
        k(   44) = (   0.0714286   0.1428571   0.1428571), wk =   0.0174927
        k(   45) = (   0.0714286   0.1428571   0.2142857), wk =   0.0349854
        k(   46) = (   0.0714286   0.1428571   0.2857143), wk =   0.0349854
        k(   47) = (   0.0714286   0.1428571   0.3571429), wk =   0.0349854
        k(   48) = (   0.0714286   0.1428571   0.4285714), wk =   0.0349854
        k(   49) = (   0.0714286   0.1428571  -0.5000000), wk =   0.0174927
        k(   50) = (   0.0714286   0.2142857   0.2142857), wk =   0.0174927
        k(   51) = (   0.0714286   0.2142857   0.2857143), wk =   0.0349854
        k(   52) = (   0.0714286   0.2142857   0.3571429), wk =   0.0349854
        k(   53) = (   0.0714286   0.2142857   0.4285714), wk =   0.0349854
        k(   54) = (   0.0714286   0.2142857  -0.5000000), wk =   0.0174927
        k(   55) = (   0.0714286   0.2857143   0.2857143), wk =   0.0174927
        k(   56) = (   0.0714286   0.2857143   0.3571429), wk =   0.0349854
        k(   57) = (   0.0714286   0.2857143   0.4285714), wk =   0.0349854
        k(   58) = (   0.0714286   0.2857143  -0.5000000), wk =   0.0174927
        k(   59) = (   0.0714286   0.3571429   0.3571429), wk =   0.0174927
        k(   60) = (   0.0714286   0.3571429   0.4285714), wk =   0.0349854
        k(   61) = (   0.0714286   0.3571429  -0.5000000), wk =   0.0174927
        k(   62) = (   0.0714286   0.4285714   0.4285714), wk =   0.0174927
        k(   63) = (   0.0714286   0.4285714  -0.5000000), wk =   0.0174927
        k(   64) = (   0.0714286  -0.5000000  -0.5000000), wk =   0.0043732
        k(   65) = (   0.1428571   0.1428571   0.1428571), wk =   0.0058309
        k(   66) = (   0.1428571   0.1428571   0.2142857), wk =   0.0174927
        k(   67) = (   0.1428571   0.1428571   0.2857143), wk =   0.0174927
        k(   68) = (   0.1428571   0.1428571   0.3571429), wk =   0.0174927
        k(   69) = (   0.1428571   0.1428571   0.4285714), wk =   0.0174927
        k(   70) = (   0.1428571   0.1428571  -0.5000000), wk =   0.0087464
        k(   71) = (   0.1428571   0.2142857   0.2142857), wk =   0.0174927
        k(   72) = (   0.1428571   0.2142857   0.2857143), wk =   0.0349854
        k(   73) = (   0.1428571   0.2142857   0.3571429), wk =   0.0349854
        k(   74) = (   0.1428571   0.2142857   0.4285714), wk =   0.0349854
        k(   75) = (   0.1428571   0.2142857  -0.5000000), wk =   0.0174927
        k(   76) = (   0.1428571   0.2857143   0.2857143), wk =   0.0174927
        k(   77) = (   0.1428571   0.2857143   0.3571429), wk =   0.0349854
        k(   78) = (   0.1428571   0.2857143   0.4285714), wk =   0.0349854
        k(   79) = (   0.1428571   0.2857143  -0.5000000), wk =   0.0174927
        k(   80) = (   0.1428571   0.3571429   0.3571429), wk =   0.0174927
        k(   81) = (   0.1428571   0.3571429   0.4285714), wk =   0.0349854
        k(   82) = (   0.1428571   0.3571429  -0.5000000), wk =   0.0174927
        k(   83) = (   0.1428571   0.4285714   0.4285714), wk =   0.0174927
        k(   84) = (   0.1428571   0.4285714  -0.5000000), wk =   0.0174927
        k(   85) = (   0.1428571  -0.5000000  -0.5000000), wk =   0.0043732
        k(   86) = (   0.2142857   0.2142857   0.2142857), wk =   0.0058309
        k(   87) = (   0.2142857   0.2142857   0.2857143), wk =   0.0174927
        k(   88) = (   0.2142857   0.2142857   0.3571429), wk =   0.0174927
        k(   89) = (   0.2142857   0.2142857   0.4285714), wk =   0.0174927
        k(   90) = (   0.2142857   0.2142857  -0.5000000), wk =   0.0087464
        k(   91) = (   0.2142857   0.2857143   0.2857143), wk =   0.0174927
        k(   92) = (   0.2142857   0.2857143   0.3571429), wk =   0.0349854
        k(   93) = (   0.2142857   0.2857143   0.4285714), wk =   0.0349854
        k(   94) = (   0.2142857   0.2857143  -0.5000000), wk =   0.0174927
        k(   95) = (   0.2142857   0.3571429   0.3571429), wk =   0.0174927
        k(   96) = (   0.2142857   0.3571429   0.4285714), wk =   0.0349854
        k(   97) = (   0.2142857   0.3571429  -0.5000000), wk =   0.0174927
        k(   98) = (   0.2142857   0.4285714   0.4285714), wk =   0.0174927
        k(   99) = (   0.2142857   0.4285714  -0.5000000), wk =   0.0174927
        k(  100) = (   0.2142857  -0.5000000  -0.5000000), wk =   0.0043732
        k(  101) = (   0.2857143   0.2857143   0.2857143), wk =   0.0058309
        k(  102) = (   0.2857143   0.2857143   0.3571429), wk =   0.0174927
        k(  103) = (   0.2857143   0.2857143   0.4285714), wk =   0.0174927
        k(  104) = (   0.2857143   0.2857143  -0.5000000), wk =   0.0087464
        k(  105) = (   0.2857143   0.3571429   0.3571429), wk =   0.0174927
        k(  106) = (   0.2857143   0.3571429   0.4285714), wk =   0.0349854
        k(  107) = (   0.2857143   0.3571429  -0.5000000), wk =   0.0174927
        k(  108) = (   0.2857143   0.4285714   0.4285714), wk =   0.0174927
        k(  109) = (   0.2857143   0.4285714  -0.5000000), wk =   0.0174927
        k(  110) = (   0.2857143  -0.5000000  -0.5000000), wk =   0.0043732
        k(  111) = (   0.3571429   0.3571429   0.3571429), wk =   0.0058309
        k(  112) = (   0.3571429   0.3571429   0.4285714), wk =   0.0174927
        k(  113) = (   0.3571429   0.3571429  -0.5000000), wk =   0.0087464
        k(  114) = (   0.3571429   0.4285714   0.4285714), wk =   0.0174927
        k(  115) = (   0.3571429   0.4285714  -0.5000000), wk =   0.0174927
        k(  116) = (   0.3571429  -0.5000000  -0.5000000), wk =   0.0043732
        k(  117) = (   0.4285714   0.4285714   0.4285714), wk =   0.0058309
        k(  118) = (   0.4285714   0.4285714  -0.5000000), wk =   0.0087464
        k(  119) = (   0.4285714  -0.5000000  -0.5000000), wk =   0.0043732
        k(  120) = (  -0.5000000  -0.5000000  -0.5000000), wk =   0.0007289

                       cryst. coord.
        k(    1) = (   0.0000000   0.0000000   0.0000000), wk =   0.0007289
        k(    2) = (   0.0000000   0.0000000   0.0714286), wk =   0.0043732
        k(    3) = (   0.0000000   0.0000000   0.1428571), wk =   0.0043732
        k(    4) = (   0.0000000   0.0000000   0.2142857), wk =   0.0043732
        k(    5) = (   0.0000000   0.0000000   0.2857143), wk =   0.0043732
        k(    6) = (   0.0000000   0.0000000   0.3571429), wk =   0.0043732
        k(    7) = (   0.0000000   0.0000000   0.4285714), wk =   0.0043732
        k(    8) = (   0.0000000   0.0000000  -0.5000000), wk =   0.0021866
        k(    9) = (   0.0000000   0.0714286   0.0714286), wk =   0.0087464
        k(   10) = (   0.0000000   0.0714286   0.1428571), wk =   0.0174927
        k(   11) = (   0.0000000   0.0714286   0.2142857), wk =   0.0174927
        k(   12) = (   0.0000000   0.0714286   0.2857143), wk =   0.0174927
        k(   13) = (   0.0000000   0.0714286   0.3571429), wk =   0.0174927
        k(   14) = (   0.0000000   0.0714286   0.4285714), wk =   0.0174927
        k(   15) = (   0.0000000   0.0714286  -0.5000000), wk =   0.0087464
        k(   16) = (   0.0000000   0.1428571   0.1428571), wk =   0.0087464
        k(   17) = (   0.0000000   0.1428571   0.2142857), wk =   0.0174927
        k(   18) = (   0.0000000   0.1428571   0.2857143), wk =   0.0174927
        k(   19) = (   0.0000000   0.1428571   0.3571429), wk =   0.0174927
        k(   20) = (   0.0000000   0.1428571   0.4285714), wk =   0.0174927
        k(   21) = (   0.0000000   0.1428571  -0.5000000), wk =   0.0087464
        k(   22) = (   0.0000000   0.2142857   0.2142857), wk =   0.0087464
        k(   23) = (   0.0000000   0.2142857   0.2857143), wk =   0.0174927
        k(   24) = (   0.0000000   0.2142857   0.3571429), wk =   0.0174927
        k(   25) = (   0.0000000   0.2142857   0.4285714), wk =   0.0174927
        k(   26) = (   0.0000000   0.2142857  -0.5000000), wk =   0.0087464
        k(   27) = (   0.0000000   0.2857143   0.2857143), wk =   0.0087464
        k(   28) = (   0.0000000   0.2857143   0.3571429), wk =   0.0174927
        k(   29) = (   0.0000000   0.2857143   0.4285714), wk =   0.0174927
        k(   30) = (   0.0000000   0.2857143  -0.5000000), wk =   0.0087464
        k(   31) = (   0.0000000   0.3571429   0.3571429), wk =   0.0087464
        k(   32) = (   0.0000000   0.3571429   0.4285714), wk =   0.0174927
        k(   33) = (   0.0000000   0.3571429  -0.5000000), wk =   0.0087464
        k(   34) = (   0.0000000   0.4285714   0.4285714), wk =   0.0087464
        k(   35) = (   0.0000000   0.4285714  -0.5000000), wk =   0.0087464
        k(   36) = (   0.0000000  -0.5000000  -0.5000000), wk =   0.0021866
        k(   37) = (   0.0714286   0.0714286   0.0714286), wk =   0.0058309
        k(   38) = (   0.0714286   0.0714286   0.1428571), wk =   0.0174927
        k(   39) = (   0.0714286   0.0714286   0.2142857), wk =   0.0174927
        k(   40) = (   0.0714286   0.0714286   0.2857143), wk =   0.0174927
        k(   41) = (   0.0714286   0.0714286   0.3571429), wk =   0.0174927
        k(   42) = (   0.0714286   0.0714286   0.4285714), wk =   0.0174927
        k(   43) = (   0.0714286   0.0714286  -0.5000000), wk =   0.0087464
        k(   44) = (   0.0714286   0.1428571   0.1428571), wk =   0.0174927
        k(   45) = (   0.0714286   0.1428571   0.2142857), wk =   0.0349854
        k(   46) = (   0.0714286   0.1428571   0.2857143), wk =   0.0349854
        k(   47) = (   0.0714286   0.1428571   0.3571429), wk =   0.0349854
        k(   48) = (   0.0714286   0.1428571   0.4285714), wk =   0.0349854
        k(   49) = (   0.0714286   0.1428571  -0.5000000), wk =   0.0174927
        k(   50) = (   0.0714286   0.2142857   0.2142857), wk =   0.0174927
        k(   51) = (   0.0714286   0.2142857   0.2857143), wk =   0.0349854
        k(   52) = (   0.0714286   0.2142857   0.3571429), wk =   0.0349854
        k(   53) = (   0.0714286   0.2142857   0.4285714), wk =   0.0349854
        k(   54) = (   0.0714286   0.2142857  -0.5000000), wk =   0.0174927
        k(   55) = (   0.0714286   0.2857143   0.2857143), wk =   0.0174927
        k(   56) = (   0.0714286   0.2857143   0.3571429), wk =   0.0349854
        k(   57) = (   0.0714286   0.2857143   0.4285714), wk =   0.0349854
        k(   58) = (   0.0714286   0.2857143  -0.5000000), wk =   0.0174927
        k(   59) = (   0.0714286   0.3571429   0.3571429), wk =   0.0174927
        k(   60) = (   0.0714286   0.3571429   0.4285714), wk =   0.0349854
        k(   61) = (   0.0714286   0.3571429  -0.5000000), wk =   0.0174927
        k(   62) = (   0.0714286   0.4285714   0.4285714), wk =   0.0174927
        k(   63) = (   0.0714286   0.4285714  -0.5000000), wk =   0.0174927
        k(   64) = (   0.0714286  -0.5000000  -0.5000000), wk =   0.0043732
        k(   65) = (   0.1428571   0.1428571   0.1428571), wk =   0.0058309
        k(   66) = (   0.1428571   0.1428571   0.2142857), wk =   0.0174927
        k(   67) = (   0.1428571   0.1428571   0.2857143), wk =   0.0174927
        k(   68) = (   0.1428571   0.1428571   0.3571429), wk =   0.0174927
        k(   69) = (   0.1428571   0.1428571   0.4285714), wk =   0.0174927
        k(   70) = (   0.1428571   0.1428571  -0.5000000), wk =   0.0087464
        k(   71) = (   0.1428571   0.2142857   0.2142857), wk =   0.0174927
        k(   72) = (   0.1428571   0.2142857   0.2857143), wk =   0.0349854
        k(   73) = (   0.1428571   0.2142857   0.3571429), wk =   0.0349854
        k(   74) = (   0.1428571   0.2142857   0.4285714), wk =   0.0349854
        k(   75) = (   0.1428571   0.2142857  -0.5000000), wk =   0.0174927
        k(   76) = (   0.1428571   0.2857143   0.2857143), wk =   0.0174927
        k(   77) = (   0.1428571   0.2857143   0.3571429), wk =   0.0349854
        k(   78) = (   0.1428571   0.2857143   0.4285714), wk =   0.0349854
        k(   79) = (   0.1428571   0.2857143  -0.5000000), wk =   0.0174927
        k(   80) = (   0.1428571   0.3571429   0.3571429), wk =   0.0174927
        k(   81) = (   0.1428571   0.3571429   0.4285714), wk =   0.0349854
        k(   82) = (   0.1428571   0.3571429  -0.5000000), wk =   0.0174927
        k(   83) = (   0.1428571   0.4285714   0.4285714), wk =   0.0174927
        k(   84) = (   0.1428571   0.4285714  -0.5000000), wk =   0.0174927
        k(   85) = (   0.1428571  -0.5000000  -0.5000000), wk =   0.0043732
        k(   86) = (   0.2142857   0.2142857   0.2142857), wk =   0.0058309
        k(   87) = (   0.2142857   0.2142857   0.2857143), wk =   0.0174927
        k(   88) = (   0.2142857   0.2142857   0.3571429), wk =   0.0174927
        k(   89) = (   0.2142857   0.2142857   0.4285714), wk =   0.0174927
        k(   90) = (   0.2142857   0.2142857  -0.5000000), wk =   0.0087464
        k(   91) = (   0.2142857   0.2857143   0.2857143), wk =   0.0174927
        k(   92) = (   0.2142857   0.2857143   0.3571429), wk =   0.0349854
        k(   93) = (   0.2142857   0.2857143   0.4285714), wk =   0.0349854
        k(   94) = (   0.2142857   0.2857143  -0.5000000), wk =   0.0174927
        k(   95) = (   0.2142857   0.3571429   0.3571429), wk =   0.0174927
        k(   96) = (   0.2142857   0.3571429   0.4285714), wk =   0.0349854
        k(   97) = (   0.2142857   0.3571429  -0.5000000), wk =   0.0174927
        k(   98) = (   0.2142857   0.4285714   0.4285714), wk =   0.0174927
        k(   99) = (   0.2142857   0.4285714  -0.5000000), wk =   0.0174927
        k(  100) = (   0.2142857  -0.5000000  -0.5000000), wk =   0.0043732
        k(  101) = (   0.2857143   0.2857143   0.2857143), wk =   0.0058309
        k(  102) = (   0.2857143   0.2857143   0.3571429), wk =   0.0174927
        k(  103) = (   0.2857143   0.2857143   0.4285714), wk =   0.0174927
        k(  104) = (   0.2857143   0.2857143  -0.5000000), wk =   0.0087464
        k(  105) = (   0.2857143   0.3571429   0.3571429), wk =   0.0174927
        k(  106) = (   0.2857143   0.3571429   0.4285714), wk =   0.0349854
        k(  107) = (   0.2857143   0.3571429  -0.5000000), wk =   0.0174927
        k(  108) = (   0.2857143   0.4285714   0.4285714), wk =   0.0174927
        k(  109) = (   0.2857143   0.4285714  -0.5000000), wk =   0.0174927
        k(  110) = (   0.2857143  -0.5000000  -0.5000000), wk =   0.0043732
        k(  111) = (   0.3571429   0.3571429   0.3571429), wk =   0.0058309
        k(  112) = (   0.3571429   0.3571429   0.4285714), wk =   0.0174927
        k(  113) = (   0.3571429   0.3571429  -0.5000000), wk =   0.0087464
        k(  114) = (   0.3571429   0.4285714   0.4285714), wk =   0.0174927
        k(  115) = (   0.3571429   0.4285714  -0.5000000), wk =   0.0174927
        k(  116) = (   0.3571429  -0.5000000  -0.5000000), wk =   0.0043732
        k(  117) = (   0.4285714   0.4285714   0.4285714), wk =   0.0058309
        k(  118) = (   0.4285714   0.4285714  -0.5000000), wk =   0.0087464
        k(  119) = (   0.4285714  -0.5000000  -0.5000000), wk =   0.0043732
        k(  120) = (  -0.5000000  -0.5000000  -0.5000000), wk =   0.0007289

     Dense  grid:    13949 G-vectors     FFT dimensions: (  30,  30,  30)

     Dynamical RAM for                 wfc:       0.03 MB

     Dynamical RAM for     wfc (w. buffer):       3.81 MB

     Dynamical RAM for           str. fact:       0.03 MB

     Dynamical RAM for           local pot:       0.00 MB

     Dynamical RAM for          nlocal pot:       0.10 MB

     Dynamical RAM for                qrad:       3.59 MB

     Dynamical RAM for          rho,v,vnew:       0.07 MB

     Dynamical RAM for               rhoin:       0.02 MB

     Dynamical RAM for            rho*nmix:       0.17 MB

     Dynamical RAM for           G-vectors:       0.05 MB

     Dynamical RAM for          h,s,v(r/c):       0.05 MB

     Dynamical RAM for          <psi|beta>:       0.03 MB

     Dynamical RAM for                 psi:       0.13 MB

     Dynamical RAM for                hpsi:       0.13 MB

     Dynamical RAM for                spsi:       0.13 MB

     Dynamical RAM for      wfcinit/wfcrot:       0.12 MB

     Dynamical RAM for           addusdens:       2.02 MB

     Estimated static dynamical RAM per process >       7.96 MB

     Estimated max dynamical RAM per process >       9.97 MB

     Estimated total dynamical RAM >     199.50 MB

     Check: negative/imaginary core charge=   -0.000006    0.000000

     Initial potential from superposition of free atoms
     Check: negative starting charge=   -0.064691

     starting charge   38.96630, renormalised to   40.00000

     negative rho (up, down):  6.641E-02 0.000E+00
     Starting wfcs are   35 randomized atomic wfcs

     total cpu time spent up to now is        1.1 secs

     Self-consistent Calculation

     iteration #  1     ecut=    50.00 Ry     beta= 0.70
     Davidson diagonalization with overlap
     ethr =  1.00E-02,  avg # of iterations =  2.0

     negative rho (up, down):  6.546E-02 0.000E+00

     total cpu time spent up to now is        3.0 secs

     total energy              =    -286.18073336 Ry
     Harris-Foulkes estimate   =    -286.96582597 Ry
     estimated scf accuracy    <       1.01216788 Ry

     iteration #  2     ecut=    50.00 Ry     beta= 0.70
     Davidson diagonalization with overlap
     ethr =  2.53E-03,  avg # of iterations =  3.1

     negative rho (up, down):  6.612E-02 0.000E+00

     total cpu time spent up to now is        6.2 secs

     total energy              =    -286.08353615 Ry
     Harris-Foulkes estimate   =    -287.02192122 Ry
     estimated scf accuracy    <       2.20957853 Ry

     iteration #  3     ecut=    50.00 Ry     beta= 0.70
     Davidson diagonalization with overlap
     ethr =  2.53E-03,  avg # of iterations =  3.7

     negative rho (up, down):  6.736E-02 0.000E+00

     total cpu time spent up to now is        9.5 secs

     total energy              =    -286.61666561 Ry
     Harris-Foulkes estimate   =    -286.67857368 Ry
     estimated scf accuracy    <       0.15039091 Ry

     iteration #  4     ecut=    50.00 Ry     beta= 0.70
     Davidson diagonalization with overlap
     ethr =  3.76E-04,  avg # of iterations =  2.9

     negative rho (up, down):  6.785E-02 0.000E+00

     total cpu time spent up to now is       12.1 secs

     total energy              =    -286.63000823 Ry
     Harris-Foulkes estimate   =    -286.63544202 Ry
     estimated scf accuracy    <       0.01246405 Ry

     iteration #  5     ecut=    50.00 Ry     beta= 0.70
     Davidson diagonalization with overlap
     ethr =  3.12E-05,  avg # of iterations =  4.2

     negative rho (up, down):  6.784E-02 0.000E+00

     total cpu time spent up to now is       15.8 secs

     total energy              =    -286.63326015 Ry
     Harris-Foulkes estimate   =    -286.63341495 Ry
     estimated scf accuracy    <       0.00040144 Ry

     iteration #  6     ecut=    50.00 Ry     beta= 0.70
     Davidson diagonalization with overlap
     ethr =  1.00E-06,  avg # of iterations =  3.9

     negative rho (up, down):  6.781E-02 0.000E+00

     total cpu time spent up to now is       19.1 secs

     total energy              =    -286.63333785 Ry
     Harris-Foulkes estimate   =    -286.63333835 Ry
     estimated scf accuracy    <       0.00000143 Ry

     iteration #  7     ecut=    50.00 Ry     beta= 0.70
     Davidson diagonalization with overlap
     ethr =  3.58E-09,  avg # of iterations =  3.4

     negative rho (up, down):  6.780E-02 0.000E+00

     total cpu time spent up to now is       22.6 secs

     total energy              =    -286.63333907 Ry
     Harris-Foulkes estimate   =    -286.63333907 Ry
     estimated scf accuracy    <       0.00000005 Ry

     iteration #  8     ecut=    50.00 Ry     beta= 0.70
     Davidson diagonalization with overlap
     ethr =  1.33E-10,  avg # of iterations =  2.2

     negative rho (up, down):  6.780E-02 0.000E+00

     total cpu time spent up to now is       24.9 secs

     End of self-consistent calculation

          k = 0.0000 0.0000 0.0000 (  1743 PWs)   bands (ev):

   -39.6172 -16.5783 -16.2652 -16.2652 -16.2652  -3.0688  -2.1179  -2.1179
     1.3092   1.3092   1.3092  12.6821  12.6821  12.6821  13.5394  13.5394
    13.5394  15.4900  15.4900  15.4900  17.7507  17.7507  17.7507  20.8414

     occupation numbers 
     1.0000   1.0000   1.0000   1.0000   1.0000   1.0000   1.0000   1.0000
     1.0000   1.0000   1.0000   1.0000   1.0000   1.0000   1.0000   1.0000
     1.0000   1.0000   1.0000   1.0000   0.0000   0.0000   0.0000   0.0000

          k = 0.0000 0.0000 0.0714 (  1759 PWs)   bands (ev):

   -39.6169 -16.6019 -16.2643 -16.2643 -16.2504  -3.0855  -2.1129  -2.0981
     1.3160   1.3160   1.3880  12.5801  12.6494  12.6494  13.4310  13.4310
    13.4542  15.2321  15.4399  15.4399  17.7679  17.9625  17.9625  20.9864

     occupation numbers 
     1.0000   1.0000   1.0000   1.0000   1.0000   1.0000   1.0000   1.0000
     1.0000   1.0000   1.0000   1.0000   1.0000   1.0000   1.0000   1.0000
     1.0000   1.0000   1.0000   1.0000   0.0000   0.0000   0.0000   0.0000

          k = 0.0000 0.0000 0.1429 (  1763 PWs)   bands (ev):

   -39.6159 -16.6614 -16.2619 -16.2619 -16.2152  -3.1688  -2.0989  -1.9885
     1.3351   1.3351   1.5970  12.2827  12.5547  12.5547  13.1598  13.1598
    13.2291  14.5990  15.3369  15.3369  17.8171  18.4974  18.4974  21.3784

     occupation numbers 
     1.0000   1.0000   1.0000   1.0000   1.0000   1.0000   1.0000   1.0000
     1.0000   1.0000   1.0000   1.0000   1.0000   1.0000   1.0000   1.0000
     1.0000   1.0000   1.0000   1.0000   0.0000   0.0000   0.0000   0.0000

          k = 0.0000 0.0000 0.2143 (  1763 PWs)   bands (ev):

   -39.6145 -16.7374 -16.2584 -16.2584 -16.1731  -3.3380  -2.0785  -1.7421
     1.3630   1.3630   1.8757  11.8137  12.4072  12.4072  12.8355  12.8355
    12.9322  13.8530  15.2360  15.2360  17.8906  19.1869  19.1869  21.8972

     occupation numbers 
     1.0000   1.0000   1.0000   1.0000   1.0000   1.0000   1.0000   1.0000
     1.0000   1.0000   1.0000   1.0000   1.0000   1.0000   1.0000   1.0000
     1.0000   1.0000   1.0000   1.0000   0.0000   0.0000   0.0000   0.0000

          k = 0.0000 0.0000 0.2857 (  1755 PWs)   bands (ev):

   -39.6130 -16.8141 -16.2545 -16.2545 -16.1325  -3.5433  -2.0556  -1.4014
     1.3943   1.3943   2.1618  11.2254  12.2217  12.2217  12.5516  12.5516
    12.6335  13.1963  15.1553  15.1553  17.9757  19.8980  19.8980  22.3321

     occupation numbers 
     1.0000   1.0000   1.0000   1.0000   1.0000   1.0000   1.0000   1.0000
     1.0000   1.0000   1.0000   1.0000   1.0000   1.0000   1.0000   1.0000
     1.0000   1.0000   1.0000   1.0000   0.0000   0.0000   0.0000   0.0000

          k = 0.0000 0.0000 0.3571 (  1747 PWs)   bands (ev):

   -39.6116 -16.8790 -16.2510 -16.2510 -16.0990  -3.7271  -2.0348  -1.0515
     1.4229   1.4229   2.4046  10.6334  12.0334  12.0334  12.3518  12.3518
    12.3859  12.7182  15.0985  15.0985  18.0560  20.5202  20.5202  22.5193

     occupation numbers 
     1.0000   1.0000   1.0000   1.0000   1.0000   1.0000   1.0000   1.0000
     1.0000   1.0000   1.0000   1.0000   1.0000   1.0000   1.0000   1.0000
     1.0000   1.0000   1.0000   1.0000   0.0000   0.0000   0.0000   0.0000

          k = 0.0000 0.0000 0.4286 (  1743 PWs)   bands (ev):

   -39.6107 -16.9221 -16.2485 -16.2485 -16.0768  -3.8510  -2.0204  -0.7861
     1.4429   1.4429   2.5660  10.1930  11.8967  11.8967  12.2244  12.2348
    12.2348  12.4323  15.0654  15.0654  18.1137  20.9505  20.9505  22.5775

     occupation numbers 
     1.0000   1.0000   1.0000   1.0000   1.0000   1.0000   1.0000   1.0000
     1.0000   1.0000   1.0000   1.0000   1.0000   1.0000   1.0000   1.0000
     1.0000   1.0000   1.0000   1.0000   0.0000   0.0000   0.0000   0.0000

          k = 0.0000 0.0000-0.5000 (  1750 PWs)   bands (ev):

   -39.6104 -16.9372 -16.2477 -16.2477 -16.0691  -3.8945  -2.0152  -0.6865
     1.4501   1.4501   2.6224  10.0302  11.8476  11.8476  12.1683  12.1958
    12.1958  12.3372  15.0547  15.0547  18.1348  21.1052  21.1052  22.5914

     occupation numbers 
     1.0000   1.0000   1.0000   1.0000   1.0000   1.0000   1.0000   1.0000
     1.0000   1.0000   1.0000   1.0000   1.0000   1.0000   1.0000   1.0000
     1.0000   1.0000   1.0000   1.0000   0.0000   0.0000   0.0000   0.0000

          k = 0.0000 0.0714 0.0714 (  1759 PWs)   bands (ev):

   -39.6165 -16.6196 -16.2802 -16.2635 -16.2250  -3.0943  -2.0969  -2.0950
     1.3230   1.3421   1.4427  12.4425  12.6166  12.6540  13.1843  13.3288
    13.5392  15.1587  15.2285  15.3858  17.9420  18.0141  18.1312  21.1284

     occupation numbers 
     1.0000   1.0000   1.0000   1.0000   1.0000   1.0000   1.0000   1.0000
     1.0000   1.0000   1.0000   1.0000   1.0000   1.0000   1.0000   1.0000
     1.0000   1.0000   1.0000   1.0000   0.0000   0.0000   0.0000   0.0000

          k = 0.0000 0.0714 0.1429 (  1758 PWs)   bands (ev):

   -39.6156 -16.6681 -16.2887 -16.2611 -16.1904  -3.1577  -2.0829  -2.0004
     1.3427   1.3709   1.6297  12.1439  12.5215  12.5627  12.8360  13.0703
    13.4560  14.5856  15.1128  15.2744  18.0150  18.5171  18.5868  21.5175

     occupation numbers 
     1.0000   1.0000   1.0000   1.0000   1.0000   1.0000   1.0000   1.0000
     1.0000   1.0000   1.0000   1.0000   1.0000   1.0000   1.0000   1.0000
     1.0000   1.0000   1.0000   1.0000   0.0000   0.0000   0.0000   0.0000

          k = 0.0000 0.0714 0.2143 (  1745 PWs)   bands (ev):

   -39.6142 -16.7354 -16.2869 -16.2576 -16.1562  -3.3073  -2.0604  -1.7706
     1.3714   1.4013   1.8894  11.7142  12.3688  12.3733  12.4723  12.7572
    13.2328  13.9199  15.0148  15.1664  18.0849  19.2002  19.2144  22.0368

     occupation numbers 
     1.0000   1.0000   1.0000   1.0000   1.0000   1.0000   1.0000   1.0000
     1.0000   1.0000   1.0000   1.0000   1.0000   1.0000   1.0000   1.0000
     1.0000   1.0000   1.0000   1.0000   0.0000   0.0000   0.0000   0.0000

          k = 0.0000 0.0714 0.2857 (  1753 PWs)   bands (ev):

   -39.6127 -16.8069 -16.2798 -16.2537 -16.1252  -3.4997  -2.0343  -1.4432
     1.4038   1.4349   2.1568  11.1746  12.0729  12.1859  12.1866  12.4815
    12.9162  13.4350  14.9316  15.0817  18.1650  19.8913  19.9063  22.4898

     occupation numbers 
     1.0000   1.0000   1.0000   1.0000   1.0000   1.0000   1.0000   1.0000
     1.0000   1.0000   1.0000   1.0000   1.0000   1.0000   1.0000   1.0000
     1.0000   1.0000   1.0000   1.0000   0.0000   0.0000   0.0000   0.0000

          k = 0.0000 0.0714 0.3571 (  1743 PWs)   bands (ev):

   -39.6113 -16.8688 -16.2718 -16.2502 -16.1000  -3.6757  -2.0102  -1.1046
     1.4333   1.4670   2.3830  10.6119  11.7712  11.9951  12.0018  12.2874
    12.5971  13.1652  14.8705  15.0233  18.2405  20.5008  20.5247  22.6951

     occupation numbers 
     1.0000   1.0000   1.0000   1.0000   1.0000   1.0000   1.0000   1.0000
     1.0000   1.0000   1.0000   1.0000   1.0000   1.0000   1.0000   1.0000
     1.0000   1.0000   1.0000   1.0000   0.0000   0.0000   0.0000   0.0000

          k = 0.0000 0.0714 0.4286 (  1743 PWs)   bands (ev):

   -39.6104 -16.9105 -16.2659 -16.2478 -16.0833  -3.7956  -1.9933  -0.8482
     1.4540   1.4911   2.5329  10.1826  11.5686  11.8571  11.8996  12.1731
    12.3731  13.0236  14.8338  14.9896  18.2949  20.9295  20.9524  22.7573

     occupation numbers 
     1.0000   1.0000   1.0000   1.0000   1.0000   1.0000   1.0000   1.0000
     1.0000   1.0000   1.0000   1.0000   1.0000   1.0000   1.0000   1.0000
     1.0000   1.0000   1.0000   1.0000   0.0000   0.0000   0.0000   0.0000

          k = 0.0000 0.0714-0.5000 (  1744 PWs)   bands (ev):

   -39.6100 -16.9252 -16.2638 -16.2469 -16.0774  -3.8378  -1.9873  -0.7523
     1.4614   1.5003   2.5852  10.0223  11.4981  11.8077  11.8698  12.1348
    12.2913  12.9780  14.8217  14.9787  18.3147  21.0849  21.1062  22.7718

     occupation numbers 
     1.0000   1.0000   1.0000   1.0000   1.0000   1.0000   1.0000   1.0000
     1.0000   1.0000   1.0000   1.0000   1.0000   1.0000   1.0000   1.0000
     1.0000   1.0000   1.0000   1.0000   0.0000   0.0000   0.0000   0.0000

          k = 0.0000 0.1429 0.1429 (  1755 PWs)   bands (ev):

   -39.6147 -16.6911 -16.3220 -16.2587 -16.1584  -3.1618  -2.0318  -1.9904
     1.3640   1.4385   1.7448  11.8322  12.4257  12.4574  12.4861  12.8386
    13.5649  14.4121  14.7004  15.1437  18.4398  18.6491  18.8715  21.8938

     occupation numbers 
     1.0000   1.0000   1.0000   1.0000   1.0000   1.0000   1.0000   1.0000
     1.0000   1.0000   1.0000   1.0000   1.0000   1.0000   1.0000   1.0000
     1.0000   1.0000   1.0000   1.0000   0.0000   0.0000   0.0000   0.0000

          k = 0.0000 0.1429 0.2143 (  1742 PWs)   bands (ev):

   -39.6133 -16.7330 -16.3384 -16.2552 -16.1339  -3.2419  -2.0068  -1.8202
     1.3952   1.4935   1.9354  11.4341  12.0818  12.2711  12.2763  12.5498
    13.4624  13.9560  14.5649  15.0176  18.5743  19.2443  19.3424  22.3961

     occupation numbers 
     1.0000   1.0000   1.0000   1.0000   1.0000   1.0000   1.0000   1.0000
     1.0000   1.0000   1.0000   1.0000   1.0000   1.0000   1.0000   1.0000
     1.0000   1.0000   1.0000   1.0000   0.0000   0.0000   0.0000   0.0000

          k = 0.0000 0.1429 0.2857 (  1753 PWs)   bands (ev):

   -39.6118 -16.7872 -16.3367 -16.2514 -16.1175  -3.3855  -1.9754  -1.5396
     1.4304   1.5392   2.1452  10.9945  11.6212  12.0440  12.0847  12.2927
    13.1243  13.7662  14.4610  14.9212  18.6499  19.9205  19.9313  22.8600

     occupation numbers 
     1.0000   1.0000   1.0000   1.0000   1.0000   1.0000   1.0000   1.0000
     1.0000   1.0000   1.0000   1.0000   1.0000   1.0000   1.0000   1.0000
     1.0000   1.0000   1.0000   1.0000   0.0000   0.0000   0.0000   0.0000

          k = 0.0000 0.1429 0.3571 (  1742 PWs)   bands (ev):

   -39.6104 -16.8395 -16.3251 -16.2479 -16.1080  -3.5333  -1.9429  -1.2378
     1.4626   1.5815   2.3254  10.5369  11.1679  11.8872  11.9207  12.1126
    12.8043  13.7000  14.3633  14.8566  18.7166  20.4845  20.5380  23.0981

     occupation numbers 
     1.0000   1.0000   1.0000   1.0000   1.0000   1.0000   1.0000   1.0000
     1.0000   1.0000   1.0000   1.0000   1.0000   1.0000   1.0000   1.0000
     1.0000   1.0000   1.0000   1.0000   0.0000   0.0000   0.0000   0.0000

          k = 0.0000 0.1429 0.4286 (  1731 PWs)   bands (ev):

   -39.6095 -16.8766 -16.3134 -16.2456 -16.1036  -3.6386  -1.9190  -1.0084
     1.4851   1.6154   2.4450  10.1539  10.8889  11.7461  11.8849  12.0044
    12.5774  13.6681  14.2933  14.8203  18.7638  20.9004  20.9584  23.1714

     occupation numbers 
     1.0000   1.0000   1.0000   1.0000   1.0000   1.0000   1.0000   1.0000
     1.0000   1.0000   1.0000   1.0000   1.0000   1.0000   1.0000   1.0000
     1.0000   1.0000   1.0000   1.0000   0.0000   0.0000   0.0000   0.0000

          k = 0.0000 0.1429-0.5000 (  1736 PWs)   bands (ev):

   -39.6091 -16.8899 -16.3087 -16.2447 -16.1024  -3.6763  -1.9103  -0.9228
     1.4932   1.6290   2.4867  10.0037  10.7986  11.6960  11.8856  11.9674
    12.4891  13.6581  14.2680  14.8086  18.7809  21.0545  21.1096  23.1879

     occupation numbers 
     1.0000   1.0000   1.0000   1.0000   1.0000   1.0000   1.0000   1.0000
     1.0000   1.0000   1.0000   1.0000   1.0000   1.0000   1.0000   1.0000
     1.0000   1.0000   1.0000   1.0000   0.0000   0.0000   0.0000   0.0000

          k = 0.0000 0.2143 0.2143 (  1751 PWs)   bands (ev):

   -39.6119 -16.7391 -16.3816 -16.2519 -16.1221  -3.2086  -1.9434  -1.7885
     1.4302   1.5916   2.0219  11.0383  11.8024  12.0129  12.1287  12.2809
    13.5924  13.5958  14.4172  14.8715  19.1134  19.4063  19.6327  22.8579

     occupation numbers 
     1.0000   1.0000   1.0000   1.0000   1.0000   1.0000   1.0000   1.0000
     1.0000   1.0000   1.0000   1.0000   1.0000   1.0000   1.0000   1.0000
     1.0000   1.0000   1.0000   1.0000   0.0000   0.0000   0.0000   0.0000

          k = 0.0000 0.2143 0.2857 (  1748 PWs)   bands (ev):

   -39.6104 -16.7617 -16.3999 -16.2481 -16.1214  -3.2493  -1.9017  -1.6128
     1.4695   1.6686   2.1388  10.6352  11.3716  11.7827  11.9367  12.0381
    13.2083  13.6558  14.3968  14.7603  19.2770  19.9763  20.0686  23.2794

     occupation numbers 
     1.0000   1.0000   1.0000   1.0000   1.0000   1.0000   1.0000   1.0000
     1.0000   1.0000   1.0000   1.0000   1.0000   1.0000   1.0000   1.0000
     1.0000   1.0000   1.0000   1.0000   0.0000   0.0000   0.0000   0.0000

          k = 0.0000 0.2143 0.3571 (  1744 PWs)   bands (ev):

   -39.6091 -16.7950 -16.3941 -16.2447 -16.1289  -3.3333  -1.8566  -1.3880
     1.5057   1.7288   2.2530  10.3010  10.7761  11.7207  11.7305  11.8730
    12.9709  13.6907  14.3421  14.6868  19.3416  20.5489  20.5591  23.5119

     occupation numbers 
     1.0000   1.0000   1.0000   1.0000   1.0000   1.0000   1.0000   1.0000
     1.0000   1.0000   1.0000   1.0000   1.0000   1.0000   1.0000   1.0000
     1.0000   1.0000   1.0000   1.0000   0.0000   0.0000   0.0000   0.0000

          k = 0.0000 0.2143 0.4286 (  1735 PWs)   bands (ev):

   -39.6081 -16.8232 -16.3795 -16.2424 -16.1387  -3.4065  -1.8198  -1.2098
     1.5310   1.7747   2.3335  10.0736  10.3234  11.5865  11.7207  11.7699
    12.8265  13.7207  14.2757  14.6460  19.3820  20.9289  20.9681  23.5929

     occupation numbers 
     1.0000   1.0000   1.0000   1.0000   1.0000   1.0000   1.0000   1.0000
     1.0000   1.0000   1.0000   1.0000   1.0000   1.0000   1.0000   1.0000
     1.0000   1.0000   1.0000   1.0000   0.0000   0.0000   0.0000   0.0000

          k = 0.0000 0.2143-0.5000 (  1732 PWs)   bands (ev):

   -39.6078 -16.8340 -16.3723 -16.2415 -16.1434  -3.4346  -1.8058  -1.1430
     1.5401   1.7933   2.3624   9.9836  10.1663  11.5360  11.7288  11.7340
    12.7736  13.7355  14.2448  14.6330  19.3963  21.0745  21.1156  23.6125

     occupation numbers 
     1.0000   1.0000   1.0000   1.0000   1.0000   1.0000   1.0000   1.0000
     1.0000   1.0000   1.0000   1.0000   1.0000   1.0000   1.0000   1.0000
     1.0000   1.0000   1.0000   1.0000   0.0000   0.0000   0.0000   0.0000

          k = 0.0000 0.2857 0.2857 (  1736 PWs)   bands (ev):

   -39.6089 -16.7430 -16.4469 -16.2444 -16.1378  -3.1533  -1.8501  -1.5802
     1.5138   1.7859   2.1546  10.2227  11.2741  11.2864  11.7691  11.7791
    13.0872  13.5780  14.5606  14.6367  19.8429  20.1141  20.3611  23.6219

     occupation numbers 
     1.0000   1.0000   1.0000   1.0000   1.0000   1.0000   1.0000   1.0000
     1.0000   1.0000   1.0000   1.0000   1.0000   1.0000   1.0000   1.0000
     1.0000   1.0000   1.0000   1.0000   0.0000   0.0000   0.0000   0.0000

          k = 0.0000 0.2857 0.3571 (  1736 PWs)   bands (ev):

   -39.6076 -16.7430 -16.4608 -16.2411 -16.1628  -3.1259  -1.7970  -1.4787
     1.5545   1.8738   2.1965   9.8881  10.6612  11.2510  11.5566  11.6234
    13.0371  13.5700  14.5551  14.6565  19.9897  20.5879  20.7339  23.8140

     occupation numbers 
     1.0000   1.0000   1.0000   1.0000   1.0000   1.0000   1.0000   1.0000
     1.0000   1.0000   1.0000   1.0000   1.0000   1.0000   1.0000   1.0000
     1.0000   1.0000   1.0000   1.0000   0.0000   0.0000   0.0000   0.0000

          k = 0.0000 0.2857 0.4286 (  1726 PWs)   bands (ev):

   -39.6067 -16.7552 -16.4500 -16.2388 -16.1877  -3.1380  -1.7372  -1.3932
     1.5831   1.9336   2.2404   9.6888  10.1642  11.2482  11.4123  11.5211
    13.0646  13.5381  14.5099  14.6927  20.0279  20.9802  21.0545  23.8958

     occupation numbers 
     1.0000   1.0000   1.0000   1.0000   1.0000   1.0000   1.0000   1.0000
     1.0000   1.0000   1.0000   1.0000   1.0000   1.0000   1.0000   1.0000
     1.0000   1.0000   1.0000   1.0000   0.0000   0.0000   0.0000   0.0000

          k = 0.0000 0.2857-0.5000 (  1724 PWs)   bands (ev):

   -39.6064 -16.7618 -16.4414 -16.2380 -16.1989  -3.1475  -1.7105  -1.3620
     1.5934   1.9568   2.2583   9.6329   9.9671  11.2497  11.3621  11.4848
    13.0874  13.5172  14.4955  14.7004  20.0396  21.1233  21.1822  23.9181

     occupation numbers 
     1.0000   1.0000   1.0000   1.0000   1.0000   1.0000   1.0000   1.0000
     1.0000   1.0000   1.0000   1.0000   1.0000   1.0000   1.0000   1.0000
     1.0000   1.0000   1.0000   1.0000   0.0000   0.0000   0.0000   0.0000

          k = 0.0000 0.3571 0.3571 (  1736 PWs)   bands (ev):

   -39.6063 -16.6989 -16.5049 -16.2379 -16.2055  -2.9654  -1.7711  -1.4930
     1.5995   1.9904   2.1810   9.5286  10.5634  10.7046  11.3929  11.4192
    13.1365  13.5883  14.4678  14.8679  20.5041  20.6703  21.0051  23.9897

     occupation numbers 
     1.0000   1.0000   1.0000   1.0000   1.0000   1.0000   1.0000   1.0000
     1.0000   1.0000   1.0000   1.0000   1.0000   1.0000   1.0000   1.0000
     1.0000   1.0000   1.0000   1.0000   0.0000   0.0000   0.0000   0.0000

          k = 0.0000 0.3571 0.4286 (  1723 PWs)   bands (ev):

   -39.6054 -16.6810 -16.5103 -16.2467 -16.2356  -2.8807  -1.7164  -1.5111
     1.6311   2.0660   2.1974   9.3016  10.1329  10.6404  11.2588  11.3058
    13.2792  13.5727  14.4195  14.9773  20.5955  20.9925  21.2562  24.0746

     occupation numbers 
     1.0000   1.0000   1.0000   1.0000   1.0000   1.0000   1.0000   1.0000
     1.0000   1.0000   1.0000   1.0000   1.0000   1.0000   1.0000   1.0000
     1.0000   1.0000   1.0000   1.0000   0.0000   0.0000   0.0000   0.0000

          k = 0.0000 0.3571-0.5000 (  1720 PWs)   bands (ev):

   -39.6050 -16.6800 -16.5024 -16.2657 -16.2348  -2.8576  -1.6648  -1.5429
     1.6426   2.0937   2.2086   9.2260   9.9520  10.6361  11.2095  11.2680
    13.3682  13.5334  14.4040  15.0101  20.6058  21.1309  21.3598  24.0994

     occupation numbers 
     1.0000   1.0000   1.0000   1.0000   1.0000   1.0000   1.0000   1.0000
     1.0000   1.0000   1.0000   1.0000   1.0000   1.0000   1.0000   1.0000
     1.0000   1.0000   1.0000   1.0000   0.0000   0.0000   0.0000   0.0000

          k = 0.0000 0.4286 0.4286 (  1716 PWs)   bands (ev):

   -39.6045 -16.6186 -16.5445 -16.3054 -16.2334  -2.6907  -1.7195  -1.5885
     1.6650   2.1534   2.2001   9.0544  10.0463  10.2370  11.1519  11.1638
    13.4598  13.6163  14.3692  15.1341  20.9700  21.0198  21.4502  24.1639

     occupation numbers 
     1.0000   1.0000   1.0000   1.0000   1.0000   1.0000   1.0000   1.0000
     1.0000   1.0000   1.0000   1.0000   1.0000   1.0000   1.0000   1.0000
     1.0000   1.0000   1.0000   1.0000   0.0000   0.0000   0.0000   0.0000

          k = 0.0000 0.4286-0.5000 (  1726 PWs)   bands (ev):

   -39.6041 -16.6005 -16.5439 -16.3348 -16.2326  -2.6207  -1.6793  -1.6609
     1.6773   2.1849   2.2084   8.9701   9.9173  10.1838  11.1064  11.1217
    13.5613  13.6001  14.3532  15.1831  20.9977  21.1365  21.5314  24.1906

     occupation numbers 
     1.0000   1.0000   1.0000   1.0000   1.0000   1.0000   1.0000   1.0000
     1.0000   1.0000   1.0000   1.0000   1.0000   1.0000   1.0000   1.0000
     1.0000   1.0000   1.0000   1.0000   0.0000   0.0000   0.0000   0.0000

          k = 0.0000-0.5000-0.5000 (  1740 PWs)   bands (ev):

   -39.6038 -16.5586 -16.5586 -16.3730 -16.2318  -2.5216  -1.7018  -1.7018
     1.6898   2.2169   2.2169   8.8826   9.8587  10.0614  11.0701  11.0701
    13.6299  13.6299  14.3370  15.2378  21.1385  21.1385  21.6031  24.2180

     occupation numbers 
     1.0000   1.0000   1.0000   1.0000   1.0000   1.0000   1.0000   1.0000
     1.0000   1.0000   1.0000   1.0000   1.0000   1.0000   1.0000   1.0000
     1.0000   1.0000   1.0000   1.0000   0.0000   0.0000   0.0000   0.0000

          k = 0.0714 0.0714 0.0714 (  1761 PWs)   bands (ev):

   -39.6162 -16.6333 -16.2793 -16.2793 -16.2038  -3.0964  -2.0885  -2.0885
     1.3448   1.3448   1.5011  12.3015  12.6238  12.6238  13.1015  13.1015
    13.6188  15.0807  15.1859  15.1859  18.0944  18.1733  18.1733  21.2656

     occupation numbers 
     1.0000   1.0000   1.0000   1.0000   1.0000   1.0000   1.0000   1.0000
     1.0000   1.0000   1.0000   1.0000   1.0000   1.0000   1.0000   1.0000
     1.0000   1.0000   1.0000   1.0000   0.0000   0.0000   0.0000   0.0000

          k = 0.0714 0.0714 0.1429 (  1758 PWs)   bands (ev):

   -39.6153 -16.6734 -16.2940 -16.2768 -16.1721  -3.1422  -2.0701  -2.0100
     1.3523   1.3872   1.6738  11.9993  12.5301  12.5340  12.7355  12.8817
    13.5904  14.5627  15.0378  15.0863  18.1816  18.6053  18.6092  21.6523

     occupation numbers 
     1.0000   1.0000   1.0000   1.0000   1.0000   1.0000   1.0000   1.0000
     1.0000   1.0000   1.0000   1.0000   1.0000   1.0000   1.0000   1.0000
     1.0000   1.0000   1.0000   1.0000   0.0000   0.0000   0.0000   0.0000

          k = 0.0714 0.0714 0.2143 (  1751 PWs)   bands (ev):

   -39.6139 -16.7331 -16.2954 -16.2732 -16.1433  -3.2740  -2.0433  -1.7959
     1.3629   1.4397   1.9123  11.5996  12.2957  12.3416  12.4278  12.5684
    13.4282  13.9482  14.9330  14.9786  18.2520  19.2211  19.2411  22.1718

     occupation numbers 
     1.0000   1.0000   1.0000   1.0000   1.0000   1.0000   1.0000   1.0000
     1.0000   1.0000   1.0000   1.0000   1.0000   1.0000   1.0000   1.0000
     1.0000   1.0000   1.0000   1.0000   0.0000   0.0000   0.0000   0.0000

          k = 0.0714 0.0714 0.2857 (  1748 PWs)   bands (ev):

   -39.6124 -16.7996 -16.2872 -16.2692 -16.1193  -3.4545  -2.0130  -1.4799
     1.3743   1.4987   2.1573  11.1129  11.9617  12.0471  12.2266  12.2533
    13.2105  13.5073  14.8442  14.8901  18.3310  19.8904  19.9181  22.6460

     occupation numbers 
     1.0000   1.0000   1.0000   1.0000   1.0000   1.0000   1.0000   1.0000
     1.0000   1.0000   1.0000   1.0000   1.0000   1.0000   1.0000   1.0000
     1.0000   1.0000   1.0000   1.0000   0.0000   0.0000   0.0000   0.0000

          k = 0.0714 0.0714 0.3571 (  1745 PWs)   bands (ev):

   -39.6110 -16.8588 -16.2760 -16.2656 -16.1011  -3.6235  -1.9853  -1.1499
     1.3840   1.5556   2.3634  10.5873  11.6351  11.8298  11.9652  12.0893
    13.0115  13.2492  14.7782  14.8276  18.4047  20.4976  20.5222  22.8763

     occupation numbers 
     1.0000   1.0000   1.0000   1.0000   1.0000   1.0000   1.0000   1.0000
     1.0000   1.0000   1.0000   1.0000   1.0000   1.0000   1.0000   1.0000
     1.0000   1.0000   1.0000   1.0000   0.0000   0.0000   0.0000   0.0000

          k = 0.0714 0.0714 0.4286 (  1737 PWs)   bands (ev):

   -39.6100 -16.8991 -16.2671 -16.2631 -16.0895  -3.7396  -1.9659  -0.8999
     1.3905   1.5984   2.4991  10.1719  11.4231  11.7069  11.8065  11.9631
    12.8778  13.1099  14.7383  14.7912  18.4575  20.9268  20.9449  22.9437

     occupation numbers 
     1.0000   1.0000   1.0000   1.0000   1.0000   1.0000   1.0000   1.0000
     1.0000   1.0000   1.0000   1.0000   1.0000   1.0000   1.0000   1.0000
     1.0000   1.0000   1.0000   1.0000   0.0000   0.0000   0.0000   0.0000

          k = 0.0714 0.0714-0.5000 (  1740 PWs)   bands (ev):

   -39.6097 -16.9134 -16.2638 -16.2623 -16.0855  -3.7806  -1.9589  -0.8064
     1.3927   1.6146   2.5463  10.0147  11.3517  11.6689  11.7529  11.9143
    12.8313  13.0646  14.7250  14.7792  18.4767  21.0828  21.0977  22.9587

     occupation numbers 
     1.0000   1.0000   1.0000   1.0000   1.0000   1.0000   1.0000   1.0000
     1.0000   1.0000   1.0000   1.0000   1.0000   1.0000   1.0000   1.0000
     1.0000   1.0000   1.0000   1.0000   0.0000   0.0000   0.0000   0.0000

          k = 0.0714 0.1429 0.1429 (  1755 PWs)   bands (ev):

   -39.6143 -16.6924 -16.3210 -16.2800 -16.1452  -3.1345  -2.0211  -2.0014
     1.3696   1.4299   1.8017  11.6857  12.3669  12.4523  12.5000  12.6545
    13.6935  14.3793  14.6684  14.9490  18.5638  18.7257  18.8934  22.0205

     occupation numbers 
     1.0000   1.0000   1.0000   1.0000   1.0000   1.0000   1.0000   1.0000
     1.0000   1.0000   1.0000   1.0000   1.0000   1.0000   1.0000   1.0000
     1.0000   1.0000   1.0000   1.0000   0.0000   0.0000   0.0000   0.0000

          k = 0.0714 0.1429 0.2143 (  1744 PWs)   bands (ev):

   -39.6129 -16.7294 -16.3384 -16.2766 -16.1252  -3.2015  -1.9915  -1.8392
     1.3768   1.4985   1.9807  11.3084  12.0377  12.1963  12.3577  12.3743
    13.6293  13.9434  14.5261  14.8240  18.6911  19.2797  19.3687  22.5216

     occupation numbers 
     1.0000   1.0000   1.0000   1.0000   1.0000   1.0000   1.0000   1.0000
     1.0000   1.0000   1.0000   1.0000   1.0000   1.0000   1.0000   1.0000
     1.0000   1.0000   1.0000   1.0000   0.0000   0.0000   0.0000   0.0000

          k = 0.0714 0.1429 0.2857 (  1744 PWs)   bands (ev):

   -39.6114 -16.7798 -16.3373 -16.2719 -16.1137  -3.3362  -1.9540  -1.5648
     1.3754   1.5843   2.1634  10.9112  11.6148  11.8766  12.0734  12.2219
    13.3778  13.7578  14.4157  14.7224  18.7706  19.9158  19.9674  23.0113

     occupation numbers 
     1.0000   1.0000   1.0000   1.0000   1.0000   1.0000   1.0000   1.0000
     1.0000   1.0000   1.0000   1.0000   1.0000   1.0000   1.0000   1.0000
     1.0000   1.0000   1.0000   1.0000   0.0000   0.0000   0.0000   0.0000

          k = 0.0714 0.1429 0.3571 (  1742 PWs)   bands (ev):

   -39.6101 -16.8298 -16.3251 -16.2669 -16.1093  -3.4786  -1.9170  -1.2659
     1.3709   1.6712   2.3135  10.5015  11.1346  11.6979  11.8449  12.0880
    13.1509  13.6887  14.3107  14.6515  18.8405  20.4895  20.5486  23.2927

     occupation numbers 
     1.0000   1.0000   1.0000   1.0000   1.0000   1.0000   1.0000   1.0000
     1.0000   1.0000   1.0000   1.0000   1.0000   1.0000   1.0000   1.0000
     1.0000   1.0000   1.0000   1.0000   0.0000   0.0000   0.0000   0.0000

          k = 0.0714 0.1429 0.4286 (  1737 PWs)   bands (ev):

   -39.6091 -16.8658 -16.3128 -16.2626 -16.1090  -3.5810  -1.8902  -1.0373
     1.3671   1.7386   2.4099  10.1423  10.8448  11.6173  11.6960  11.9879
    13.0025  13.6568  14.2335  14.6106  18.8894  20.9075  20.9613  23.3763

     occupation numbers 
     1.0000   1.0000   1.0000   1.0000   1.0000   1.0000   1.0000   1.0000
     1.0000   1.0000   1.0000   1.0000   1.0000   1.0000   1.0000   1.0000
     1.0000   1.0000   1.0000   1.0000   0.0000   0.0000   0.0000   0.0000

          k = 0.0714 0.1429-0.5000 (  1742 PWs)   bands (ev):

   -39.6088 -16.8788 -16.3078 -16.2607 -16.1095  -3.6178  -1.8805  -0.9519
     1.3657   1.7645   2.4429   9.9968  10.7551  11.6009  11.6393  11.9499
    12.9498  13.6477  14.2049  14.5973  18.9070  21.0622  21.1109  23.3936

     occupation numbers 
     1.0000   1.0000   1.0000   1.0000   1.0000   1.0000   1.0000   1.0000
     1.0000   1.0000   1.0000   1.0000   1.0000   1.0000   1.0000   1.0000
     1.0000   1.0000   1.0000   1.0000   0.0000   0.0000   0.0000   0.0000

          k = 0.0714 0.2143 0.2143 (  1744 PWs)   bands (ev):

   -39.6116 -16.7335 -16.3806 -16.2734 -16.1167  -3.1593  -1.9271  -1.8034
     1.3997   1.5667   2.0810  10.9344  11.7491  12.0006  12.1449  12.1781
    13.6053  13.7311  14.3862  14.6787  19.1999  19.4403  19.6624  22.9830

     occupation numbers 
     1.0000   1.0000   1.0000   1.0000   1.0000   1.0000   1.0000   1.0000
     1.0000   1.0000   1.0000   1.0000   1.0000   1.0000   1.0000   1.0000
     1.0000   1.0000   1.0000   1.0000   0.0000   0.0000   0.0000   0.0000

          k = 0.0714 0.2143 0.2857 (  1742 PWs)   bands (ev):

   -39.6101 -16.7540 -16.3990 -16.2688 -16.1191  -3.1939  -1.8801  -1.6258
     1.4064   1.6610   2.1821  10.5660  11.3713  11.6885  11.8958  12.0247
    13.3191  13.7296  14.3697  14.5618  19.3583  19.9908  20.1061  23.4370

     occupation numbers 
     1.0000   1.0000   1.0000   1.0000   1.0000   1.0000   1.0000   1.0000
     1.0000   1.0000   1.0000   1.0000   1.0000   1.0000   1.0000   1.0000
     1.0000   1.0000   1.0000   1.0000   0.0000   0.0000   0.0000   0.0000

          k = 0.0714 0.2143 0.3571 (  1747 PWs)   bands (ev):

   -39.6088 -16.7859 -16.3933 -16.2639 -16.1299  -3.2748  -1.8292  -1.3982
     1.4002   1.7721   2.2580  10.2648  10.7799  11.5579  11.6942  11.9061
    13.1745  13.7086  14.3206  14.4819  19.4286  20.5397  20.6066  23.7251

     occupation numbers 
     1.0000   1.0000   1.0000   1.0000   1.0000   1.0000   1.0000   1.0000
     1.0000   1.0000   1.0000   1.0000   1.0000   1.0000   1.0000   1.0000
     1.0000   1.0000   1.0000   1.0000   0.0000   0.0000   0.0000   0.0000

          k = 0.0714 0.2143 0.4286 (  1738 PWs)   bands (ev):

   -39.6078 -16.8135 -16.3786 -16.2595 -16.1428  -3.3464  -1.7889  -1.2166
     1.3935   1.8671   2.2994  10.0607  10.3225  11.5024  11.5673  11.8291
    13.0977  13.6981  14.2602  14.4366  19.4733  20.9333  20.9954  23.8204

     occupation numbers 
     1.0000   1.0000   1.0000   1.0000   1.0000   1.0000   1.0000   1.0000
     1.0000   1.0000   1.0000   1.0000   1.0000   1.0000   1.0000   1.0000
     1.0000   1.0000   1.0000   1.0000   0.0000   0.0000   0.0000   0.0000

          k = 0.0714 0.2143-0.5000 (  1734 PWs)   bands (ev):

   -39.6075 -16.8241 -16.3713 -16.2575 -16.1490  -3.3739  -1.7737  -1.1482
     1.3912   1.9058   2.3112   9.9781  10.1650  11.4806  11.5295  11.8032
    13.0704  13.6980  14.2324  14.4220  19.4890  21.0814  21.1387  23.8407

     occupation numbers 
     1.0000   1.0000   1.0000   1.0000   1.0000   1.0000   1.0000   1.0000
     1.0000   1.0000   1.0000   1.0000   1.0000   1.0000   1.0000   1.0000
     1.0000   1.0000   1.0000   1.0000   0.0000   0.0000   0.0000   0.0000

          k = 0.0714 0.2857 0.2857 (  1741 PWs)   bands (ev):

   -39.6086 -16.7349 -16.4457 -16.2646 -16.1368  -3.0927  -1.8282  -1.5813
     1.4373   1.7431   2.2077  10.1902  11.2519  11.2842  11.6952  11.7624
    13.1503  13.6985  14.4312  14.5423  19.9024  20.1413  20.3963  23.8179

     occupation numbers 
     1.0000   1.0000   1.0000   1.0000   1.0000   1.0000   1.0000   1.0000
     1.0000   1.0000   1.0000   1.0000   1.0000   1.0000   1.0000   1.0000
     1.0000   1.0000   1.0000   1.0000   0.0000   0.0000   0.0000   0.0000

          k = 0.0714 0.2857 0.3571 (  1737 PWs)   bands (ev):

   -39.6073 -16.7347 -16.4597 -16.2603 -16.1630  -3.0629  -1.7702  -1.4724
     1.4493   1.8506   2.2223   9.8900  10.6630  11.2254  11.5192  11.5873
    13.1352  13.6606  14.3423  14.6448  20.0495  20.6076  20.7711  24.0491

     occupation numbers 
     1.0000   1.0000   1.0000   1.0000   1.0000   1.0000   1.0000   1.0000
     1.0000   1.0000   1.0000   1.0000   1.0000   1.0000   1.0000   1.0000
     1.0000   1.0000   1.0000   1.0000   0.0000   0.0000   0.0000   0.0000

          k = 0.0714 0.2857 0.4286 (  1734 PWs)   bands (ev):

   -39.6064 -16.7470 -16.4489 -16.2561 -16.1898  -3.0745  -1.7049  -1.3828
     1.4518   1.9625   2.2135   9.7160  10.1643  11.2170  11.4115  11.4660
    13.2119  13.5799  14.2934  14.6852  20.0934  20.9923  21.0923  24.1382

     occupation numbers 
     1.0000   1.0000   1.0000   1.0000   1.0000   1.0000   1.0000   1.0000
     1.0000   1.0000   1.0000   1.0000   1.0000   1.0000   1.0000   1.0000
     1.0000   1.0000   1.0000   1.0000   0.0000   0.0000   0.0000   0.0000

          k = 0.0714 0.2857-0.5000 (  1728 PWs)   bands (ev):

   -39.6060 -16.7536 -16.4403 -16.2538 -16.2025  -3.0840  -1.6759  -1.3502
     1.4526   2.0184   2.1985   9.6719   9.9638  11.2154  11.3902  11.4083
    13.2715  13.5216  14.2781  14.6942  20.1072  21.1346  21.2188  24.1603

[...]
     1.0000   1.0000   1.0000   1.0000   0.0000   0.0000   0.0000   0.0000

          k = 0.2143 0.2857 0.2857 (  1736 PWs)   bands (ev):

   -39.6064 -16.6789 -16.4380 -16.3776 -16.1536  -2.6950  -1.6644  -1.5803
     1.2123   1.4370   2.2921  10.0434  11.2040  11.2609  11.3348  11.5887
    12.6816  14.0502  14.2099  14.4856  20.3784  20.4125  20.6324  24.4637

     occupation numbers 
     1.0000   1.0000   1.0000   1.0000   1.0000   1.0000   1.0000   1.0000
     1.0000   1.0000   1.0000   1.0000   1.0000   1.0000   1.0000   1.0000
     1.0000   1.0000   1.0000   1.0000   0.0000   0.0000   0.0000   0.0000

          k = 0.2143 0.2857 0.3571 (  1740 PWs)   bands (ev):

   -39.6051 -16.6743 -16.4526 -16.3726 -16.1845  -2.6308  -1.5690  -1.4411
     1.0939   1.5353   2.2059   9.9373  10.6816  11.1218  11.2393  11.4819
    12.6315  13.9993  14.2230  14.6109  20.5108  20.8270  21.0015  24.7955

     occupation numbers 
     1.0000   1.0000   1.0000   1.0000   1.0000   1.0000   1.0000   1.0000
     1.0000   1.0000   1.0000   1.0000   1.0000   1.0000   1.0000   1.0000
     1.0000   1.0000   1.0000   1.0000   0.0000   0.0000   0.0000   0.0000

          k = 0.2143 0.2857 0.4286 (  1735 PWs)   bands (ev):

   -39.6042 -16.6860 -16.4414 -16.3649 -16.2159  -2.6279  -1.4683  -1.3252
     0.9915   1.6933   2.0808   9.8908  10.1822  11.0826  11.1635  11.4570
    12.6494  13.9748  14.2012  14.6656  20.5842  21.1700  21.3009  25.0950

     occupation numbers 
     1.0000   1.0000   1.0000   1.0000   1.0000   1.0000   1.0000   1.0000
     1.0000   1.0000   1.0000   1.0000   1.0000   1.0000   1.0000   1.0000
     1.0000   1.0000   1.0000   1.0000   0.0000   0.0000   0.0000   0.0000

          k = 0.2143 0.2857-0.5000 (  1728 PWs)   bands (ev):

   -39.6039 -16.6928 -16.4329 -16.3598 -16.2310  -2.6336  -1.4268  -1.2798
     0.9530   1.8017   1.9873   9.9187   9.9547  11.0762  11.1316  11.4495
    12.6624  13.9720  14.1830  14.6797  20.6093  21.3056  21.4150  25.1771

     occupation numbers 
     1.0000   1.0000   1.0000   1.0000   1.0000   1.0000   1.0000   1.0000
     1.0000   1.0000   1.0000   1.0000   1.0000   1.0000   1.0000   1.0000
     1.0000   1.0000   1.0000   1.0000   0.0000   0.0000   0.0000   0.0000

          k = 0.2143 0.3571 0.3571 (  1739 PWs)   bands (ev):

   -39.6038 -16.6369 -16.4954 -16.3678 -16.2212  -2.4367  -1.5444  -1.3458
     1.0541   1.5130   2.0886   9.8578  10.5546  10.7635  11.1782  11.2111
    12.5728  14.0239  14.2491  14.8538  20.9213  20.9744  21.2588  24.9475

     occupation numbers 
     1.0000   1.0000   1.0000   1.0000   1.0000   1.0000   1.0000   1.0000
     1.0000   1.0000   1.0000   1.0000   1.0000   1.0000   1.0000   1.0000
     1.0000   1.0000   1.0000   1.0000   0.0000   0.0000   0.0000   0.0000

          k = 0.2143 0.3571 0.4286 (  1732 PWs)   bands (ev):

   -39.6029 -16.6275 -16.5003 -16.3608 -16.2578  -2.3375  -1.4626  -1.3081
     1.0039   1.5976   1.9478   9.8205  10.1442  10.6733  11.1022  11.1799
    12.5765  14.0702  14.2404  14.9860  21.0198  21.2816  21.4988  24.9672

     occupation numbers 
     1.0000   1.0000   1.0000   1.0000   1.0000   1.0000   1.0000   1.0000
     1.0000   1.0000   1.0000   1.0000   1.0000   1.0000   1.0000   1.0000
     1.0000   1.0000   1.0000   1.0000   0.0000   0.0000   0.0000   0.0000

          k = 0.2143 0.3571-0.5000 (  1736 PWs)   bands (ev):

   -39.6026 -16.6304 -16.4930 -16.3559 -16.2758  -2.3125  -1.3601  -1.3580
     0.9828   1.6782   1.8554   9.8225   9.9531  10.6649  11.0725  11.1739
    12.5822  14.1077  14.2164  15.0268  21.0456  21.4086  21.5967  24.9520

     occupation numbers 
     1.0000   1.0000   1.0000   1.0000   1.0000   1.0000   1.0000   1.0000
     1.0000   1.0000   1.0000   1.0000   1.0000   1.0000   1.0000   1.0000
     1.0000   1.0000   1.0000   1.0000   0.0000   0.0000   0.0000   0.0000

          k = 0.2143 0.4286 0.4286 (  1741 PWs)   bands (ev):

   -39.6020 -16.5821 -16.5346 -16.3564 -16.2989  -2.1127  -1.4686  -1.3233
     1.0477   1.5883   1.7985   9.7797  10.0516  10.2758  11.0917  11.0967
    12.5602  14.1659  14.2659  15.1703  21.3360  21.3589  21.6952  24.7303

     occupation numbers 
     1.0000   1.0000   1.0000   1.0000   1.0000   1.0000   1.0000   1.0000
     1.0000   1.0000   1.0000   1.0000   1.0000   1.0000   1.0000   1.0000
     1.0000   1.0000   1.0000   1.0000   0.0000   0.0000   0.0000   0.0000

          k = 0.2143 0.4286-0.5000 (  1732 PWs)   bands (ev):

   -39.6017 -16.5743 -16.5340 -16.3532 -16.3196  -2.0268  -1.4198  -1.3892
     1.0723   1.6286   1.7018   9.7692   9.9267  10.2158  11.0671  11.0901
    12.5569  14.2254  14.2544  15.2294  21.3700  21.4713  21.7784  24.6351

     occupation numbers 
     1.0000   1.0000   1.0000   1.0000   1.0000   1.0000   1.0000   1.0000
     1.0000   1.0000   1.0000   1.0000   1.0000   1.0000   1.0000   1.0000
     1.0000   1.0000   1.0000   1.0000   0.0000   0.0000   0.0000   0.0000

          k = 0.2143-0.5000-0.5000 (  1740 PWs)   bands (ev):

   -39.6014 -16.5485 -16.5485 -16.3522 -16.3410  -1.8855  -1.4432  -1.4432
     1.1316   1.6206   1.6206   9.7531   9.8705  10.0936  11.0635  11.0635
    12.5498  14.2709  14.2709  15.2949  21.4925  21.4925  21.8558  24.5182

     occupation numbers 
     1.0000   1.0000   1.0000   1.0000   1.0000   1.0000   1.0000   1.0000
     1.0000   1.0000   1.0000   1.0000   1.0000   1.0000   1.0000   1.0000
     1.0000   1.0000   1.0000   1.0000   0.0000   0.0000   0.0000   0.0000

          k = 0.2857 0.2857 0.2857 (  1746 PWs)   bands (ev):

   -39.6050 -16.6459 -16.4330 -16.4330 -16.1776  -2.4795  -1.5395  -1.5395
     1.2203   1.2203   2.2166  10.0030  11.1730  11.1730  11.2667  11.2667
    12.1592  14.2563  14.2563  14.5989  20.6925  20.6925  20.8324  24.7742

     occupation numbers 
     1.0000   1.0000   1.0000   1.0000   1.0000   1.0000   1.0000   1.0000
     1.0000   1.0000   1.0000   1.0000   1.0000   1.0000   1.0000   1.0000
     1.0000   1.0000   1.0000   1.0000   0.0000   0.0000   0.0000   0.0000

          k = 0.2857 0.2857 0.3571 (  1731 PWs)   bands (ev):

   -39.6037 -16.6319 -16.4560 -16.4284 -16.2090  -2.3546  -1.4320  -1.4097
     1.0089   1.3195   2.0783   9.9923  10.6723  11.0809  11.1462  11.2522
    11.9998  14.2246  14.4253  14.7098  20.8560  21.0377  21.1651  24.9577

     occupation numbers 
     1.0000   1.0000   1.0000   1.0000   1.0000   1.0000   1.0000   1.0000
     1.0000   1.0000   1.0000   1.0000   1.0000   1.0000   1.0000   1.0000
     1.0000   1.0000   1.0000   1.0000   0.0000   0.0000   0.0000   0.0000

          k = 0.2857 0.2857 0.4286 (  1727 PWs)   bands (ev):

   -39.6028 -16.6405 -16.4434 -16.4253 -16.2404  -2.3169  -1.3062  -1.3053
     0.8495   1.4657   1.9194   9.9894  10.1970  11.0296  11.1025  11.2433
    11.9930  14.1994  14.5192  14.7596  20.9436  21.3440  21.4422  25.1173

     occupation numbers 
     1.0000   1.0000   1.0000   1.0000   1.0000   1.0000   1.0000   1.0000
     1.0000   1.0000   1.0000   1.0000   1.0000   1.0000   1.0000   1.0000
     1.0000   1.0000   1.0000   1.0000   0.0000   0.0000   0.0000   0.0000

          k = 0.2857 0.2857-0.5000 (  1730 PWs)   bands (ev):

   -39.6024 -16.6472 -16.4313 -16.4242 -16.2554  -2.3122  -1.2656  -1.2500
     0.7891   1.5609   1.8230   9.9570  10.0522  11.0135  11.0847  11.2401
    12.0017  14.1910  14.5477  14.7713  20.9734  21.4704  21.5475  25.1904

     occupation numbers 
     1.0000   1.0000   1.0000   1.0000   1.0000   1.0000   1.0000   1.0000
     1.0000   1.0000   1.0000   1.0000   1.0000   1.0000   1.0000   1.0000
     1.0000   1.0000   1.0000   1.0000   0.0000   0.0000   0.0000   0.0000

          k = 0.2857 0.3571 0.3571 (  1734 PWs)   bands (ev):

   -39.6024 -16.5979 -16.4899 -16.4339 -16.2398  -2.1300  -1.3840  -1.2701
     0.9265   1.2163   1.8969  10.0524  10.5527  10.7946  11.0729  11.0963
    11.7707  14.3667  14.5187  14.8911  21.2080  21.2121  21.4016  24.9235

     occupation numbers 
     1.0000   1.0000   1.0000   1.0000   1.0000   1.0000   1.0000   1.0000
     1.0000   1.0000   1.0000   1.0000   1.0000   1.0000   1.0000   1.0000
     1.0000   1.0000   1.0000   1.0000   0.0000   0.0000   0.0000   0.0000

          k = 0.2857 0.3571 0.4286 (  1734 PWs)   bands (ev):

   -39.6015 -16.5938 -16.4945 -16.4275 -16.2698  -2.0094  -1.3000  -1.1777
     0.7957   1.2915   1.7090  10.0703  10.1898  10.6908  11.0291  11.0837
    11.7408  14.4122  14.5993  15.0137  21.3039  21.4989  21.6353  24.8019

     occupation numbers 
     1.0000   1.0000   1.0000   1.0000   1.0000   1.0000   1.0000   1.0000
     1.0000   1.0000   1.0000   1.0000   1.0000   1.0000   1.0000   1.0000
     1.0000   1.0000   1.0000   1.0000   0.0000   0.0000   0.0000   0.0000

          k = 0.2857 0.3571-0.5000 (  1738 PWs)   bands (ev):

   -39.6012 -16.5994 -16.4877 -16.4231 -16.2840  -1.9775  -1.2410  -1.1593
     0.7385   1.3734   1.5995   9.9583  10.1480  10.6740  11.0112  11.0814
    11.7428  14.4241  14.6278  15.0540  21.3352  21.6152  21.7311  24.7428

     occupation numbers 
     1.0000   1.0000   1.0000   1.0000   1.0000   1.0000   1.0000   1.0000
     1.0000   1.0000   1.0000   1.0000   1.0000   1.0000   1.0000   1.0000
     1.0000   1.0000   1.0000   1.0000   0.0000   0.0000   0.0000   0.0000

          k = 0.2857 0.4286 0.4286 (  1740 PWs)   bands (ev):

   -39.6006 -16.5605 -16.5289 -16.4227 -16.2978  -1.7650  -1.2853  -1.1399
     0.7895   1.2381   1.4990  10.0560  10.1577  10.3102  11.0362  11.0544
    11.6798  14.5538  14.6333  15.1972  21.5843  21.5895  21.8370  24.4970

     occupation numbers 
     1.0000   1.0000   1.0000   1.0000   1.0000   1.0000   1.0000   1.0000
     1.0000   1.0000   1.0000   1.0000   1.0000   1.0000   1.0000   1.0000
     1.0000   1.0000   1.0000   1.0000   0.0000   0.0000   0.0000   0.0000

          k = 0.2857 0.4286-0.5000 (  1744 PWs)   bands (ev):

   -39.6003 -16.5594 -16.5283 -16.4201 -16.3106  -1.6683  -1.2473  -1.1722
     0.7913   1.2762   1.3721   9.9327  10.2007  10.2267  11.0318  11.0528
    11.6677  14.5972  14.6522  15.2589  21.6166  21.6983  21.9233  24.3782

     occupation numbers 
     1.0000   1.0000   1.0000   1.0000   1.0000   1.0000   1.0000   1.0000
     1.0000   1.0000   1.0000   1.0000   1.0000   1.0000   1.0000   1.0000
     1.0000   1.0000   1.0000   1.0000   0.0000   0.0000   0.0000   0.0000

          k = 0.2857-0.5000-0.5000 (  1740 PWs)   bands (ev):

   -39.5999 -16.5427 -16.5427 -16.4190 -16.3225  -1.4871  -1.2523  -1.2523
     0.8526   1.2518   1.2518   9.8773  10.1041  10.2170  11.0426  11.0426
    11.6483  14.6609  14.6609  15.3282  21.7267  21.7267  22.0057  24.2406

     occupation numbers 
     1.0000   1.0000   1.0000   1.0000   1.0000   1.0000   1.0000   1.0000
     1.0000   1.0000   1.0000   1.0000   1.0000   1.0000   1.0000   1.0000
     1.0000   1.0000   1.0000   1.0000   0.0000   0.0000   0.0000   0.0000

          k = 0.3571 0.3571 0.3571 (  1733 PWs)   bands (ev):

   -39.6011 -16.5637 -16.4850 -16.4850 -16.2626  -1.8599  -1.2065  -1.2065
     0.9200   0.9200   1.6622  10.2242  10.5529  10.5529  11.0354  11.0354
    11.2615  14.6640  14.6640  14.9918  21.4843  21.4843  21.5589  24.8395

     occupation numbers 
     1.0000   1.0000   1.0000   1.0000   1.0000   1.0000   1.0000   1.0000
     1.0000   1.0000   1.0000   1.0000   1.0000   1.0000   1.0000   1.0000
     1.0000   1.0000   1.0000   1.0000   0.0000   0.0000   0.0000   0.0000

          k = 0.3571 0.3571 0.4286 (  1735 PWs)   bands (ev):

   -39.6002 -16.5610 -16.4931 -16.4816 -16.2840  -1.6889  -1.1547  -1.0521
     0.6856   1.0116   1.4362  10.1270  10.3696  10.5541  10.9575  10.9981
    11.2026  14.7153  14.8558  15.0945  21.5991  21.7350  21.7711  24.6136

     occupation numbers 
     1.0000   1.0000   1.0000   1.0000   1.0000   1.0000   1.0000   1.0000
     1.0000   1.0000   1.0000   1.0000   1.0000   1.0000   1.0000   1.0000
     1.0000   1.0000   1.0000   1.0000   0.0000   0.0000   0.0000   0.0000

          k = 0.3571 0.3571-0.5000 (  1728 PWs)   bands (ev):

   -39.5999 -16.5690 -16.4849 -16.4804 -16.2936  -1.6351  -1.1303  -0.9867
     0.5919   1.1023   1.3045   9.9604  10.4192  10.5548  10.8998  10.9855
    11.2288  14.7286  14.9212  15.1331  21.6329  21.8424  21.8617  24.5164

     occupation numbers 
     1.0000   1.0000   1.0000   1.0000   1.0000   1.0000   1.0000   1.0000
     1.0000   1.0000   1.0000   1.0000   1.0000   1.0000   1.0000   1.0000
     1.0000   1.0000   1.0000   1.0000   0.0000   0.0000   0.0000   0.0000

          k = 0.3571 0.4286 0.4286 (  1735 PWs)   bands (ev):

   -39.5993 -16.5406 -16.5237 -16.4816 -16.2968  -1.4304  -1.0730  -0.9640
     0.6212   0.8822   1.1820  10.0605  10.2439  10.5229  10.8973  11.0197
    11.0586  14.9089  14.9585  15.2295  21.8402  21.8441  21.9670  24.2955

     occupation numbers 
     1.0000   1.0000   1.0000   1.0000   1.0000   1.0000   1.0000   1.0000
     1.0000   1.0000   1.0000   1.0000   1.0000   1.0000   1.0000   1.0000
     1.0000   1.0000   1.0000   1.0000   0.0000   0.0000   0.0000   0.0000

          k = 0.3571 0.4286-0.5000 (  1738 PWs)   bands (ev):

   -39.5990 -16.5461 -16.5231 -16.4792 -16.3022  -1.3191  -1.0540  -0.9367
     0.5724   0.9290   1.0261   9.9370  10.2028  10.5762  10.8696  11.0002
    11.0717  14.9477  15.0114  15.2891  21.8748  21.9413  22.0566  24.1594

     occupation numbers 
     1.0000   1.0000   1.0000   1.0000   1.0000   1.0000   1.0000   1.0000
     1.0000   1.0000   1.0000   1.0000   1.0000   1.0000   1.0000   1.0000
     1.0000   1.0000   1.0000   1.0000   0.0000   0.0000   0.0000   0.0000

          k = 0.3571-0.5000-0.5000 (  1732 PWs)   bands (ev):

   -39.5987 -16.5374 -16.5374 -16.4781 -16.3058  -1.0997  -1.0277  -1.0277
     0.6197   0.8748   0.8748   9.8834  10.0874  10.6205  10.8911  11.0174
    11.0174  15.0276  15.0276  15.3586  21.9734  21.9734  22.1435  24.0066

     occupation numbers 
     1.0000   1.0000   1.0000   1.0000   1.0000   1.0000   1.0000   1.0000
     1.0000   1.0000   1.0000   1.0000   1.0000   1.0000   1.0000   1.0000
     1.0000   1.0000   1.0000   1.0000   0.0000   0.0000   0.0000   0.0000

          k = 0.4286 0.4286 0.4286 (  1733 PWs)   bands (ev):

   -39.5984 -16.5280 -16.5201 -16.5201 -16.2964  -1.1567  -0.8732  -0.8732
     0.5865   0.5865   0.9000  10.0638  10.0638  10.5536  10.7904  10.9952
    10.9952  15.1567  15.1567  15.2807  22.0571  22.0596  22.0596  24.1532

     occupation numbers 
     1.0000   1.0000   1.0000   1.0000   1.0000   1.0000   1.0000   1.0000
     1.0000   1.0000   1.0000   1.0000   1.0000   1.0000   1.0000   1.0000
     1.0000   1.0000   1.0000   1.0000   0.0000   0.0000   0.0000   0.0000

          k = 0.4286 0.4286-0.5000 (  1738 PWs)   bands (ev):

   -39.5981 -16.5370 -16.5203 -16.5188 -16.2963  -1.0175  -0.8831  -0.7806
     0.4603   0.6595   0.7213   9.9294  10.0650  10.5247  10.8224  10.9864
    11.0111  15.1993  15.2456  15.3274  22.0918  22.1460  22.1546  23.9989

     occupation numbers 
     1.0000   1.0000   1.0000   1.0000   1.0000   1.0000   1.0000   1.0000
     1.0000   1.0000   1.0000   1.0000   1.0000   1.0000   1.0000   1.0000
     1.0000   1.0000   1.0000   1.0000   0.0000   0.0000   0.0000   0.0000

          k = 0.4286-0.5000-0.5000 (  1724 PWs)   bands (ev):

   -39.5978 -16.5338 -16.5338 -16.5182 -16.2941  -0.8116  -0.8097  -0.8097
     0.4672   0.5553   0.5553   9.8876   9.9858  10.4619  10.8934  10.9974
    10.9974  15.2912  15.2912  15.3798  22.1838  22.1838  22.2400  23.8529

     occupation numbers 
     1.0000   1.0000   1.0000   1.0000   1.0000   1.0000   1.0000   1.0000
     1.0000   1.0000   1.0000   1.0000   1.0000   1.0000   1.0000   1.0000
     1.0000   1.0000   1.0000   1.0000   0.0000   0.0000   0.0000   0.0000

          k =-0.5000-0.5000-0.5000 (  1736 PWs)   bands (ev):

   -39.5975 -16.5325 -16.5325 -16.5325 -16.2899  -0.7041  -0.7041  -0.7041
     0.4143   0.4143   0.4143   9.8891   9.8891  10.3685  10.9898  10.9898
    10.9898  15.3875  15.3875  15.3875  22.2747  22.2747  22.2747  23.7994

     occupation numbers 
     1.0000   1.0000   1.0000   1.0000   1.0000   1.0000   1.0000   1.0000
     1.0000   1.0000   1.0000   1.0000   1.0000   1.0000   1.0000   1.0000
     1.0000   1.0000   1.0000   1.0000   0.0000   0.0000   0.0000   0.0000

     the Fermi energy is    17.1098 ev

!    total energy              =    -286.63333908 Ry
     Harris-Foulkes estimate   =    -286.63333908 Ry
     estimated scf accuracy    <          4.6E-09 Ry

     The total energy is the sum of the following terms:

     one-electron contribution =     -42.67816984 Ry
     hartree contribution      =      52.46398798 Ry
     xc contribution           =     -59.78082859 Ry
     ewald contribution        =    -236.63832862 Ry
     smearing contrib. (-TS)   =       0.00000000 Ry

     convergence has been achieved in   8 iterations
 
     init_run     :      0.83s CPU      0.95s WALL (       1 calls)
     electrons    :     21.48s CPU     23.85s WALL (       1 calls)

     Called by init_run:
     wfcinit      :      0.75s CPU      0.82s WALL (       1 calls)
     wfcinit:atom :      0.00s CPU      0.00s WALL (     120 calls)
     wfcinit:wfcr :      0.72s CPU      0.79s WALL (     120 calls)
     potinit      :      0.01s CPU      0.01s WALL (       1 calls)
     hinit0       :      0.06s CPU      0.10s WALL (       1 calls)

     Called by electrons:
     c_bands      :     20.20s CPU     22.45s WALL (       8 calls)
     sum_band     :      1.23s CPU      1.33s WALL (       8 calls)
     v_of_rho     :      0.01s CPU      0.01s WALL (       9 calls)
     v_h          :      0.00s CPU      0.00s WALL (       9 calls)
     v_xc         :      0.01s CPU      0.01s WALL (       9 calls)
     newd         :      0.04s CPU      0.04s WALL (       9 calls)
     mix_rho      :      0.00s CPU      0.00s WALL (       8 calls)

     Called by c_bands:
     init_us_2    :      0.12s CPU      0.13s WALL (    2040 calls)
     cegterg      :     19.75s CPU     21.98s WALL (     960 calls)

     Called by sum_band:
     sum_band:bec :      0.02s CPU      0.02s WALL (     960 calls)
     addusdens    :      0.04s CPU      0.04s WALL (       8 calls)

     Called by *egterg:
     h_psi        :      6.04s CPU      6.47s WALL (    4122 calls)
     s_psi        :      0.16s CPU      0.17s WALL (    4122 calls)
     g_psi        :      0.04s CPU      0.04s WALL (    3042 calls)
     cdiaghg      :     11.86s CPU     13.20s WALL (    4002 calls)
     cegterg:over :      1.38s CPU      1.85s WALL (    3042 calls)
     cegterg:upda :      0.49s CPU      0.51s WALL (    3042 calls)
     cegterg:last :      0.17s CPU      0.18s WALL (     960 calls)
     cdiaghg:chol :      0.33s CPU      0.40s WALL (    4002 calls)
     cdiaghg:inve :      0.19s CPU      0.23s WALL (    4002 calls)
     cdiaghg:para :      0.60s CPU      0.67s WALL (    8004 calls)

     Called by h_psi:
     h_psi:pot    :      6.03s CPU      6.45s WALL (    4122 calls)
     h_psi:calbec :      0.29s CPU      0.31s WALL (    4122 calls)
     vloc_psi     :      5.55s CPU      5.94s WALL (    4122 calls)
     add_vuspsi   :      0.17s CPU      0.18s WALL (    4122 calls)

     General routines
     calbec       :      0.37s CPU      0.40s WALL (    5082 calls)
     fft          :      0.01s CPU      0.03s WALL (     100 calls)
     ffts         :      0.00s CPU      0.00s WALL (       8 calls)
     fftw         :      6.17s CPU      6.60s WALL (  153906 calls)
 
     Parallel routines
     fft_scatt_xy :      0.53s CPU      0.56s WALL (  154014 calls)
     fft_scatt_yz :      4.26s CPU      4.58s WALL (  154014 calls)
 
     PWSCF        :    22.41s CPU        24.99s WALL

 
   This run was terminated on:  21:43:45   6Feb2019            

=------------------------------------------------------------------------------=
   JOB DONE.
=------------------------------------------------------------------------------=
