
     Program PWSCF v.6.3MaX starts on  6Feb2019 at 21:43:23 

     This program is part of the open-source Quantum ESPRESSO suite
     for quantum simulation of materials; please cite
         "P. Giannozzi et al., J. Phys.:Condens. Matter 21 395502 (2009);
         "P. Giannozzi et al., J. Phys.:Condens. Matter 29 465901 (2017);
          URL http://www.quantum-espresso.org", 
     in publications or presentations arising from this work. More details at
     http://www.quantum-espresso.org/quote

     Parallel version (MPI & OpenMP), running on      20 processor cores
     Number of MPI processes:                20
     Threads/MPI process:                     1

     MPI processes distributed on     1 nodes
     R & G space division:  proc/nbgrp/npool/nimage =      20
     Reading input from /home/azadoks/dftman/projects/SrTiO3 Convergence/EOSWorkflows/dec041a1a445/82c338836220/pwscf.in
Warning: card &IONS ignored
Warning: card / ignored
Warning: card &CELL ignored
Warning: card / ignored

     Current dimensions of program PWSCF are:
     Max number of different atomic species (ntypx) = 10
     Max number of k-points (npk) =  40000
     Max angular momentum in pseudopotentials (lmaxx) =  3
     Message from routine iosys:
     minimal I/O required, wf_collect reset to FALSE

     Subspace diagonalization in iterative solution of the eigenvalue problem:
     one sub-group per band group will be used
     scalapack distributed-memory algorithm (size of sub-group:  3*  3 procs)

 
     Parallelization info
     --------------------
     sticks:   dense  smooth     PW     G-vecs:    dense   smooth      PW
     Min          42      42     13                  929      929     155
     Max          44      44     14                  933      933     157
     Sum         853     853    261                18613    18613    3119
 


     bravais-lattice index     =            0
     lattice parameter (alat)  =       7.2895  a.u.
     unit-cell volume          =     387.3479 (a.u.)^3
     number of atoms/cell      =            5
     number of atomic types    =            3
     number of electrons       =        40.00
     number of Kohn-Sham states=           24
     kinetic-energy cutoff     =      50.0000  Ry
     charge density cutoff     =     200.0000  Ry
     convergence threshold     =      1.0E-08
     mixing beta               =       0.7000
     number of iterations used =            8  plain     mixing
     Exchange-correlation      =  SLA  PW   PBX  PBC ( 1  4  3  4 0 0)

     celldm(1)=   7.289545  celldm(2)=   0.000000  celldm(3)=   0.000000
     celldm(4)=   0.000000  celldm(5)=   0.000000  celldm(6)=   0.000000

     crystal axes: (cart. coord. in units of alat)
               a(1) = (   1.000000   0.000000   0.000000 )  
               a(2) = (   0.000000   1.000000   0.000000 )  
               a(3) = (   0.000000   0.000000   1.000000 )  

     reciprocal axes: (cart. coord. in units 2 pi/alat)
               b(1) = (  1.000000  0.000000  0.000000 )  
               b(2) = (  0.000000  1.000000  0.000000 )  
               b(3) = (  0.000000  0.000000  1.000000 )  


     PseudoPot. # 1 for O  read from file:
     /home/azadoks/.local/share/pseudo/GBRV_PBE_US/o_pbe_v1.2.uspp.F.UPF
     MD5 check sum: 734c27235a0248c51dbae37a1fbe46ec
     Pseudo is Ultrasoft + core correction, Zval =  6.0
     Generated by new atomic code, or converted to UPF format
     Using radial grid of  737 points,  5 beta functions with: 
                l(1) =   0
                l(2) =   0
                l(3) =   1
                l(4) =   1
                l(5) =   2
     Q(r) pseudized with  8 coefficients,  rinner =    0.900   0.900   0.900
                                                       0.900   0.900

     PseudoPot. # 2 for Sr read from file:
     /home/azadoks/.local/share/pseudo/GBRV_PBE_US/sr_pbe_v1.uspp.F.UPF
     MD5 check sum: 6b418c05fbe9db5448babca5e47b7a5b
     Pseudo is Ultrasoft + core correction, Zval = 10.0
     Generated by new atomic code, or converted to UPF format
     Using radial grid of  883 points,  6 beta functions with: 
                l(1) =   0
                l(2) =   0
                l(3) =   1
                l(4) =   1
                l(5) =   2
                l(6) =   2
     Q(r) pseudized with  6 coefficients,  rinner =    1.400   1.400   1.400
                                                       1.400   1.400

     PseudoPot. # 3 for Ti read from file:
     /home/azadoks/.local/share/pseudo/GBRV_PBE_US/ti_pbe_v1.4.uspp.F.UPF
     MD5 check sum: 88a00a6731bd790ddea75d31a80cb452
     Pseudo is Ultrasoft + core correction, Zval = 12.0
     Generated by new atomic code, or converted to UPF format
     Using radial grid of  851 points,  6 beta functions with: 
                l(1) =   0
                l(2) =   0
                l(3) =   1
                l(4) =   1
                l(5) =   2
                l(6) =   2
     Q(r) pseudized with  6 coefficients,  rinner =    1.000   1.000   1.000
                                                       1.000   1.000

     atomic species   valence    mass     pseudopotential
        O              6.00    15.99940     O ( 1.00)
        Sr            10.00    87.62000     Sr( 1.00)
        Ti            12.00    47.86700     Ti( 1.00)

     48 Sym. Ops., with inversion, found


                                    s                        frac. trans.

      isym =  1     identity                                     

 cryst.   s( 1) = (     1          0          0      )
                  (     0          1          0      )
                  (     0          0          1      )

 cart.    s( 1) = (  1.0000000  0.0000000  0.0000000 )
                  (  0.0000000  1.0000000  0.0000000 )
                  (  0.0000000  0.0000000  1.0000000 )


      isym =  2     180 deg rotation - cart. axis [0,0,1]        

 cryst.   s( 2) = (    -1          0          0      )
                  (     0         -1          0      )
                  (     0          0          1      )

 cart.    s( 2) = ( -1.0000000  0.0000000  0.0000000 )
                  (  0.0000000 -1.0000000  0.0000000 )
                  (  0.0000000  0.0000000  1.0000000 )


      isym =  3     180 deg rotation - cart. axis [0,1,0]        

 cryst.   s( 3) = (    -1          0          0      )
                  (     0          1          0      )
                  (     0          0         -1      )

 cart.    s( 3) = ( -1.0000000  0.0000000  0.0000000 )
                  (  0.0000000  1.0000000  0.0000000 )
                  (  0.0000000  0.0000000 -1.0000000 )


      isym =  4     180 deg rotation - cart. axis [1,0,0]        

 cryst.   s( 4) = (     1          0          0      )
                  (     0         -1          0      )
                  (     0          0         -1      )

 cart.    s( 4) = (  1.0000000  0.0000000  0.0000000 )
                  (  0.0000000 -1.0000000  0.0000000 )
                  (  0.0000000  0.0000000 -1.0000000 )


      isym =  5     180 deg rotation - cart. axis [1,1,0]        

 cryst.   s( 5) = (     0          1          0      )
                  (     1          0          0      )
                  (     0          0         -1      )

 cart.    s( 5) = (  0.0000000  1.0000000  0.0000000 )
                  (  1.0000000  0.0000000  0.0000000 )
                  (  0.0000000  0.0000000 -1.0000000 )


      isym =  6     180 deg rotation - cart. axis [1,-1,0]       

 cryst.   s( 6) = (     0         -1          0      )
                  (    -1          0          0      )
                  (     0          0         -1      )

 cart.    s( 6) = (  0.0000000 -1.0000000  0.0000000 )
                  ( -1.0000000  0.0000000  0.0000000 )
                  (  0.0000000  0.0000000 -1.0000000 )


      isym =  7      90 deg rotation - cart. axis [0,0,-1]       

 cryst.   s( 7) = (     0         -1          0      )
                  (     1          0          0      )
                  (     0          0          1      )

 cart.    s( 7) = (  0.0000000  1.0000000  0.0000000 )
                  ( -1.0000000  0.0000000  0.0000000 )
                  (  0.0000000  0.0000000  1.0000000 )


      isym =  8      90 deg rotation - cart. axis [0,0,1]        

 cryst.   s( 8) = (     0          1          0      )
                  (    -1          0          0      )
                  (     0          0          1      )

 cart.    s( 8) = (  0.0000000 -1.0000000  0.0000000 )
                  (  1.0000000  0.0000000  0.0000000 )
                  (  0.0000000  0.0000000  1.0000000 )


      isym =  9     180 deg rotation - cart. axis [1,0,1]        

 cryst.   s( 9) = (     0          0          1      )
                  (     0         -1          0      )
                  (     1          0          0      )

 cart.    s( 9) = (  0.0000000  0.0000000  1.0000000 )
                  (  0.0000000 -1.0000000  0.0000000 )
                  (  1.0000000  0.0000000  0.0000000 )


      isym = 10     180 deg rotation - cart. axis [-1,0,1]       

 cryst.   s(10) = (     0          0         -1      )
                  (     0         -1          0      )
                  (    -1          0          0      )

 cart.    s(10) = (  0.0000000  0.0000000 -1.0000000 )
                  (  0.0000000 -1.0000000  0.0000000 )
                  ( -1.0000000  0.0000000  0.0000000 )


      isym = 11      90 deg rotation - cart. axis [0,1,0]        

 cryst.   s(11) = (     0          0         -1      )
                  (     0          1          0      )
                  (     1          0          0      )

 cart.    s(11) = (  0.0000000  0.0000000  1.0000000 )
                  (  0.0000000  1.0000000  0.0000000 )
                  ( -1.0000000  0.0000000  0.0000000 )


      isym = 12      90 deg rotation - cart. axis [0,-1,0]       

 cryst.   s(12) = (     0          0          1      )
                  (     0          1          0      )
                  (    -1          0          0      )

 cart.    s(12) = (  0.0000000  0.0000000 -1.0000000 )
                  (  0.0000000  1.0000000  0.0000000 )
                  (  1.0000000  0.0000000  0.0000000 )


      isym = 13     180 deg rotation - cart. axis [0,1,1]        

 cryst.   s(13) = (    -1          0          0      )
                  (     0          0          1      )
                  (     0          1          0      )

 cart.    s(13) = ( -1.0000000  0.0000000  0.0000000 )
                  (  0.0000000  0.0000000  1.0000000 )
                  (  0.0000000  1.0000000  0.0000000 )


      isym = 14     180 deg rotation - cart. axis [0,1,-1]       

 cryst.   s(14) = (    -1          0          0      )
                  (     0          0         -1      )
                  (     0         -1          0      )

 cart.    s(14) = ( -1.0000000  0.0000000  0.0000000 )
                  (  0.0000000  0.0000000 -1.0000000 )
                  (  0.0000000 -1.0000000  0.0000000 )


      isym = 15      90 deg rotation - cart. axis [-1,0,0]       

 cryst.   s(15) = (     1          0          0      )
                  (     0          0         -1      )
                  (     0          1          0      )

 cart.    s(15) = (  1.0000000  0.0000000  0.0000000 )
                  (  0.0000000  0.0000000  1.0000000 )
                  (  0.0000000 -1.0000000  0.0000000 )


      isym = 16      90 deg rotation - cart. axis [1,0,0]        

 cryst.   s(16) = (     1          0          0      )
                  (     0          0          1      )
                  (     0         -1          0      )

 cart.    s(16) = (  1.0000000  0.0000000  0.0000000 )
                  (  0.0000000  0.0000000 -1.0000000 )
                  (  0.0000000  1.0000000  0.0000000 )


      isym = 17     120 deg rotation - cart. axis [-1,-1,-1]     

 cryst.   s(17) = (     0          0          1      )
                  (     1          0          0      )
                  (     0          1          0      )

 cart.    s(17) = (  0.0000000  1.0000000  0.0000000 )
                  (  0.0000000  0.0000000  1.0000000 )
                  (  1.0000000  0.0000000  0.0000000 )


      isym = 18     120 deg rotation - cart. axis [-1,1,1]       

 cryst.   s(18) = (     0          0         -1      )
                  (    -1          0          0      )
                  (     0          1          0      )

 cart.    s(18) = (  0.0000000 -1.0000000  0.0000000 )
                  (  0.0000000  0.0000000  1.0000000 )
                  ( -1.0000000  0.0000000  0.0000000 )


      isym = 19     120 deg rotation - cart. axis [1,1,-1]       

 cryst.   s(19) = (     0          0         -1      )
                  (     1          0          0      )
                  (     0         -1          0      )

 cart.    s(19) = (  0.0000000  1.0000000  0.0000000 )
                  (  0.0000000  0.0000000 -1.0000000 )
                  ( -1.0000000  0.0000000  0.0000000 )


      isym = 20     120 deg rotation - cart. axis [1,-1,1]       

 cryst.   s(20) = (     0          0          1      )
                  (    -1          0          0      )
                  (     0         -1          0      )

 cart.    s(20) = (  0.0000000 -1.0000000  0.0000000 )
                  (  0.0000000  0.0000000 -1.0000000 )
                  (  1.0000000  0.0000000  0.0000000 )


      isym = 21     120 deg rotation - cart. axis [1,1,1]        

 cryst.   s(21) = (     0          1          0      )
                  (     0          0          1      )
                  (     1          0          0      )

 cart.    s(21) = (  0.0000000  0.0000000  1.0000000 )
                  (  1.0000000  0.0000000  0.0000000 )
                  (  0.0000000  1.0000000  0.0000000 )


      isym = 22     120 deg rotation - cart. axis [-1,1,-1]      

 cryst.   s(22) = (     0         -1          0      )
                  (     0          0         -1      )
                  (     1          0          0      )

 cart.    s(22) = (  0.0000000  0.0000000  1.0000000 )
                  ( -1.0000000  0.0000000  0.0000000 )
                  (  0.0000000 -1.0000000  0.0000000 )


      isym = 23     120 deg rotation - cart. axis [1,-1,-1]      

 cryst.   s(23) = (     0         -1          0      )
                  (     0          0          1      )
                  (    -1          0          0      )

 cart.    s(23) = (  0.0000000  0.0000000 -1.0000000 )
                  ( -1.0000000  0.0000000  0.0000000 )
                  (  0.0000000  1.0000000  0.0000000 )


      isym = 24     120 deg rotation - cart. axis [-1,-1,1]      

 cryst.   s(24) = (     0          1          0      )
                  (     0          0         -1      )
                  (    -1          0          0      )

 cart.    s(24) = (  0.0000000  0.0000000 -1.0000000 )
                  (  1.0000000  0.0000000  0.0000000 )
                  (  0.0000000 -1.0000000  0.0000000 )


      isym = 25     inversion                                    

 cryst.   s(25) = (    -1          0          0      )
                  (     0         -1          0      )
                  (     0          0         -1      )

 cart.    s(25) = ( -1.0000000  0.0000000  0.0000000 )
                  (  0.0000000 -1.0000000  0.0000000 )
                  (  0.0000000  0.0000000 -1.0000000 )


      isym = 26     inv. 180 deg rotation - cart. axis [0,0,1]   

 cryst.   s(26) = (     1          0          0      )
                  (     0          1          0      )
                  (     0          0         -1      )

 cart.    s(26) = (  1.0000000  0.0000000  0.0000000 )
                  (  0.0000000  1.0000000  0.0000000 )
                  (  0.0000000  0.0000000 -1.0000000 )


      isym = 27     inv. 180 deg rotation - cart. axis [0,1,0]   

 cryst.   s(27) = (     1          0          0      )
                  (     0         -1          0      )
                  (     0          0          1      )

 cart.    s(27) = (  1.0000000  0.0000000  0.0000000 )
                  (  0.0000000 -1.0000000  0.0000000 )
                  (  0.0000000  0.0000000  1.0000000 )


      isym = 28     inv. 180 deg rotation - cart. axis [1,0,0]   

 cryst.   s(28) = (    -1          0          0      )
                  (     0          1          0      )
                  (     0          0          1      )

 cart.    s(28) = ( -1.0000000  0.0000000  0.0000000 )
                  (  0.0000000  1.0000000  0.0000000 )
                  (  0.0000000  0.0000000  1.0000000 )


      isym = 29     inv. 180 deg rotation - cart. axis [1,1,0]   

 cryst.   s(29) = (     0         -1          0      )
                  (    -1          0          0      )
                  (     0          0          1      )

 cart.    s(29) = (  0.0000000 -1.0000000  0.0000000 )
                  ( -1.0000000  0.0000000  0.0000000 )
                  (  0.0000000  0.0000000  1.0000000 )


      isym = 30     inv. 180 deg rotation - cart. axis [1,-1,0]  

 cryst.   s(30) = (     0          1          0      )
                  (     1          0          0      )
                  (     0          0          1      )

 cart.    s(30) = (  0.0000000  1.0000000  0.0000000 )
                  (  1.0000000  0.0000000  0.0000000 )
                  (  0.0000000  0.0000000  1.0000000 )


      isym = 31     inv.  90 deg rotation - cart. axis [0,0,-1]  

 cryst.   s(31) = (     0          1          0      )
                  (    -1          0          0      )
                  (     0          0         -1      )

 cart.    s(31) = (  0.0000000 -1.0000000  0.0000000 )
                  (  1.0000000  0.0000000  0.0000000 )
                  (  0.0000000  0.0000000 -1.0000000 )


      isym = 32     inv.  90 deg rotation - cart. axis [0,0,1]   

 cryst.   s(32) = (     0         -1          0      )
                  (     1          0          0      )
                  (     0          0         -1      )

 cart.    s(32) = (  0.0000000  1.0000000  0.0000000 )
                  ( -1.0000000  0.0000000  0.0000000 )
                  (  0.0000000  0.0000000 -1.0000000 )


      isym = 33     inv. 180 deg rotation - cart. axis [1,0,1]   

 cryst.   s(33) = (     0          0         -1      )
                  (     0          1          0      )
                  (    -1          0          0      )

 cart.    s(33) = (  0.0000000  0.0000000 -1.0000000 )
                  (  0.0000000  1.0000000  0.0000000 )
                  ( -1.0000000  0.0000000  0.0000000 )


      isym = 34     inv. 180 deg rotation - cart. axis [-1,0,1]  

 cryst.   s(34) = (     0          0          1      )
                  (     0          1          0      )
                  (     1          0          0      )

 cart.    s(34) = (  0.0000000  0.0000000  1.0000000 )
                  (  0.0000000  1.0000000  0.0000000 )
                  (  1.0000000  0.0000000  0.0000000 )


      isym = 35     inv.  90 deg rotation - cart. axis [0,1,0]   

 cryst.   s(35) = (     0          0          1      )
                  (     0         -1          0      )
                  (    -1          0          0      )

 cart.    s(35) = (  0.0000000  0.0000000 -1.0000000 )
                  (  0.0000000 -1.0000000  0.0000000 )
                  (  1.0000000  0.0000000  0.0000000 )


      isym = 36     inv.  90 deg rotation - cart. axis [0,-1,0]  

 cryst.   s(36) = (     0          0         -1      )
                  (     0         -1          0      )
                  (     1          0          0      )

 cart.    s(36) = (  0.0000000  0.0000000  1.0000000 )
                  (  0.0000000 -1.0000000  0.0000000 )
                  ( -1.0000000  0.0000000  0.0000000 )


      isym = 37     inv. 180 deg rotation - cart. axis [0,1,1]   

 cryst.   s(37) = (     1          0          0      )
                  (     0          0         -1      )
                  (     0         -1          0      )

 cart.    s(37) = (  1.0000000  0.0000000  0.0000000 )
                  (  0.0000000  0.0000000 -1.0000000 )
                  (  0.0000000 -1.0000000  0.0000000 )


      isym = 38     inv. 180 deg rotation - cart. axis [0,1,-1]  

 cryst.   s(38) = (     1          0          0      )
                  (     0          0          1      )
                  (     0          1          0      )

 cart.    s(38) = (  1.0000000  0.0000000  0.0000000 )
                  (  0.0000000  0.0000000  1.0000000 )
                  (  0.0000000  1.0000000  0.0000000 )


      isym = 39     inv.  90 deg rotation - cart. axis [-1,0,0]  

 cryst.   s(39) = (    -1          0          0      )
                  (     0          0          1      )
                  (     0         -1          0      )

 cart.    s(39) = ( -1.0000000  0.0000000  0.0000000 )
                  (  0.0000000  0.0000000 -1.0000000 )
                  (  0.0000000  1.0000000  0.0000000 )


      isym = 40     inv.  90 deg rotation - cart. axis [1,0,0]   

 cryst.   s(40) = (    -1          0          0      )
                  (     0          0         -1      )
                  (     0          1          0      )

 cart.    s(40) = ( -1.0000000  0.0000000  0.0000000 )
                  (  0.0000000  0.0000000  1.0000000 )
                  (  0.0000000 -1.0000000  0.0000000 )


      isym = 41     inv. 120 deg rotation - cart. axis [-1,-1,-1]

 cryst.   s(41) = (     0          0         -1      )
                  (    -1          0          0      )
                  (     0         -1          0      )

 cart.    s(41) = (  0.0000000 -1.0000000  0.0000000 )
                  (  0.0000000  0.0000000 -1.0000000 )
                  ( -1.0000000  0.0000000  0.0000000 )


      isym = 42     inv. 120 deg rotation - cart. axis [-1,1,1]  

 cryst.   s(42) = (     0          0          1      )
                  (     1          0          0      )
                  (     0         -1          0      )

 cart.    s(42) = (  0.0000000  1.0000000  0.0000000 )
                  (  0.0000000  0.0000000 -1.0000000 )
                  (  1.0000000  0.0000000  0.0000000 )


      isym = 43     inv. 120 deg rotation - cart. axis [1,1,-1]  

 cryst.   s(43) = (     0          0          1      )
                  (    -1          0          0      )
                  (     0          1          0      )

 cart.    s(43) = (  0.0000000 -1.0000000  0.0000000 )
                  (  0.0000000  0.0000000  1.0000000 )
                  (  1.0000000  0.0000000  0.0000000 )


      isym = 44     inv. 120 deg rotation - cart. axis [1,-1,1]  

 cryst.   s(44) = (     0          0         -1      )
                  (     1          0          0      )
                  (     0          1          0      )

 cart.    s(44) = (  0.0000000  1.0000000  0.0000000 )
                  (  0.0000000  0.0000000  1.0000000 )
                  ( -1.0000000  0.0000000  0.0000000 )


      isym = 45     inv. 120 deg rotation - cart. axis [1,1,1]   

 cryst.   s(45) = (     0         -1          0      )
                  (     0          0         -1      )
                  (    -1          0          0      )

 cart.    s(45) = (  0.0000000  0.0000000 -1.0000000 )
                  ( -1.0000000  0.0000000  0.0000000 )
                  (  0.0000000 -1.0000000  0.0000000 )


      isym = 46     inv. 120 deg rotation - cart. axis [-1,1,-1] 

 cryst.   s(46) = (     0          1          0      )
                  (     0          0          1      )
                  (    -1          0          0      )

 cart.    s(46) = (  0.0000000  0.0000000 -1.0000000 )
                  (  1.0000000  0.0000000  0.0000000 )
                  (  0.0000000  1.0000000  0.0000000 )


      isym = 47     inv. 120 deg rotation - cart. axis [1,-1,-1] 

 cryst.   s(47) = (     0          1          0      )
                  (     0          0         -1      )
                  (     1          0          0      )

 cart.    s(47) = (  0.0000000  0.0000000  1.0000000 )
                  (  1.0000000  0.0000000  0.0000000 )
                  (  0.0000000 -1.0000000  0.0000000 )


      isym = 48     inv. 120 deg rotation - cart. axis [-1,-1,1] 

 cryst.   s(48) = (     0         -1          0      )
                  (     0          0          1      )
                  (     1          0          0      )

 cart.    s(48) = (  0.0000000  0.0000000  1.0000000 )
                  ( -1.0000000  0.0000000  0.0000000 )
                  (  0.0000000  1.0000000  0.0000000 )


   Cartesian axes

     site n.     atom                  positions (alat units)
         1           O   tau(   1) = (   0.5000000   0.0000000   0.5000000  )
         2           O   tau(   2) = (   0.5000000   0.5000000   0.0000000  )
         3           O   tau(   3) = (   0.0000000   0.5000000   0.5000000  )
         4           Ti  tau(   4) = (   0.5000000   0.5000000   0.5000000  )
         5           Sr  tau(   5) = (   0.0000000   0.0000000   0.0000000  )

   Crystallographic axes

     site n.     atom                  positions (cryst. coord.)
         1           O   tau(   1) = (  0.5000000  0.0000000  0.5000000  )
         2           O   tau(   2) = (  0.5000000  0.5000000  0.0000000  )
         3           O   tau(   3) = (  0.0000000  0.5000000  0.5000000  )
         4           Ti  tau(   4) = (  0.5000000  0.5000000  0.5000000  )
         5           Sr  tau(   5) = (  0.0000000  0.0000000  0.0000000  )

     number of k points=   120  Marzari-Vanderbilt smearing, width (Ry)=  0.0010
                       cart. coord. in units 2pi/alat
        k(    1) = (   0.0000000   0.0000000   0.0000000), wk =   0.0007289
        k(    2) = (   0.0000000   0.0000000   0.0714286), wk =   0.0043732
        k(    3) = (   0.0000000   0.0000000   0.1428571), wk =   0.0043732
        k(    4) = (   0.0000000   0.0000000   0.2142857), wk =   0.0043732
        k(    5) = (   0.0000000   0.0000000   0.2857143), wk =   0.0043732
        k(    6) = (   0.0000000   0.0000000   0.3571429), wk =   0.0043732
        k(    7) = (   0.0000000   0.0000000   0.4285714), wk =   0.0043732
        k(    8) = (   0.0000000   0.0000000  -0.5000000), wk =   0.0021866
        k(    9) = (   0.0000000   0.0714286   0.0714286), wk =   0.0087464
        k(   10) = (   0.0000000   0.0714286   0.1428571), wk =   0.0174927
        k(   11) = (   0.0000000   0.0714286   0.2142857), wk =   0.0174927
        k(   12) = (   0.0000000   0.0714286   0.2857143), wk =   0.0174927
        k(   13) = (   0.0000000   0.0714286   0.3571429), wk =   0.0174927
        k(   14) = (   0.0000000   0.0714286   0.4285714), wk =   0.0174927
        k(   15) = (   0.0000000   0.0714286  -0.5000000), wk =   0.0087464
        k(   16) = (   0.0000000   0.1428571   0.1428571), wk =   0.0087464
        k(   17) = (   0.0000000   0.1428571   0.2142857), wk =   0.0174927
        k(   18) = (   0.0000000   0.1428571   0.2857143), wk =   0.0174927
        k(   19) = (   0.0000000   0.1428571   0.3571429), wk =   0.0174927
        k(   20) = (   0.0000000   0.1428571   0.4285714), wk =   0.0174927
        k(   21) = (   0.0000000   0.1428571  -0.5000000), wk =   0.0087464
        k(   22) = (   0.0000000   0.2142857   0.2142857), wk =   0.0087464
        k(   23) = (   0.0000000   0.2142857   0.2857143), wk =   0.0174927
        k(   24) = (   0.0000000   0.2142857   0.3571429), wk =   0.0174927
        k(   25) = (   0.0000000   0.2142857   0.4285714), wk =   0.0174927
        k(   26) = (   0.0000000   0.2142857  -0.5000000), wk =   0.0087464
        k(   27) = (   0.0000000   0.2857143   0.2857143), wk =   0.0087464
        k(   28) = (   0.0000000   0.2857143   0.3571429), wk =   0.0174927
        k(   29) = (   0.0000000   0.2857143   0.4285714), wk =   0.0174927
        k(   30) = (   0.0000000   0.2857143  -0.5000000), wk =   0.0087464
        k(   31) = (   0.0000000   0.3571429   0.3571429), wk =   0.0087464
        k(   32) = (   0.0000000   0.3571429   0.4285714), wk =   0.0174927
        k(   33) = (   0.0000000   0.3571429  -0.5000000), wk =   0.0087464
        k(   34) = (   0.0000000   0.4285714   0.4285714), wk =   0.0087464
        k(   35) = (   0.0000000   0.4285714  -0.5000000), wk =   0.0087464
        k(   36) = (   0.0000000  -0.5000000  -0.5000000), wk =   0.0021866
        k(   37) = (   0.0714286   0.0714286   0.0714286), wk =   0.0058309
        k(   38) = (   0.0714286   0.0714286   0.1428571), wk =   0.0174927
        k(   39) = (   0.0714286   0.0714286   0.2142857), wk =   0.0174927
        k(   40) = (   0.0714286   0.0714286   0.2857143), wk =   0.0174927
        k(   41) = (   0.0714286   0.0714286   0.3571429), wk =   0.0174927
        k(   42) = (   0.0714286   0.0714286   0.4285714), wk =   0.0174927
        k(   43) = (   0.0714286   0.0714286  -0.5000000), wk =   0.0087464
        k(   44) = (   0.0714286   0.1428571   0.1428571), wk =   0.0174927
        k(   45) = (   0.0714286   0.1428571   0.2142857), wk =   0.0349854
        k(   46) = (   0.0714286   0.1428571   0.2857143), wk =   0.0349854
        k(   47) = (   0.0714286   0.1428571   0.3571429), wk =   0.0349854
        k(   48) = (   0.0714286   0.1428571   0.4285714), wk =   0.0349854
        k(   49) = (   0.0714286   0.1428571  -0.5000000), wk =   0.0174927
        k(   50) = (   0.0714286   0.2142857   0.2142857), wk =   0.0174927
        k(   51) = (   0.0714286   0.2142857   0.2857143), wk =   0.0349854
        k(   52) = (   0.0714286   0.2142857   0.3571429), wk =   0.0349854
        k(   53) = (   0.0714286   0.2142857   0.4285714), wk =   0.0349854
        k(   54) = (   0.0714286   0.2142857  -0.5000000), wk =   0.0174927
        k(   55) = (   0.0714286   0.2857143   0.2857143), wk =   0.0174927
        k(   56) = (   0.0714286   0.2857143   0.3571429), wk =   0.0349854
        k(   57) = (   0.0714286   0.2857143   0.4285714), wk =   0.0349854
        k(   58) = (   0.0714286   0.2857143  -0.5000000), wk =   0.0174927
        k(   59) = (   0.0714286   0.3571429   0.3571429), wk =   0.0174927
        k(   60) = (   0.0714286   0.3571429   0.4285714), wk =   0.0349854
        k(   61) = (   0.0714286   0.3571429  -0.5000000), wk =   0.0174927
        k(   62) = (   0.0714286   0.4285714   0.4285714), wk =   0.0174927
        k(   63) = (   0.0714286   0.4285714  -0.5000000), wk =   0.0174927
        k(   64) = (   0.0714286  -0.5000000  -0.5000000), wk =   0.0043732
        k(   65) = (   0.1428571   0.1428571   0.1428571), wk =   0.0058309
        k(   66) = (   0.1428571   0.1428571   0.2142857), wk =   0.0174927
        k(   67) = (   0.1428571   0.1428571   0.2857143), wk =   0.0174927
        k(   68) = (   0.1428571   0.1428571   0.3571429), wk =   0.0174927
        k(   69) = (   0.1428571   0.1428571   0.4285714), wk =   0.0174927
        k(   70) = (   0.1428571   0.1428571  -0.5000000), wk =   0.0087464
        k(   71) = (   0.1428571   0.2142857   0.2142857), wk =   0.0174927
        k(   72) = (   0.1428571   0.2142857   0.2857143), wk =   0.0349854
        k(   73) = (   0.1428571   0.2142857   0.3571429), wk =   0.0349854
        k(   74) = (   0.1428571   0.2142857   0.4285714), wk =   0.0349854
        k(   75) = (   0.1428571   0.2142857  -0.5000000), wk =   0.0174927
        k(   76) = (   0.1428571   0.2857143   0.2857143), wk =   0.0174927
        k(   77) = (   0.1428571   0.2857143   0.3571429), wk =   0.0349854
        k(   78) = (   0.1428571   0.2857143   0.4285714), wk =   0.0349854
        k(   79) = (   0.1428571   0.2857143  -0.5000000), wk =   0.0174927
        k(   80) = (   0.1428571   0.3571429   0.3571429), wk =   0.0174927
        k(   81) = (   0.1428571   0.3571429   0.4285714), wk =   0.0349854
        k(   82) = (   0.1428571   0.3571429  -0.5000000), wk =   0.0174927
        k(   83) = (   0.1428571   0.4285714   0.4285714), wk =   0.0174927
        k(   84) = (   0.1428571   0.4285714  -0.5000000), wk =   0.0174927
        k(   85) = (   0.1428571  -0.5000000  -0.5000000), wk =   0.0043732
        k(   86) = (   0.2142857   0.2142857   0.2142857), wk =   0.0058309
        k(   87) = (   0.2142857   0.2142857   0.2857143), wk =   0.0174927
        k(   88) = (   0.2142857   0.2142857   0.3571429), wk =   0.0174927
        k(   89) = (   0.2142857   0.2142857   0.4285714), wk =   0.0174927
        k(   90) = (   0.2142857   0.2142857  -0.5000000), wk =   0.0087464
        k(   91) = (   0.2142857   0.2857143   0.2857143), wk =   0.0174927
        k(   92) = (   0.2142857   0.2857143   0.3571429), wk =   0.0349854
        k(   93) = (   0.2142857   0.2857143   0.4285714), wk =   0.0349854
        k(   94) = (   0.2142857   0.2857143  -0.5000000), wk =   0.0174927
        k(   95) = (   0.2142857   0.3571429   0.3571429), wk =   0.0174927
        k(   96) = (   0.2142857   0.3571429   0.4285714), wk =   0.0349854
        k(   97) = (   0.2142857   0.3571429  -0.5000000), wk =   0.0174927
        k(   98) = (   0.2142857   0.4285714   0.4285714), wk =   0.0174927
        k(   99) = (   0.2142857   0.4285714  -0.5000000), wk =   0.0174927
        k(  100) = (   0.2142857  -0.5000000  -0.5000000), wk =   0.0043732
        k(  101) = (   0.2857143   0.2857143   0.2857143), wk =   0.0058309
        k(  102) = (   0.2857143   0.2857143   0.3571429), wk =   0.0174927
        k(  103) = (   0.2857143   0.2857143   0.4285714), wk =   0.0174927
        k(  104) = (   0.2857143   0.2857143  -0.5000000), wk =   0.0087464
        k(  105) = (   0.2857143   0.3571429   0.3571429), wk =   0.0174927
        k(  106) = (   0.2857143   0.3571429   0.4285714), wk =   0.0349854
        k(  107) = (   0.2857143   0.3571429  -0.5000000), wk =   0.0174927
        k(  108) = (   0.2857143   0.4285714   0.4285714), wk =   0.0174927
        k(  109) = (   0.2857143   0.4285714  -0.5000000), wk =   0.0174927
        k(  110) = (   0.2857143  -0.5000000  -0.5000000), wk =   0.0043732
        k(  111) = (   0.3571429   0.3571429   0.3571429), wk =   0.0058309
        k(  112) = (   0.3571429   0.3571429   0.4285714), wk =   0.0174927
        k(  113) = (   0.3571429   0.3571429  -0.5000000), wk =   0.0087464
        k(  114) = (   0.3571429   0.4285714   0.4285714), wk =   0.0174927
        k(  115) = (   0.3571429   0.4285714  -0.5000000), wk =   0.0174927
        k(  116) = (   0.3571429  -0.5000000  -0.5000000), wk =   0.0043732
        k(  117) = (   0.4285714   0.4285714   0.4285714), wk =   0.0058309
        k(  118) = (   0.4285714   0.4285714  -0.5000000), wk =   0.0087464
        k(  119) = (   0.4285714  -0.5000000  -0.5000000), wk =   0.0043732
        k(  120) = (  -0.5000000  -0.5000000  -0.5000000), wk =   0.0007289

                       cryst. coord.
        k(    1) = (   0.0000000   0.0000000   0.0000000), wk =   0.0007289
        k(    2) = (   0.0000000   0.0000000   0.0714286), wk =   0.0043732
        k(    3) = (   0.0000000   0.0000000   0.1428571), wk =   0.0043732
        k(    4) = (   0.0000000   0.0000000   0.2142857), wk =   0.0043732
        k(    5) = (   0.0000000   0.0000000   0.2857143), wk =   0.0043732
        k(    6) = (   0.0000000   0.0000000   0.3571429), wk =   0.0043732
        k(    7) = (   0.0000000   0.0000000   0.4285714), wk =   0.0043732
        k(    8) = (   0.0000000   0.0000000  -0.5000000), wk =   0.0021866
        k(    9) = (   0.0000000   0.0714286   0.0714286), wk =   0.0087464
        k(   10) = (   0.0000000   0.0714286   0.1428571), wk =   0.0174927
        k(   11) = (   0.0000000   0.0714286   0.2142857), wk =   0.0174927
        k(   12) = (   0.0000000   0.0714286   0.2857143), wk =   0.0174927
        k(   13) = (   0.0000000   0.0714286   0.3571429), wk =   0.0174927
        k(   14) = (   0.0000000   0.0714286   0.4285714), wk =   0.0174927
        k(   15) = (   0.0000000   0.0714286  -0.5000000), wk =   0.0087464
        k(   16) = (   0.0000000   0.1428571   0.1428571), wk =   0.0087464
        k(   17) = (   0.0000000   0.1428571   0.2142857), wk =   0.0174927
        k(   18) = (   0.0000000   0.1428571   0.2857143), wk =   0.0174927
        k(   19) = (   0.0000000   0.1428571   0.3571429), wk =   0.0174927
        k(   20) = (   0.0000000   0.1428571   0.4285714), wk =   0.0174927
        k(   21) = (   0.0000000   0.1428571  -0.5000000), wk =   0.0087464
        k(   22) = (   0.0000000   0.2142857   0.2142857), wk =   0.0087464
        k(   23) = (   0.0000000   0.2142857   0.2857143), wk =   0.0174927
        k(   24) = (   0.0000000   0.2142857   0.3571429), wk =   0.0174927
        k(   25) = (   0.0000000   0.2142857   0.4285714), wk =   0.0174927
        k(   26) = (   0.0000000   0.2142857  -0.5000000), wk =   0.0087464
        k(   27) = (   0.0000000   0.2857143   0.2857143), wk =   0.0087464
        k(   28) = (   0.0000000   0.2857143   0.3571429), wk =   0.0174927
        k(   29) = (   0.0000000   0.2857143   0.4285714), wk =   0.0174927
        k(   30) = (   0.0000000   0.2857143  -0.5000000), wk =   0.0087464
        k(   31) = (   0.0000000   0.3571429   0.3571429), wk =   0.0087464
        k(   32) = (   0.0000000   0.3571429   0.4285714), wk =   0.0174927
        k(   33) = (   0.0000000   0.3571429  -0.5000000), wk =   0.0087464
        k(   34) = (   0.0000000   0.4285714   0.4285714), wk =   0.0087464
        k(   35) = (   0.0000000   0.4285714  -0.5000000), wk =   0.0087464
        k(   36) = (   0.0000000  -0.5000000  -0.5000000), wk =   0.0021866
        k(   37) = (   0.0714286   0.0714286   0.0714286), wk =   0.0058309
        k(   38) = (   0.0714286   0.0714286   0.1428571), wk =   0.0174927
        k(   39) = (   0.0714286   0.0714286   0.2142857), wk =   0.0174927
        k(   40) = (   0.0714286   0.0714286   0.2857143), wk =   0.0174927
        k(   41) = (   0.0714286   0.0714286   0.3571429), wk =   0.0174927
        k(   42) = (   0.0714286   0.0714286   0.4285714), wk =   0.0174927
        k(   43) = (   0.0714286   0.0714286  -0.5000000), wk =   0.0087464
        k(   44) = (   0.0714286   0.1428571   0.1428571), wk =   0.0174927
        k(   45) = (   0.0714286   0.1428571   0.2142857), wk =   0.0349854
        k(   46) = (   0.0714286   0.1428571   0.2857143), wk =   0.0349854
        k(   47) = (   0.0714286   0.1428571   0.3571429), wk =   0.0349854
        k(   48) = (   0.0714286   0.1428571   0.4285714), wk =   0.0349854
        k(   49) = (   0.0714286   0.1428571  -0.5000000), wk =   0.0174927
        k(   50) = (   0.0714286   0.2142857   0.2142857), wk =   0.0174927
        k(   51) = (   0.0714286   0.2142857   0.2857143), wk =   0.0349854
        k(   52) = (   0.0714286   0.2142857   0.3571429), wk =   0.0349854
        k(   53) = (   0.0714286   0.2142857   0.4285714), wk =   0.0349854
        k(   54) = (   0.0714286   0.2142857  -0.5000000), wk =   0.0174927
        k(   55) = (   0.0714286   0.2857143   0.2857143), wk =   0.0174927
        k(   56) = (   0.0714286   0.2857143   0.3571429), wk =   0.0349854
        k(   57) = (   0.0714286   0.2857143   0.4285714), wk =   0.0349854
        k(   58) = (   0.0714286   0.2857143  -0.5000000), wk =   0.0174927
        k(   59) = (   0.0714286   0.3571429   0.3571429), wk =   0.0174927
        k(   60) = (   0.0714286   0.3571429   0.4285714), wk =   0.0349854
        k(   61) = (   0.0714286   0.3571429  -0.5000000), wk =   0.0174927
        k(   62) = (   0.0714286   0.4285714   0.4285714), wk =   0.0174927
        k(   63) = (   0.0714286   0.4285714  -0.5000000), wk =   0.0174927
        k(   64) = (   0.0714286  -0.5000000  -0.5000000), wk =   0.0043732
        k(   65) = (   0.1428571   0.1428571   0.1428571), wk =   0.0058309
        k(   66) = (   0.1428571   0.1428571   0.2142857), wk =   0.0174927
        k(   67) = (   0.1428571   0.1428571   0.2857143), wk =   0.0174927
        k(   68) = (   0.1428571   0.1428571   0.3571429), wk =   0.0174927
        k(   69) = (   0.1428571   0.1428571   0.4285714), wk =   0.0174927
        k(   70) = (   0.1428571   0.1428571  -0.5000000), wk =   0.0087464
        k(   71) = (   0.1428571   0.2142857   0.2142857), wk =   0.0174927
        k(   72) = (   0.1428571   0.2142857   0.2857143), wk =   0.0349854
        k(   73) = (   0.1428571   0.2142857   0.3571429), wk =   0.0349854
        k(   74) = (   0.1428571   0.2142857   0.4285714), wk =   0.0349854
        k(   75) = (   0.1428571   0.2142857  -0.5000000), wk =   0.0174927
        k(   76) = (   0.1428571   0.2857143   0.2857143), wk =   0.0174927
        k(   77) = (   0.1428571   0.2857143   0.3571429), wk =   0.0349854
        k(   78) = (   0.1428571   0.2857143   0.4285714), wk =   0.0349854
        k(   79) = (   0.1428571   0.2857143  -0.5000000), wk =   0.0174927
        k(   80) = (   0.1428571   0.3571429   0.3571429), wk =   0.0174927
        k(   81) = (   0.1428571   0.3571429   0.4285714), wk =   0.0349854
        k(   82) = (   0.1428571   0.3571429  -0.5000000), wk =   0.0174927
        k(   83) = (   0.1428571   0.4285714   0.4285714), wk =   0.0174927
        k(   84) = (   0.1428571   0.4285714  -0.5000000), wk =   0.0174927
        k(   85) = (   0.1428571  -0.5000000  -0.5000000), wk =   0.0043732
        k(   86) = (   0.2142857   0.2142857   0.2142857), wk =   0.0058309
        k(   87) = (   0.2142857   0.2142857   0.2857143), wk =   0.0174927
        k(   88) = (   0.2142857   0.2142857   0.3571429), wk =   0.0174927
        k(   89) = (   0.2142857   0.2142857   0.4285714), wk =   0.0174927
        k(   90) = (   0.2142857   0.2142857  -0.5000000), wk =   0.0087464
        k(   91) = (   0.2142857   0.2857143   0.2857143), wk =   0.0174927
        k(   92) = (   0.2142857   0.2857143   0.3571429), wk =   0.0349854
        k(   93) = (   0.2142857   0.2857143   0.4285714), wk =   0.0349854
        k(   94) = (   0.2142857   0.2857143  -0.5000000), wk =   0.0174927
        k(   95) = (   0.2142857   0.3571429   0.3571429), wk =   0.0174927
        k(   96) = (   0.2142857   0.3571429   0.4285714), wk =   0.0349854
        k(   97) = (   0.2142857   0.3571429  -0.5000000), wk =   0.0174927
        k(   98) = (   0.2142857   0.4285714   0.4285714), wk =   0.0174927
        k(   99) = (   0.2142857   0.4285714  -0.5000000), wk =   0.0174927
        k(  100) = (   0.2142857  -0.5000000  -0.5000000), wk =   0.0043732
        k(  101) = (   0.2857143   0.2857143   0.2857143), wk =   0.0058309
        k(  102) = (   0.2857143   0.2857143   0.3571429), wk =   0.0174927
        k(  103) = (   0.2857143   0.2857143   0.4285714), wk =   0.0174927
        k(  104) = (   0.2857143   0.2857143  -0.5000000), wk =   0.0087464
        k(  105) = (   0.2857143   0.3571429   0.3571429), wk =   0.0174927
        k(  106) = (   0.2857143   0.3571429   0.4285714), wk =   0.0349854
        k(  107) = (   0.2857143   0.3571429  -0.5000000), wk =   0.0174927
        k(  108) = (   0.2857143   0.4285714   0.4285714), wk =   0.0174927
        k(  109) = (   0.2857143   0.4285714  -0.5000000), wk =   0.0174927
        k(  110) = (   0.2857143  -0.5000000  -0.5000000), wk =   0.0043732
        k(  111) = (   0.3571429   0.3571429   0.3571429), wk =   0.0058309
        k(  112) = (   0.3571429   0.3571429   0.4285714), wk =   0.0174927
        k(  113) = (   0.3571429   0.3571429  -0.5000000), wk =   0.0087464
        k(  114) = (   0.3571429   0.4285714   0.4285714), wk =   0.0174927
        k(  115) = (   0.3571429   0.4285714  -0.5000000), wk =   0.0174927
        k(  116) = (   0.3571429  -0.5000000  -0.5000000), wk =   0.0043732
        k(  117) = (   0.4285714   0.4285714   0.4285714), wk =   0.0058309
        k(  118) = (   0.4285714   0.4285714  -0.5000000), wk =   0.0087464
        k(  119) = (   0.4285714  -0.5000000  -0.5000000), wk =   0.0043732
        k(  120) = (  -0.5000000  -0.5000000  -0.5000000), wk =   0.0007289

     Dense  grid:    18613 G-vectors     FFT dimensions: (  36,  36,  36)

     Dynamical RAM for                 wfc:       0.04 MB

     Dynamical RAM for     wfc (w. buffer):       5.10 MB

     Dynamical RAM for           str. fact:       0.04 MB

     Dynamical RAM for           local pot:       0.00 MB

     Dynamical RAM for          nlocal pot:       0.13 MB

     Dynamical RAM for                qrad:       3.95 MB

     Dynamical RAM for          rho,v,vnew:       0.10 MB

     Dynamical RAM for               rhoin:       0.03 MB

     Dynamical RAM for            rho*nmix:       0.23 MB

     Dynamical RAM for           G-vectors:       0.06 MB

     Dynamical RAM for          h,s,v(r/c):       0.05 MB

     Dynamical RAM for          <psi|beta>:       0.03 MB

     Dynamical RAM for                 psi:       0.17 MB

     Dynamical RAM for                hpsi:       0.17 MB

     Dynamical RAM for                spsi:       0.17 MB

     Dynamical RAM for      wfcinit/wfcrot:       0.15 MB

     Dynamical RAM for           addusdens:       2.68 MB

     Estimated static dynamical RAM per process >       9.80 MB

     Estimated max dynamical RAM per process >      12.48 MB

     Estimated total dynamical RAM >     249.64 MB

     Check: negative/imaginary core charge=   -0.000005    0.000000

     Initial potential from superposition of free atoms
     Check: negative starting charge=   -0.062499

     starting charge   38.96630, renormalised to   40.00000

     negative rho (up, down):  6.416E-02 0.000E+00
     Starting wfcs are   35 randomized atomic wfcs

     total cpu time spent up to now is        1.2 secs

     Self-consistent Calculation

     iteration #  1     ecut=    50.00 Ry     beta= 0.70
     Davidson diagonalization with overlap
     ethr =  1.00E-02,  avg # of iterations =  2.0

     negative rho (up, down):  6.299E-02 0.000E+00

     total cpu time spent up to now is        3.3 secs

     total energy              =    -286.53102654 Ry
     Harris-Foulkes estimate   =    -287.28057359 Ry
     estimated scf accuracy    <       0.95405531 Ry

     iteration #  2     ecut=    50.00 Ry     beta= 0.70
     Davidson diagonalization with overlap
     ethr =  2.39E-03,  avg # of iterations =  3.3

     negative rho (up, down):  6.305E-02 0.000E+00

     total cpu time spent up to now is        7.1 secs

     total energy              =    -285.52953689 Ry
     Harris-Foulkes estimate   =    -287.81455049 Ry
     estimated scf accuracy    <       8.45517571 Ry

     iteration #  3     ecut=    50.00 Ry     beta= 0.70
     Davidson diagonalization with overlap
     ethr =  2.39E-03,  avg # of iterations =  3.7

     negative rho (up, down):  6.446E-02 0.000E+00

     total cpu time spent up to now is       10.9 secs

     total energy              =    -286.99629315 Ry
     Harris-Foulkes estimate   =    -287.09427073 Ry
     estimated scf accuracy    <       0.28293635 Ry

     iteration #  4     ecut=    50.00 Ry     beta= 0.70
     Davidson diagonalization with overlap
     ethr =  7.07E-04,  avg # of iterations =  2.5

     negative rho (up, down):  6.517E-02 0.000E+00

     total cpu time spent up to now is       13.5 secs

     total energy              =    -286.99637431 Ry
     Harris-Foulkes estimate   =    -287.01999080 Ry
     estimated scf accuracy    <       0.08251908 Ry

     iteration #  5     ecut=    50.00 Ry     beta= 0.70
     Davidson diagonalization with overlap
     ethr =  2.06E-04,  avg # of iterations =  3.5

     negative rho (up, down):  6.521E-02 0.000E+00

     total cpu time spent up to now is       16.6 secs

     total energy              =    -287.00435085 Ry
     Harris-Foulkes estimate   =    -287.00607273 Ry
     estimated scf accuracy    <       0.00469935 Ry

     iteration #  6     ecut=    50.00 Ry     beta= 0.70
     Davidson diagonalization with overlap
     ethr =  1.17E-05,  avg # of iterations =  3.9

     negative rho (up, down):  6.522E-02 0.000E+00

     total cpu time spent up to now is       20.1 secs

     total energy              =    -287.00521083 Ry
     Harris-Foulkes estimate   =    -287.00521611 Ry
     estimated scf accuracy    <       0.00003318 Ry

     iteration #  7     ecut=    50.00 Ry     beta= 0.70
     Davidson diagonalization with overlap
     ethr =  8.29E-08,  avg # of iterations =  3.1

     negative rho (up, down):  6.523E-02 0.000E+00

     total cpu time spent up to now is       23.5 secs

     total energy              =    -287.00522330 Ry
     Harris-Foulkes estimate   =    -287.00522342 Ry
     estimated scf accuracy    <       0.00000150 Ry

     iteration #  8     ecut=    50.00 Ry     beta= 0.70
     Davidson diagonalization with overlap
     ethr =  3.75E-09,  avg # of iterations =  2.2

     negative rho (up, down):  6.523E-02 0.000E+00

     total cpu time spent up to now is       25.9 secs

     total energy              =    -287.00522349 Ry
     Harris-Foulkes estimate   =    -287.00522352 Ry
     estimated scf accuracy    <       0.00000005 Ry

     iteration #  9     ecut=    50.00 Ry     beta= 0.70
     Davidson diagonalization with overlap
     ethr =  1.19E-10,  avg # of iterations =  3.0

     negative rho (up, down):  6.523E-02 0.000E+00

     total cpu time spent up to now is       29.3 secs

     End of self-consistent calculation

          k = 0.0000 0.0000 0.0000 (  2325 PWs)   bands (ev):

   -45.6615 -22.0176 -21.9558 -21.9558 -21.9558  -6.9266  -5.9097  -5.9097
    -4.0260  -4.0260  -4.0260   7.7509   7.7509   7.7509   9.3524   9.3524
     9.3524  10.2652  10.2652  10.2652  12.5472  12.5472  12.5472  15.2122

     occupation numbers 
     1.0000   1.0000   1.0000   1.0000   1.0000   1.0000   1.0000   1.0000
     1.0000   1.0000   1.0000   1.0000   1.0000   1.0000   1.0000   1.0000
     1.0000   1.0000   1.0000   1.0000   0.0000   0.0000   0.0000   0.0000

          k = 0.0000 0.0000 0.0714 (  2321 PWs)   bands (ev):

   -45.6614 -22.0291 -21.9556 -21.9556 -21.9469  -6.9272  -5.9129  -5.9076
    -4.0233  -4.0233  -3.9864   7.6791   7.7454   7.7454   9.2796   9.2796
     9.3022  10.0865  10.2258  10.2258  12.5559  12.6789  12.6789  15.2156

     occupation numbers 
     1.0000   1.0000   1.0000   1.0000   1.0000   1.0000   1.0000   1.0000
     1.0000   1.0000   1.0000   1.0000   1.0000   1.0000   1.0000   1.0000
     1.0000   1.0000   1.0000   1.0000   0.0000   0.0000   0.0000   0.0000

          k = 0.0000 0.0000 0.1429 (  2321 PWs)   bands (ev):

   -45.6612 -22.0535 -21.9551 -21.9551 -21.9300  -6.9391  -5.9040  -5.9014
    -4.0157  -4.0157  -3.8817   7.4749   7.7305   7.7305   9.0851   9.0851
     9.1674   9.6502  10.1408  10.1408  12.5802  13.0147  13.0147  15.2224

     occupation numbers 
     1.0000   1.0000   1.0000   1.0000   1.0000   1.0000   1.0000   1.0000
     1.0000   1.0000   1.0000   1.0000   1.0000   1.0000   1.0000   1.0000
     1.0000   1.0000   1.0000   1.0000   0.0000   0.0000   0.0000   0.0000

          k = 0.0000 0.0000 0.2143 (  2300 PWs)   bands (ev):

   -45.6610 -22.0812 -21.9543 -21.9543 -21.9129  -6.9780  -5.8926  -5.8522
    -4.0047  -4.0047  -3.7438   7.1703   7.7106   7.7106   8.8286   8.8286
     8.9853   9.1362  10.0529  10.0529  12.6161  13.4463  13.4463  15.2289

     occupation numbers 
     1.0000   1.0000   1.0000   1.0000   1.0000   1.0000   1.0000   1.0000
     1.0000   1.0000   1.0000   1.0000   1.0000   1.0000   1.0000   1.0000
     1.0000   1.0000   1.0000   1.0000   0.0000   0.0000   0.0000   0.0000

          k = 0.0000 0.0000 0.2857 (  2312 PWs)   bands (ev):

   -45.6607 -22.1076 -21.9534 -21.9534 -21.8982  -7.0421  -5.8827  -5.7537
    -3.9925  -3.9925  -3.6050   6.8166   7.6922   7.6922   8.5703   8.5703
     8.6747   8.7978   9.9778   9.9778  12.6568  13.8832  13.8832  15.2337

     occupation numbers 
     1.0000   1.0000   1.0000   1.0000   1.0000   1.0000   1.0000   1.0000
     1.0000   1.0000   1.0000   1.0000   1.0000   1.0000   1.0000   1.0000
     1.0000   1.0000   1.0000   1.0000   0.0000   0.0000   0.0000   0.0000

          k = 0.0000 0.0000 0.3571 (  2316 PWs)   bands (ev):

   -45.6604 -22.1294 -21.9527 -21.9527 -21.8869  -7.1104  -5.8737  -5.6385
    -3.9813  -3.9813  -3.4903   6.4841   7.6820   7.6820   8.3288   8.3526
     8.3526   8.6400   9.9210   9.9210  12.6943  14.2550  14.2550  15.2371

     occupation numbers 
     1.0000   1.0000   1.0000   1.0000   1.0000   1.0000   1.0000   1.0000
     1.0000   1.0000   1.0000   1.0000   1.0000   1.0000   1.0000   1.0000
     1.0000   1.0000   1.0000   1.0000   0.0000   0.0000   0.0000   0.0000

          k = 0.0000 0.0000 0.4286 (  2308 PWs)   bands (ev):

   -45.6602 -22.1436 -21.9522 -21.9522 -21.8798  -7.1608  -5.8675  -5.5472
    -3.9736  -3.9736  -3.4159   6.2475   7.6818   7.6818   8.1191   8.2045
     8.2045   8.5360   9.8857   9.8857  12.7208  14.5049  14.5049  15.2392

     occupation numbers 
     1.0000   1.0000   1.0000   1.0000   1.0000   1.0000   1.0000   1.0000
     1.0000   1.0000   1.0000   1.0000   1.0000   1.0000   1.0000   1.0000
     1.0000   1.0000   1.0000   1.0000   0.0000   0.0000   0.0000   0.0000

          k = 0.0000 0.0000-0.5000 (  2360 PWs)   bands (ev):

   -45.6602 -22.1486 -21.9520 -21.9520 -21.8773  -7.1791  -5.8653  -5.5126
    -3.9708  -3.9708  -3.3903   6.1619   7.6840   7.6840   8.0490   8.1508
     8.1508   8.4997   9.8737   9.8737  12.7303  14.5930  14.5930  15.2398

     occupation numbers 
     1.0000   1.0000   1.0000   1.0000   1.0000   1.0000   1.0000   1.0000
     1.0000   1.0000   1.0000   1.0000   1.0000   1.0000   1.0000   1.0000
     1.0000   1.0000   1.0000   1.0000   0.0000   0.0000   0.0000   0.0000

          k = 0.0000 0.0714 0.0714 (  2323 PWs)   bands (ev):

   -45.6613 -22.0368 -21.9597 -21.9554 -21.9375  -6.9258  -5.9159  -5.9066
    -4.0206  -4.0040  -3.9655   7.6213   7.7260   7.7400   9.1146   9.2123
     9.3555  10.0037  10.1109  10.1818  12.6663  12.7068  12.7880  15.3041

     occupation numbers 
     1.0000   1.0000   1.0000   1.0000   1.0000   1.0000   1.0000   1.0000
     1.0000   1.0000   1.0000   1.0000   1.0000   1.0000   1.0000   1.0000
     1.0000   1.0000   1.0000   1.0000   0.0000   0.0000   0.0000   0.0000

          k = 0.0000 0.0714 0.1429 (  2310 PWs)   bands (ev):

   -45.6612 -22.0562 -21.9618 -21.9549 -21.9231  -6.9314  -5.9146  -5.8965
    -4.0129  -3.9902  -3.8724   7.4327   7.6951   7.7254   8.8579   9.0301
     9.3007   9.6329  10.0106  10.0870  12.7047  13.0240  13.0813  15.3429

     occupation numbers 
     1.0000   1.0000   1.0000   1.0000   1.0000   1.0000   1.0000   1.0000
     1.0000   1.0000   1.0000   1.0000   1.0000   1.0000   1.0000   1.0000
     1.0000   1.0000   1.0000   1.0000   0.0000   0.0000   0.0000   0.0000

          k = 0.0000 0.0714 0.2143 (  2312 PWs)   bands (ev):

   -45.6609 -22.0808 -21.9612 -21.9541 -21.9091  -6.9621  -5.8952  -5.8603
    -4.0018  -3.9792  -3.7416   7.1427   7.6567   7.7059   8.5570   8.7850
     9.0834   9.2681   9.9239   9.9898  12.7386  13.4523  13.4788  15.3544

     occupation numbers 
     1.0000   1.0000   1.0000   1.0000   1.0000   1.0000   1.0000   1.0000
     1.0000   1.0000   1.0000   1.0000   1.0000   1.0000   1.0000   1.0000
     1.0000   1.0000   1.0000   1.0000   0.0000   0.0000   0.0000   0.0000

          k = 0.0000 0.0714 0.2857 (  2310 PWs)   bands (ev):

   -45.6606 -22.1055 -21.9595 -21.9533 -21.8970  -7.0190  -5.8800  -5.7719
    -3.9894  -3.9675  -3.6093   6.8015   7.6155   7.6879   8.2422   8.5346
     8.7455   9.0782   9.8480   9.9085  12.7765  13.8867  13.8961  15.3604

     occupation numbers 
     1.0000   1.0000   1.0000   1.0000   1.0000   1.0000   1.0000   1.0000
     1.0000   1.0000   1.0000   1.0000   1.0000   1.0000   1.0000   1.0000
     1.0000   1.0000   1.0000   1.0000   0.0000   0.0000   0.0000   0.0000

          k = 0.0000 0.0714 0.3571 (  2318 PWs)   bands (ev):

   -45.6603 -22.1262 -21.9578 -21.9525 -21.8877  -7.0825  -5.8679  -5.6631
    -3.9781  -3.9569  -3.5000   6.4768   7.5837   7.6782   7.9596   8.3214
     8.5047   8.9335   9.7894   9.8481  12.8115  14.2567  14.2594  15.3636

     occupation numbers 
     1.0000   1.0000   1.0000   1.0000   1.0000   1.0000   1.0000   1.0000
     1.0000   1.0000   1.0000   1.0000   1.0000   1.0000   1.0000   1.0000
     1.0000   1.0000   1.0000   1.0000   0.0000   0.0000   0.0000   0.0000

          k = 0.0000 0.0714 0.4286 (  2318 PWs)   bands (ev):

   -45.6602 -22.1400 -21.9566 -21.9520 -21.8819  -7.1302  -5.8597  -5.5759
    -3.9703  -3.9492  -3.4291   6.2435   7.5792   7.6788   7.7541   8.1753
     8.3690   8.8376   9.7523   9.8109  12.8362  14.5055  14.5070  15.3647

     occupation numbers 
     1.0000   1.0000   1.0000   1.0000   1.0000   1.0000   1.0000   1.0000
     1.0000   1.0000   1.0000   1.0000   1.0000   1.0000   1.0000   1.0000
     1.0000   1.0000   1.0000   1.0000   0.0000   0.0000   0.0000   0.0000

          k = 0.0000 0.0714-0.5000 (  2320 PWs)   bands (ev):

   -45.6601 -22.1449 -21.9562 -21.9518 -21.8799  -7.1477  -5.8568  -5.5427
    -3.9675  -3.9464  -3.4047   6.1588   7.6072   7.6531   7.6816   8.1220
     8.3251   8.8042   9.7397   9.7984  12.8451  14.5933  14.5951  15.3649

     occupation numbers 
     1.0000   1.0000   1.0000   1.0000   1.0000   1.0000   1.0000   1.0000
     1.0000   1.0000   1.0000   1.0000   1.0000   1.0000   1.0000   1.0000
     1.0000   1.0000   1.0000   1.0000   0.0000   0.0000   0.0000   0.0000

          k = 0.0000 0.1429 0.1429 (  2307 PWs)   bands (ev):

   -45.6610 -22.0652 -21.9708 -21.9543 -21.9122  -6.9187  -5.9323  -5.8791
    -4.0050  -3.9426  -3.8276   7.2921   7.6151   7.7116   8.5405   8.8770
     9.3625   9.4628   9.8134   9.9676  12.9794  13.0943  13.2820  15.5223

     occupation numbers 
     1.0000   1.0000   1.0000   1.0000   1.0000   1.0000   1.0000   1.0000
     1.0000   1.0000   1.0000   1.0000   1.0000   1.0000   1.0000   1.0000
     1.0000   1.0000   1.0000   1.0000   0.0000   0.0000   0.0000   0.0000

          k = 0.0000 0.1429 0.2143 (  2313 PWs)   bands (ev):

   -45.6607 -22.0808 -21.9750 -21.9536 -21.9027  -6.9235  -5.9262  -5.8479
    -3.9936  -3.9165  -3.7310   7.0518   7.5209   7.6929   8.1980   8.6622
     9.0915   9.3813   9.7191   9.8443  13.0508  13.4720  13.5934  15.5991

     occupation numbers 
     1.0000   1.0000   1.0000   1.0000   1.0000   1.0000   1.0000   1.0000
     1.0000   1.0000   1.0000   1.0000   1.0000   1.0000   1.0000   1.0000
     1.0000   1.0000   1.0000   1.0000   0.0000   0.0000   0.0000   0.0000

          k = 0.0000 0.1429 0.2857 (  2307 PWs)   bands (ev):

   -45.6604 -22.0997 -21.9744 -21.9528 -21.8957  -6.9562  -5.8935  -5.7948
    -3.9807  -3.9027  -3.6201   6.7519   7.4088   7.6759   7.8797   8.4342
     8.7894   9.3522   9.6276   9.7436  13.0857  13.8971  13.9547  15.6283

     occupation numbers 
     1.0000   1.0000   1.0000   1.0000   1.0000   1.0000   1.0000   1.0000
     1.0000   1.0000   1.0000   1.0000   1.0000   1.0000   1.0000   1.0000
     1.0000   1.0000   1.0000   1.0000   0.0000   0.0000   0.0000   0.0000

          k = 0.0000 0.1429 0.3571 (  2310 PWs)   bands (ev):

   -45.6602 -22.1173 -21.9716 -21.9520 -21.8910  -7.0033  -5.8617  -5.7183
    -3.9691  -3.8924  -3.5260   6.4536   7.2721   7.6641   7.6674   8.2345
     8.5883   9.3191   9.5365   9.6710  13.1156  14.2617  14.2897  15.6406

     occupation numbers 
     1.0000   1.0000   1.0000   1.0000   1.0000   1.0000   1.0000   1.0000
     1.0000   1.0000   1.0000   1.0000   1.0000   1.0000   1.0000   1.0000
     1.0000   1.0000   1.0000   1.0000   0.0000   0.0000   0.0000   0.0000

          k = 0.0000 0.1429 0.4286 (  2308 PWs)   bands (ev):

   -45.6600 -22.1295 -21.9689 -21.9515 -21.8884  -7.0422  -5.8424  -5.6496
    -3.9611  -3.8850  -3.4645   6.2321   7.1518   7.5626   7.6698   8.0943
     8.4738   9.2987   9.4670   9.6274  13.1365  14.5075  14.5267  15.6451

     occupation numbers 
     1.0000   1.0000   1.0000   1.0000   1.0000   1.0000   1.0000   1.0000
     1.0000   1.0000   1.0000   1.0000   1.0000   1.0000   1.0000   1.0000
     1.0000   1.0000   1.0000   1.0000   0.0000   0.0000   0.0000   0.0000

          k = 0.0000 0.1429-0.5000 (  2320 PWs)   bands (ev):

   -45.6599 -22.1338 -21.9678 -21.9513 -21.8875  -7.0569  -5.8359  -5.6225
    -3.9582  -3.8822  -3.4433   6.1503   7.1054   7.5342   7.6739   8.0422
     8.4362   9.2934   9.4399   9.6129  13.1440  14.5943  14.6124  15.6460

     occupation numbers 
     1.0000   1.0000   1.0000   1.0000   1.0000   1.0000   1.0000   1.0000
     1.0000   1.0000   1.0000   1.0000   1.0000   1.0000   1.0000   1.0000
     1.0000   1.0000   1.0000   1.0000   0.0000   0.0000   0.0000   0.0000

          k = 0.0000 0.2143 0.2143 (  2316 PWs)   bands (ev):

   -45.6604 -22.0839 -21.9868 -21.9528 -21.8984  -6.8858  -5.9539  -5.8163
    -3.9816  -3.8541  -3.6964   6.8822   7.3597   7.6752   7.8241   8.4843
     8.9819   9.2690   9.6874   9.7425  13.4002  13.5563  13.8054  15.7719

     occupation numbers 
     1.0000   1.0000   1.0000   1.0000   1.0000   1.0000   1.0000   1.0000
     1.0000   1.0000   1.0000   1.0000   1.0000   1.0000   1.0000   1.0000
     1.0000   1.0000   1.0000   1.0000   0.0000   0.0000   0.0000   0.0000

          k = 0.0000 0.2143 0.2857 (  2312 PWs)   bands (ev):

   -45.6602 -22.0924 -21.9916 -21.9520 -21.8969  -6.8729  -5.9426  -5.7799
    -3.9682  -3.8219  -3.6297   6.6496   7.1698   7.5014   7.6589   8.2879
     8.7943   9.2230   9.5572   9.7745  13.4854  13.9158  14.0877  15.8564

     occupation numbers 
     1.0000   1.0000   1.0000   1.0000   1.0000   1.0000   1.0000   1.0000
     1.0000   1.0000   1.0000   1.0000   1.0000   1.0000   1.0000   1.0000
     1.0000   1.0000   1.0000   1.0000   0.0000   0.0000   0.0000   0.0000

          k = 0.0000 0.2143 0.3571 (  2301 PWs)   bands (ev):

   -45.6599 -22.1037 -21.9900 -21.9513 -21.8976  -6.8864  -5.8949  -5.7490
    -3.9561  -3.8082  -3.5595   6.4054   6.9130   7.3481   7.6510   8.1096
     8.6656   9.1968   9.4642   9.7663  13.5134  14.2698  14.3747  15.8958

     occupation numbers 
     1.0000   1.0000   1.0000   1.0000   1.0000   1.0000   1.0000   1.0000
     1.0000   1.0000   1.0000   1.0000   1.0000   1.0000   1.0000   1.0000
     1.0000   1.0000   1.0000   1.0000   0.0000   0.0000   0.0000   0.0000

          k = 0.0000 0.2143 0.4286 (  2313 PWs)   bands (ev):

   -45.6597 -22.1130 -21.9864 -21.9508 -21.8992  -6.9071  -5.8410  -5.7320
    -3.9476  -3.8006  -3.5106   6.2122   6.7197   7.2927   7.6551   7.9799
     8.5972   9.1777   9.4091   9.7452  13.5305  14.5108  14.5889  15.9128

     occupation numbers 
     1.0000   1.0000   1.0000   1.0000   1.0000   1.0000   1.0000   1.0000
     1.0000   1.0000   1.0000   1.0000   1.0000   1.0000   1.0000   1.0000
     1.0000   1.0000   1.0000   1.0000   0.0000   0.0000   0.0000   0.0000

          k = 0.0000 0.2143-0.5000 (  2316 PWs)   bands (ev):

   -45.6596 -22.1165 -21.9847 -21.9506 -21.8999  -6.9163  -5.8164  -5.7286
    -3.9446  -3.7979  -3.4933   6.1378   6.6538   7.2778   7.6611   7.9298
     8.5758   9.1705   9.3909   9.7352  13.5364  14.5962  14.6682  15.9175

     occupation numbers 
     1.0000   1.0000   1.0000   1.0000   1.0000   1.0000   1.0000   1.0000
     1.0000   1.0000   1.0000   1.0000   1.0000   1.0000   1.0000   1.0000
     1.0000   1.0000   1.0000   1.0000   0.0000   0.0000   0.0000   0.0000

          k = 0.0000 0.2857 0.2857 (  2300 PWs)   bands (ev):

   -45.6599 -22.0873 -22.0046 -21.9512 -21.9012  -6.7978  -5.9754  -5.7564
    -3.9542  -3.7557  -3.6225   6.4808   6.9913   7.0952   7.6421   8.1237
     8.7506   9.1220   9.3965   9.9404  13.8454  13.9856  14.2925  15.9899

     occupation numbers 
     1.0000   1.0000   1.0000   1.0000   1.0000   1.0000   1.0000   1.0000
     1.0000   1.0000   1.0000   1.0000   1.0000   1.0000   1.0000   1.0000
     1.0000   1.0000   1.0000   1.0000   0.0000   0.0000   0.0000   0.0000

          k = 0.0000 0.2857 0.3571 (  2299 PWs)   bands (ev):

   -45.6596 -22.0881 -22.0083 -21.9505 -21.9077  -6.7545  -5.9584  -5.7496
    -3.9415  -3.7255  -3.5881   6.2976   6.6584   6.9514   7.6328   7.9709
     8.7219   9.0784   9.2797  10.0324  13.9195  14.2809  14.5223  16.0588

     occupation numbers 
     1.0000   1.0000   1.0000   1.0000   1.0000   1.0000   1.0000   1.0000
     1.0000   1.0000   1.0000   1.0000   1.0000   1.0000   1.0000   1.0000
     1.0000   1.0000   1.0000   1.0000   0.0000   0.0000   0.0000   0.0000

          k = 0.0000 0.2857 0.4286 (  2319 PWs)   bands (ev):

   -45.6594 -22.0922 -22.0054 -21.9499 -21.9139  -6.7414  -5.8991  -5.7726
    -3.9326  -3.7158  -3.5524   6.1668   6.3790   6.9162   7.6366   7.8558
     8.7226   9.0461   9.2102  10.0724  13.9352  14.5150  14.7044  16.0909

     occupation numbers 
     1.0000   1.0000   1.0000   1.0000   1.0000   1.0000   1.0000   1.0000
     1.0000   1.0000   1.0000   1.0000   1.0000   1.0000   1.0000   1.0000
     1.0000   1.0000   1.0000   1.0000   0.0000   0.0000   0.0000   0.0000

          k = 0.0000 0.2857-0.5000 (  2312 PWs)   bands (ev):

   -45.6594 -22.0943 -22.0032 -21.9498 -21.9166  -6.7402  -5.8368  -5.8181
    -3.9294  -3.7131  -3.5386   6.1203   6.2785   6.9068   7.6441   7.8088
     8.7280   9.0317   9.1873  10.0829  13.9399  14.5987  14.7738  16.1002

     occupation numbers 
     1.0000   1.0000   1.0000   1.0000   1.0000   1.0000   1.0000   1.0000
     1.0000   1.0000   1.0000   1.0000   1.0000   1.0000   1.0000   1.0000
     1.0000   1.0000   1.0000   1.0000   0.0000   0.0000   0.0000   0.0000

          k = 0.0000 0.3571 0.3571 (  2312 PWs)   bands (ev):

   -45.6593 -22.0749 -22.0205 -21.9497 -21.9199  -6.6387  -5.9929  -5.7652
    -3.9282  -3.6660  -3.5967   6.1354   6.4792   6.6262   7.6194   7.8427
     8.7746   9.0377   9.1420  10.2038  14.2378  14.3215  14.7016  16.1472

     occupation numbers 
     1.0000   1.0000   1.0000   1.0000   1.0000   1.0000   1.0000   1.0000
     1.0000   1.0000   1.0000   1.0000   1.0000   1.0000   1.0000   1.0000
     1.0000   1.0000   1.0000   1.0000   0.0000   0.0000   0.0000   0.0000

          k = 0.0000 0.3571 0.4286 (  2309 PWs)   bands (ev):

   -45.6592 -22.0699 -22.0220 -21.9492 -21.9313  -6.5682  -5.9708  -5.8114
    -3.9190  -3.6456  -3.5786   6.0212   6.2119   6.5576   7.6186   7.7453
     8.8322   9.0098   9.0590  10.2938  14.2825  14.5194  14.8512  16.1897

     occupation numbers 
     1.0000   1.0000   1.0000   1.0000   1.0000   1.0000   1.0000   1.0000
     1.0000   1.0000   1.0000   1.0000   1.0000   1.0000   1.0000   1.0000
     1.0000   1.0000   1.0000   1.0000   0.0000   0.0000   0.0000   0.0000

          k = 0.0000 0.3571-0.5000 (  2306 PWs)   bands (ev):

   -45.6591 -22.0697 -22.0198 -21.9490 -21.9364  -6.5472  -5.9275  -5.8592
    -3.9157  -3.6425  -3.5671   5.9976   6.0887   6.5461   7.6258   7.7029
     8.8644   8.9908   9.0315  10.3212  14.2866  14.6013  14.9096  16.2022

     occupation numbers 
     1.0000   1.0000   1.0000   1.0000   1.0000   1.0000   1.0000   1.0000
     1.0000   1.0000   1.0000   1.0000   1.0000   1.0000   1.0000   1.0000
     1.0000   1.0000   1.0000   1.0000   0.0000   0.0000   0.0000   0.0000

          k = 0.0000 0.4286 0.4286 (  2310 PWs)   bands (ev):

   -45.6590 -22.0516 -22.0315 -21.9487 -21.9480  -6.4235  -6.0042  -5.8801
    -3.9095  -3.6030  -3.5856   5.8747   6.0939   6.3680   7.6086   7.6660
     8.9159   8.9666   9.0015  10.4166  14.5076  14.5324  14.9772  16.2374

     occupation numbers 
     1.0000   1.0000   1.0000   1.0000   1.0000   1.0000   1.0000   1.0000
     1.0000   1.0000   1.0000   1.0000   1.0000   1.0000   1.0000   1.0000
     1.0000   1.0000   1.0000   1.0000   0.0000   0.0000   0.0000   0.0000

          k = 0.0000 0.4286-0.5000 (  2316 PWs)   bands (ev):

   -45.6589 -22.0467 -22.0313 -21.9560 -21.9485  -6.3636  -5.9873  -5.9420
    -3.9061  -3.5963  -3.5782   5.8238   6.0231   6.3300   7.6114   7.6311
     8.9358   8.9585   8.9891  10.4553  14.5210  14.6032  15.0270  16.2514

     occupation numbers 
     1.0000   1.0000   1.0000   1.0000   1.0000   1.0000   1.0000   1.0000
     1.0000   1.0000   1.0000   1.0000   1.0000   1.0000   1.0000   1.0000
     1.0000   1.0000   1.0000   1.0000   0.0000   0.0000   0.0000   0.0000

          k = 0.0000-0.5000-0.5000 (  2296 PWs)   bands (ev):

   -45.6588 -22.0354 -22.0354 -21.9660 -21.9484  -6.2626  -6.0081  -6.0081
    -3.9027  -3.5802  -3.5802   5.7649   5.9759   6.2757   7.6059   7.6059
     8.9038   8.9920   8.9920  10.4980  14.6040  14.6040  15.0737  16.2658

     occupation numbers 
     1.0000   1.0000   1.0000   1.0000   1.0000   1.0000   1.0000   1.0000
     1.0000   1.0000   1.0000   1.0000   1.0000   1.0000   1.0000   1.0000
     1.0000   1.0000   1.0000   1.0000   0.0000   0.0000   0.0000   0.0000

          k = 0.0714 0.0714 0.0714 (  2325 PWs)   bands (ev):

   -45.6613 -22.0426 -21.9596 -21.9596 -21.9302  -6.9223  -5.9126  -5.9126
    -4.0032  -4.0032  -3.9429   7.5625   7.7214   7.7214   9.0567   9.0567
     9.4073   9.9053  10.0815  10.0815  12.7616  12.8125  12.8125  15.4821

     occupation numbers 
     1.0000   1.0000   1.0000   1.0000   1.0000   1.0000   1.0000   1.0000
     1.0000   1.0000   1.0000   1.0000   1.0000   1.0000   1.0000   1.0000
     1.0000   1.0000   1.0000   1.0000   0.0000   0.0000   0.0000   0.0000

          k = 0.0714 0.0714 0.1429 (  2315 PWs)   bands (ev):

   -45.6611 -22.0584 -21.9631 -21.9590 -21.9178  -6.9224  -5.9129  -5.9033
    -4.0011  -3.9807  -3.8589   7.3851   7.6777   7.7088   8.7895   8.8805
     9.3936   9.5804   9.9421  10.0082  12.8105  13.0846  13.0977  15.4886

     occupation numbers 
     1.0000   1.0000   1.0000   1.0000   1.0000   1.0000   1.0000   1.0000
     1.0000   1.0000   1.0000   1.0000   1.0000   1.0000   1.0000   1.0000
     1.0000   1.0000   1.0000   1.0000   0.0000   0.0000   0.0000   0.0000

          k = 0.0714 0.0714 0.2143 (  2319 PWs)   bands (ev):

   -45.6608 -22.0803 -21.9632 -21.9582 -21.9060  -6.9456  -5.8898  -5.8748
    -3.9980  -3.9605  -3.7370   7.1115   7.6178   7.6920   8.5056   8.5860
     9.2153   9.2932   9.8280   9.9223  12.8445  13.4843  13.4878  15.4940

     occupation numbers 
     1.0000   1.0000   1.0000   1.0000   1.0000   1.0000   1.0000   1.0000
     1.0000   1.0000   1.0000   1.0000   1.0000   1.0000   1.0000   1.0000
     1.0000   1.0000   1.0000   1.0000   0.0000   0.0000   0.0000   0.0000

          k = 0.0714 0.0714 0.2857 (  2314 PWs)   bands (ev):

   -45.6605 -22.1033 -21.9611 -21.9574 -21.8961  -6.9957  -5.8746  -5.7899
    -3.9947  -3.9399  -3.6125   6.7850   7.5514   7.6771   8.2288   8.2466
     8.9565   9.1492   9.7335   9.8458  12.8817  13.9011  13.9013  15.4972

     occupation numbers 
     1.0000   1.0000   1.0000   1.0000   1.0000   1.0000   1.0000   1.0000
     1.0000   1.0000   1.0000   1.0000   1.0000   1.0000   1.0000   1.0000
     1.0000   1.0000   1.0000   1.0000   0.0000   0.0000   0.0000   0.0000

          k = 0.0714 0.0714 0.3571 (  2322 PWs)   bands (ev):

   -45.6603 -22.1232 -21.9586 -21.9566 -21.8886  -7.0545  -5.8608  -5.6851
    -3.9919  -3.9211  -3.5095   6.4692   7.4976   7.6719   7.9148   8.0366
     8.7959   9.0098   9.6613   9.7877  12.9157  14.2621  14.2634  15.4983

     occupation numbers 
     1.0000   1.0000   1.0000   1.0000   1.0000   1.0000   1.0000   1.0000
     1.0000   1.0000   1.0000   1.0000   1.0000   1.0000   1.0000   1.0000
     1.0000   1.0000   1.0000   1.0000   0.0000   0.0000   0.0000   0.0000

          k = 0.0714 0.0714 0.4286 (  2316 PWs)   bands (ev):

   -45.6601 -22.1365 -21.9567 -21.9561 -21.8839  -7.0996  -5.8512  -5.6005
    -3.9900  -3.9077  -3.4427   6.2397   7.4777   7.6830   7.6968   7.8893
     8.7070   8.9118   9.6158   9.7515  12.9395  14.5070  14.5115  15.4977

     occupation numbers 
     1.0000   1.0000   1.0000   1.0000   1.0000   1.0000   1.0000   1.0000
     1.0000   1.0000   1.0000   1.0000   1.0000   1.0000   1.0000   1.0000
     1.0000   1.0000   1.0000   1.0000   0.0000   0.0000   0.0000   0.0000

          k = 0.0714 0.0714-0.5000 (  2316 PWs)   bands (ev):

   -45.6600 -22.1412 -21.9561 -21.9559 -21.8824  -7.1163  -5.8477  -5.5683
    -3.9893  -3.9028  -3.4198   6.1559   7.4875   7.6054   7.6980   7.8277
     8.6784   8.8768   9.6002   9.7393  12.9481  14.5938  14.6001  15.4972

     occupation numbers 
     1.0000   1.0000   1.0000   1.0000   1.0000   1.0000   1.0000   1.0000
     1.0000   1.0000   1.0000   1.0000   1.0000   1.0000   1.0000   1.0000
     1.0000   1.0000   1.0000   1.0000   0.0000   0.0000   0.0000   0.0000

          k = 0.0714 0.1429 0.1429 (  2320 PWs)   bands (ev):

   -45.6609 -22.0660 -21.9706 -21.9598 -21.9086  -6.9059  -5.9260  -5.8900
    -3.9926  -3.9469  -3.8081   7.2411   7.6123   7.6854   8.5187   8.7189
     9.3697   9.4572   9.7977   9.8918  13.0547  13.1569  13.2928  15.7059

     occupation numbers 
     1.0000   1.0000   1.0000   1.0000   1.0000   1.0000   1.0000   1.0000
     1.0000   1.0000   1.0000   1.0000   1.0000   1.0000   1.0000   1.0000
     1.0000   1.0000   1.0000   1.0000   0.0000   0.0000   0.0000   0.0000

          k = 0.0714 0.1429 0.2143 (  2310 PWs)   bands (ev):

   -45.6606 -22.0799 -21.9750 -21.9591 -21.9007  -6.9049  -5.9179  -5.8612
    -3.9900  -3.9146  -3.7186   7.0135   7.5076   7.6646   8.1930   8.4858
     9.1014   9.4328   9.6869   9.7850  13.1248  13.5089  13.6031  15.7722

     occupation numbers 
     1.0000   1.0000   1.0000   1.0000   1.0000   1.0000   1.0000   1.0000
     1.0000   1.0000   1.0000   1.0000   1.0000   1.0000   1.0000   1.0000
     1.0000   1.0000   1.0000   1.0000   0.0000   0.0000   0.0000   0.0000

          k = 0.0714 0.1429 0.2857 (  2318 PWs)   bands (ev):

   -45.6604 -22.0975 -21.9745 -21.9580 -21.8951  -6.9320  -5.8826  -5.8111
    -3.9910  -3.8860  -3.6189   6.7316   7.3763   7.6471   7.8836   8.2103
     8.9319   9.3644   9.5761   9.6981  13.1617  13.9159  13.9630  15.7912

     occupation numbers 
     1.0000   1.0000   1.0000   1.0000   1.0000   1.0000   1.0000   1.0000
     1.0000   1.0000   1.0000   1.0000   1.0000   1.0000   1.0000   1.0000
     1.0000   1.0000   1.0000   1.0000   0.0000   0.0000   0.0000   0.0000

          k = 0.0714 0.1429 0.3571 (  2313 PWs)   bands (ev):

   -45.6601 -22.1143 -21.9715 -21.9568 -21.8918  -6.9749  -5.8507  -5.7345
    -3.9938  -3.8607  -3.5344   6.4454   7.2357   7.6237   7.6740   7.9799
     8.8410   9.2990   9.4643   9.6342  13.1932  14.2722  14.2965  15.7972

     occupation numbers 
     1.0000   1.0000   1.0000   1.0000   1.0000   1.0000   1.0000   1.0000
     1.0000   1.0000   1.0000   1.0000   1.0000   1.0000   1.0000   1.0000
     1.0000   1.0000   1.0000   1.0000   0.0000   0.0000   0.0000   0.0000

          k = 0.0714 0.1429 0.4286 (  2307 PWs)   bands (ev):

   -45.6599 -22.1262 -21.9687 -21.9559 -21.8902  -7.0115  -5.8316  -5.6650
    -3.9963  -3.8426  -3.4793   6.2287   7.1252   7.5299   7.6605   7.8182
     8.7930   9.2722   9.3656   9.5953  13.2148  14.5149  14.5329  15.7980

     occupation numbers 
     1.0000   1.0000   1.0000   1.0000   1.0000   1.0000   1.0000   1.0000
     1.0000   1.0000   1.0000   1.0000   1.0000   1.0000   1.0000   1.0000
     1.0000   1.0000   1.0000   1.0000   0.0000   0.0000   0.0000   0.0000

          k = 0.0714 0.1429-0.5000 (  2312 PWs)   bands (ev):

   -45.6598 -22.1304 -21.9677 -21.9555 -21.8897  -7.0255  -5.8252  -5.6376
    -3.9972  -3.8359  -3.4603   6.1480   7.0840   7.4956   7.6854   7.7406
     8.7772   9.2944   9.2989   9.5822  13.2225  14.6008  14.6188  15.7975

     occupation numbers 
     1.0000   1.0000   1.0000   1.0000   1.0000   1.0000   1.0000   1.0000
     1.0000   1.0000   1.0000   1.0000   1.0000   1.0000   1.0000   1.0000
     1.0000   1.0000   1.0000   1.0000   0.0000   0.0000   0.0000   0.0000

          k = 0.0714 0.2143 0.2143 (  2313 PWs)   bands (ev):

   -45.6604 -22.0823 -21.9866 -21.9583 -21.8973  -6.8640  -5.9439  -5.8271
    -3.9829  -3.8655  -3.6782   6.8457   7.3592   7.6339   7.8312   8.3425
     8.8989   9.3861   9.6356   9.7335  13.4517  13.5925  13.8163  15.9599

     occupation numbers 
     1.0000   1.0000   1.0000   1.0000   1.0000   1.0000   1.0000   1.0000
     1.0000   1.0000   1.0000   1.0000   1.0000   1.0000   1.0000   1.0000
     1.0000   1.0000   1.0000   1.0000   0.0000   0.0000   0.0000   0.0000

          k = 0.0714 0.2143 0.2857 (  2313 PWs)   bands (ev):

   -45.6601 -22.0901 -21.9915 -21.9572 -21.8968  -6.8472  -5.9310  -5.7885
    -3.9808  -3.8261  -3.6206   6.6276   7.1648   7.5122   7.6090   8.1353
     8.7859   9.2963   9.5185   9.7705  13.5358  13.9400  14.0984  16.0408

     occupation numbers 
     1.0000   1.0000   1.0000   1.0000   1.0000   1.0000   1.0000   1.0000
     1.0000   1.0000   1.0000   1.0000   1.0000   1.0000   1.0000   1.0000
     1.0000   1.0000   1.0000   1.0000   0.0000   0.0000   0.0000   0.0000

          k = 0.0714 0.2143 0.3571 (  2305 PWs)   bands (ev):

   -45.6598 -22.1010 -21.9898 -21.9561 -21.8984  -6.8575  -5.8823  -5.7551
    -3.9833  -3.7949  -3.5650   6.3970   6.9106   7.3480   7.5991   7.9349
     8.7706   9.1830   9.4470   9.7650  13.5666  14.2859  14.3844  16.0741

     occupation numbers 
     1.0000   1.0000   1.0000   1.0000   1.0000   1.0000   1.0000   1.0000
     1.0000   1.0000   1.0000   1.0000   1.0000   1.0000   1.0000   1.0000
     1.0000   1.0000   1.0000   1.0000   0.0000   0.0000   0.0000   0.0000

          k = 0.0714 0.2143 0.4286 (  2307 PWs)   bands (ev):

   -45.6596 -22.1100 -21.9862 -21.9551 -21.9006  -6.8762  -5.8279  -5.7360
    -3.9867  -3.7731  -3.5268   6.2098   6.7236   7.2834   7.6130   7.7815
     8.8046   9.0730   9.4091   9.7454  13.5857  14.5242  14.5976  16.0868

     occupation numbers 
     1.0000   1.0000   1.0000   1.0000   1.0000   1.0000   1.0000   1.0000
     1.0000   1.0000   1.0000   1.0000   1.0000   1.0000   1.0000   1.0000
     1.0000   1.0000   1.0000   1.0000   0.0000   0.0000   0.0000   0.0000

          k = 0.0714 0.2143-0.5000 (  2304 PWs)   bands (ev):

   -45.6596 -22.1135 -21.9845 -21.9547 -21.9017  -6.8847  -5.8030  -5.7319
    -3.9881  -3.7651  -3.5134   6.1365   6.6606   7.2657   7.6427   7.7030
     8.8352   9.0171   9.3969   9.7359  13.5924  14.6090  14.6767  16.0898

     occupation numbers 
     1.0000   1.0000   1.0000   1.0000   1.0000   1.0000   1.0000   1.0000
     1.0000   1.0000   1.0000   1.0000   1.0000   1.0000   1.0000   1.0000
     1.0000   1.0000   1.0000   1.0000   0.0000   0.0000   0.0000   0.0000

          k = 0.0714 0.2857 0.2857 (  2301 PWs)   bands (ev):

   -45.6598 -22.0849 -22.0043 -21.9563 -21.9014  -6.7702  -5.9618  -5.7591
    -3.9722  -3.7743  -3.6096   6.4676   6.9924   7.1120   7.5755   8.0025
     8.6929   9.2432   9.3614   9.9392  13.8816  14.0124  14.3039  16.1799

     occupation numbers 
     1.0000   1.0000   1.0000   1.0000   1.0000   1.0000   1.0000   1.0000
     1.0000   1.0000   1.0000   1.0000   1.0000   1.0000   1.0000   1.0000
     1.0000   1.0000   1.0000   1.0000   0.0000   0.0000   0.0000   0.0000

          k = 0.0714 0.2857 0.3571 (  2308 PWs)   bands (ev):

   -45.6595 -22.0856 -22.0081 -21.9552 -21.9082  -6.7248  -5.9441  -5.7467
    -3.9688  -3.7357  -3.5884   6.2963   6.6702   6.9570   7.5593   7.8496
     8.7053   9.1496   9.2779  10.0325  13.9562  14.3027  14.5333  16.2467

     occupation numbers 
     1.0000   1.0000   1.0000   1.0000   1.0000   1.0000   1.0000   1.0000
     1.0000   1.0000   1.0000   1.0000   1.0000   1.0000   1.0000   1.0000
     1.0000   1.0000   1.0000   1.0000   0.0000   0.0000   0.0000   0.0000

          k = 0.0714 0.2857 0.4286 (  2313 PWs)   bands (ev):

   -45.6594 -22.0898 -22.0052 -21.9543 -21.9149  -6.7103  -5.8860  -5.7641
    -3.9687  -3.7104  -3.5695   6.1690   6.3981   6.9179   7.5695   7.7203
     8.7797   9.0206   9.2505  10.0732  13.9743  14.5339  14.7148  16.2757

     occupation numbers 
     1.0000   1.0000   1.0000   1.0000   1.0000   1.0000   1.0000   1.0000
[...]
     1.0000   1.0000   1.0000   1.0000   0.0000   0.0000   0.0000   0.0000

          k = 0.2143 0.2857 0.2857 (  2300 PWs)   bands (ev):

   -45.6594 -22.0684 -22.0028 -21.9866 -21.9070  -6.5834  -5.8620  -5.7792
    -4.0215  -3.9083  -3.5846   6.3859   6.9996   7.2027   7.2536   7.5061
     7.8589   9.5751   9.6593   9.9846  14.1848  14.2424  14.3821  17.2873

     occupation numbers 
     1.0000   1.0000   1.0000   1.0000   1.0000   1.0000   1.0000   1.0000
     1.0000   1.0000   1.0000   1.0000   1.0000   1.0000   1.0000   1.0000
     1.0000   1.0000   1.0000   1.0000   0.0000   0.0000   0.0000   0.0000

          k = 0.2143 0.2857 0.3571 (  2312 PWs)   bands (ev):

   -45.6591 -22.0679 -22.0067 -21.9854 -21.9152  -6.5164  -5.8441  -5.7311
    -4.0734  -3.8627  -3.6111   6.2862   6.7272   7.0138   7.1814   7.3820
     7.8537   9.5684   9.6795  10.0656  14.2502  14.4927  14.6090  17.3350

     occupation numbers 
     1.0000   1.0000   1.0000   1.0000   1.0000   1.0000   1.0000   1.0000
     1.0000   1.0000   1.0000   1.0000   1.0000   1.0000   1.0000   1.0000
     1.0000   1.0000   1.0000   1.0000   0.0000   0.0000   0.0000   0.0000

          k = 0.2143 0.2857 0.4286 (  2310 PWs)   bands (ev):

   -45.6589 -22.0720 -22.0036 -21.9834 -21.9231  -6.4851  -5.8085  -5.7014
    -4.1192  -3.7931  -3.6585   6.1777   6.5080   6.9315   7.1400   7.3114
     7.8861   9.5681   9.6744  10.1024  14.2787  14.6936  14.7869  17.3387

     occupation numbers 
     1.0000   1.0000   1.0000   1.0000   1.0000   1.0000   1.0000   1.0000
     1.0000   1.0000   1.0000   1.0000   1.0000   1.0000   1.0000   1.0000
     1.0000   1.0000   1.0000   1.0000   0.0000   0.0000   0.0000   0.0000

          k = 0.2143 0.2857-0.5000 (  2318 PWs)   bands (ev):

   -45.6589 -22.0742 -22.0016 -21.9822 -21.9267  -6.4773  -5.7890  -5.6934
    -4.1366  -3.7244  -3.7186   6.1201   6.4457   6.9066   7.1205   7.2927
     7.9005   9.5710   9.6670  10.1120  14.2885  14.7678  14.8549  17.3371

     occupation numbers 
     1.0000   1.0000   1.0000   1.0000   1.0000   1.0000   1.0000   1.0000
     1.0000   1.0000   1.0000   1.0000   1.0000   1.0000   1.0000   1.0000
     1.0000   1.0000   1.0000   1.0000   0.0000   0.0000   0.0000   0.0000

          k = 0.2143 0.3571 0.3571 (  2311 PWs)   bands (ev):

   -45.6588 -22.0571 -22.0187 -21.9841 -21.9256  -6.3918  -5.8542  -5.6990
    -4.0908  -3.8693  -3.6520   6.2232   6.6248   6.6365   7.1450   7.3063
     7.7726   9.5975   9.7081  10.2267  14.5032  14.5493  14.7909  17.4481

     occupation numbers 
     1.0000   1.0000   1.0000   1.0000   1.0000   1.0000   1.0000   1.0000
     1.0000   1.0000   1.0000   1.0000   1.0000   1.0000   1.0000   1.0000
     1.0000   1.0000   1.0000   1.0000   0.0000   0.0000   0.0000   0.0000

          k = 0.2143 0.3571 0.4286 (  2311 PWs)   bands (ev):

   -45.6587 -22.0549 -22.0200 -21.9824 -21.9354  -6.3108  -5.8370  -5.6951
    -4.1149  -3.8322  -3.7070   6.1475   6.3667   6.5797   7.1334   7.2399
     7.7661   9.6277   9.7078  10.3180  14.5497  14.7274  14.9399  17.4727

     occupation numbers 
     1.0000   1.0000   1.0000   1.0000   1.0000   1.0000   1.0000   1.0000
     1.0000   1.0000   1.0000   1.0000   1.0000   1.0000   1.0000   1.0000
     1.0000   1.0000   1.0000   1.0000   0.0000   0.0000   0.0000   0.0000

          k = 0.2143 0.3571-0.5000 (  2328 PWs)   bands (ev):

   -45.6586 -22.0560 -22.0181 -21.9814 -21.9398  -6.2847  -5.8177  -5.7039
    -4.1258  -3.7851  -3.7575   6.0994   6.2916   6.5638   7.1319   7.2130
     7.7691   9.6478   9.6969  10.3466  14.5594  14.8003  14.9981  17.4748

     occupation numbers 
     1.0000   1.0000   1.0000   1.0000   1.0000   1.0000   1.0000   1.0000
     1.0000   1.0000   1.0000   1.0000   1.0000   1.0000   1.0000   1.0000
     1.0000   1.0000   1.0000   1.0000   0.0000   0.0000   0.0000   0.0000

          k = 0.2143 0.4286 0.4286 (  2322 PWs)   bands (ev):

   -45.6585 -22.0422 -22.0296 -21.9814 -21.9467  -6.1617  -5.8496  -5.7301
    -4.1018  -3.8399  -3.7618   6.0884   6.2437   6.3762   7.1409   7.1936
     7.7217   9.6758   9.7217  10.4459  14.7405  14.7571  15.0687  17.4975

     occupation numbers 
     1.0000   1.0000   1.0000   1.0000   1.0000   1.0000   1.0000   1.0000
     1.0000   1.0000   1.0000   1.0000   1.0000   1.0000   1.0000   1.0000
     1.0000   1.0000   1.0000   1.0000   0.0000   0.0000   0.0000   0.0000

          k = 0.2143 0.4286-0.5000 (  2324 PWs)   bands (ev):

   -45.6584 -22.0403 -22.0295 -21.9808 -21.9519  -6.0971  -5.8398  -5.7694
    -4.0955  -3.8189  -3.8048   6.0424   6.1888   6.3390   7.1499   7.1711
     7.7107   9.7035   9.7164  10.4873  14.7567  14.8220  15.1197  17.4955

     occupation numbers 
     1.0000   1.0000   1.0000   1.0000   1.0000   1.0000   1.0000   1.0000
     1.0000   1.0000   1.0000   1.0000   1.0000   1.0000   1.0000   1.0000
     1.0000   1.0000   1.0000   1.0000   0.0000   0.0000   0.0000   0.0000

          k = 0.2143-0.5000-0.5000 (  2316 PWs)   bands (ev):

   -45.6583 -22.0335 -22.0335 -21.9806 -21.9575  -5.9759  -5.8481  -5.8481
    -4.0771  -3.8288  -3.8288   5.9958   6.1534   6.2830   7.1570   7.1570
     7.6935   9.7238   9.7238  10.5333  14.8297  14.8297  15.1680  17.4897

     occupation numbers 
     1.0000   1.0000   1.0000   1.0000   1.0000   1.0000   1.0000   1.0000
     1.0000   1.0000   1.0000   1.0000   1.0000   1.0000   1.0000   1.0000
     1.0000   1.0000   1.0000   1.0000   0.0000   0.0000   0.0000   0.0000

          k = 0.2857 0.2857 0.2857 (  2305 PWs)   bands (ev):

   -45.6591 -22.0589 -22.0019 -22.0019 -21.9137  -6.4674  -5.7885  -5.7885
    -4.0043  -4.0043  -3.6078   6.3372   7.0035   7.0035   7.2961   7.2961
     7.3702   9.7333   9.7333  10.0728  14.4080  14.4437  14.4437  17.8905

     occupation numbers 
     1.0000   1.0000   1.0000   1.0000   1.0000   1.0000   1.0000   1.0000
     1.0000   1.0000   1.0000   1.0000   1.0000   1.0000   1.0000   1.0000
     1.0000   1.0000   1.0000   1.0000   0.0000   0.0000   0.0000   0.0000

          k = 0.2857 0.2857 0.3571 (  2318 PWs)   bands (ev):

   -45.6588 -22.0556 -22.0078 -22.0010 -21.9223  -6.3740  -5.7864  -5.7150
    -4.0981  -3.9548  -3.6563   6.2781   6.7219   7.0033   7.0334   7.1450
     7.4034   9.7517   9.8477  10.1490  14.4747  14.6537  14.6647  17.8653

     occupation numbers 
     1.0000   1.0000   1.0000   1.0000   1.0000   1.0000   1.0000   1.0000
     1.0000   1.0000   1.0000   1.0000   1.0000   1.0000   1.0000   1.0000
     1.0000   1.0000   1.0000   1.0000   0.0000   0.0000   0.0000   0.0000

          k = 0.2857 0.2857 0.4286 (  2320 PWs)   bands (ev):

   -45.6586 -22.0589 -22.0041 -22.0004 -21.9304  -6.3201  -5.7736  -5.6588
    -4.1684  -3.8855  -3.7215   6.1795   6.5275   6.9011   6.9898   7.0671
     7.4587   9.7569   9.9116  10.1871  14.5064  14.8252  14.8428  17.8421

     occupation numbers 
     1.0000   1.0000   1.0000   1.0000   1.0000   1.0000   1.0000   1.0000
     1.0000   1.0000   1.0000   1.0000   1.0000   1.0000   1.0000   1.0000
     1.0000   1.0000   1.0000   1.0000   0.0000   0.0000   0.0000   0.0000

          k = 0.2857 0.2857-0.5000 (  2330 PWs)   bands (ev):

   -45.6586 -22.0611 -22.0010 -22.0002 -21.9341  -6.3038  -5.7660  -5.6375
    -4.1948  -3.8282  -3.7768   6.1174   6.4833   6.8591   6.9755   7.0508
     7.4790   9.7585   9.9314  10.1972  14.5175  14.8890  14.9119  17.8325

     occupation numbers 
     1.0000   1.0000   1.0000   1.0000   1.0000   1.0000   1.0000   1.0000
     1.0000   1.0000   1.0000   1.0000   1.0000   1.0000   1.0000   1.0000
     1.0000   1.0000   1.0000   1.0000   0.0000   0.0000   0.0000   0.0000

          k = 0.2857 0.3571 0.3571 (  2323 PWs)   bands (ev):

   -45.6585 -22.0461 -22.0177 -22.0024 -21.9309  -6.2413  -5.7613  -5.6733
    -4.1307  -3.9990  -3.7235   6.2544   6.6432   6.7138   6.9479   7.1148
     7.2266   9.8629   9.9386  10.2640  14.6888  14.7162  14.8432  18.0417

     occupation numbers 
     1.0000   1.0000   1.0000   1.0000   1.0000   1.0000   1.0000   1.0000
     1.0000   1.0000   1.0000   1.0000   1.0000   1.0000   1.0000   1.0000
     1.0000   1.0000   1.0000   1.0000   0.0000   0.0000   0.0000   0.0000

          k = 0.2857 0.3571 0.4286 (  2325 PWs)   bands (ev):

   -45.6584 -22.0457 -22.0188 -22.0008 -21.9388  -6.1481  -5.7532  -5.6327
    -4.1877  -3.9636  -3.8013   6.1680   6.4798   6.6078   6.9358   7.0263
     7.2457   9.9051  10.0009  10.3446  14.7329  14.8763  14.9921  18.0216

     occupation numbers 
     1.0000   1.0000   1.0000   1.0000   1.0000   1.0000   1.0000   1.0000
     1.0000   1.0000   1.0000   1.0000   1.0000   1.0000   1.0000   1.0000
     1.0000   1.0000   1.0000   1.0000   0.0000   0.0000   0.0000   0.0000

          k = 0.2857 0.3571-0.5000 (  2324 PWs)   bands (ev):

   -45.6583 -22.0476 -22.0171 -21.9997 -21.9423  -6.1152  -5.7493  -5.6177
    -4.2130  -3.9162  -3.8591   6.1017   6.4492   6.5745   6.9510   6.9747
     7.2621   9.9163  10.0226  10.3717  14.7444  14.9413  15.0504  18.0024

     occupation numbers 
     1.0000   1.0000   1.0000   1.0000   1.0000   1.0000   1.0000   1.0000
     1.0000   1.0000   1.0000   1.0000   1.0000   1.0000   1.0000   1.0000
     1.0000   1.0000   1.0000   1.0000   0.0000   0.0000   0.0000   0.0000

          k = 0.2857 0.4286 0.4286 (  2321 PWs)   bands (ev):

   -45.6582 -22.0368 -22.0286 -21.9997 -21.9463  -5.9997  -5.7438  -5.6403
    -4.1919  -3.9921  -3.8854   6.1046   6.3810   6.4289   6.9445   7.0203
     7.1616   9.9955  10.0349  10.4653  14.8999  14.9117  15.1221  17.9500

     occupation numbers 
     1.0000   1.0000   1.0000   1.0000   1.0000   1.0000   1.0000   1.0000
     1.0000   1.0000   1.0000   1.0000   1.0000   1.0000   1.0000   1.0000
     1.0000   1.0000   1.0000   1.0000   0.0000   0.0000   0.0000   0.0000

          k = 0.2857 0.4286-0.5000 (  2320 PWs)   bands (ev):

   -45.6581 -22.0368 -22.0284 -21.9991 -21.9495  -5.9321  -5.7404  -5.6582
    -4.1939  -3.9712  -3.9447   6.0471   6.3442   6.3968   6.9765   6.9811
     7.1499  10.0211  10.0501  10.5070  14.9165  14.9712  15.1735  17.9002

     occupation numbers 
     1.0000   1.0000   1.0000   1.0000   1.0000   1.0000   1.0000   1.0000
     1.0000   1.0000   1.0000   1.0000   1.0000   1.0000   1.0000   1.0000
     1.0000   1.0000   1.0000   1.0000   0.0000   0.0000   0.0000   0.0000

          k = 0.2857-0.5000-0.5000 (  2316 PWs)   bands (ev):

   -45.6581 -22.0324 -22.0324 -21.9989 -21.9526  -5.8024  -5.7379  -5.7379
    -4.1727  -3.9889  -3.9889   5.9997   6.2872   6.3752   6.9905   6.9905
     7.1089  10.0578  10.0578  10.5537  14.9817  14.9817  15.2226  17.8360

     occupation numbers 
     1.0000   1.0000   1.0000   1.0000   1.0000   1.0000   1.0000   1.0000
     1.0000   1.0000   1.0000   1.0000   1.0000   1.0000   1.0000   1.0000
     1.0000   1.0000   1.0000   1.0000   0.0000   0.0000   0.0000   0.0000

          k = 0.3571 0.3571 0.3571 (  2323 PWs)   bands (ev):

   -45.6583 -22.0367 -22.0167 -22.0167 -21.9371  -6.0949  -5.6648  -5.6648
    -4.1284  -4.1284  -3.8149   6.2579   6.6507   6.6507   6.7625   6.9712
     6.9712  10.0714  10.0714  10.3328  14.8711  14.8988  14.8988  18.3609

     occupation numbers 
     1.0000   1.0000   1.0000   1.0000   1.0000   1.0000   1.0000   1.0000
     1.0000   1.0000   1.0000   1.0000   1.0000   1.0000   1.0000   1.0000
     1.0000   1.0000   1.0000   1.0000   0.0000   0.0000   0.0000   0.0000

          k = 0.3571 0.3571 0.4286 (  2327 PWs)   bands (ev):

   -45.6581 -22.0370 -22.0186 -22.0161 -21.9427  -5.9809  -5.6743  -5.5877
    -4.2281  -4.0867  -3.9110   6.1635   6.5167   6.6463   6.6575   6.8816
     6.9942  10.1251  10.2014  10.4012  14.9215  15.0286  15.0486  18.2116

     occupation numbers 
     1.0000   1.0000   1.0000   1.0000   1.0000   1.0000   1.0000   1.0000
     1.0000   1.0000   1.0000   1.0000   1.0000   1.0000   1.0000   1.0000
     1.0000   1.0000   1.0000   1.0000   0.0000   0.0000   0.0000   0.0000

          k = 0.3571 0.3571-0.5000 (  2316 PWs)   bands (ev):

   -45.6580 -22.0396 -22.0164 -22.0159 -21.9450  -5.9346  -5.6840  -5.5573
    -4.2665  -4.0377  -3.9779   6.0887   6.5453   6.5608   6.6607   6.8508
     7.0155  10.1392  10.2452  10.4276  14.9340  15.0842  15.1079  18.1536

     occupation numbers 
     1.0000   1.0000   1.0000   1.0000   1.0000   1.0000   1.0000   1.0000
     1.0000   1.0000   1.0000   1.0000   1.0000   1.0000   1.0000   1.0000
     1.0000   1.0000   1.0000   1.0000   0.0000   0.0000   0.0000   0.0000

          k = 0.3571 0.4286 0.4286 (  2327 PWs)   bands (ev):

   -45.6579 -22.0318 -22.0276 -22.0161 -21.9459  -5.8361  -5.6311  -5.5663
    -4.2534  -4.1462  -4.0183   6.0945   6.3856   6.5858   6.6409   6.8807
     6.8905  10.2586  10.2859  10.4874  15.0655  15.0755  15.1710  18.0133

     occupation numbers 
     1.0000   1.0000   1.0000   1.0000   1.0000   1.0000   1.0000   1.0000
     1.0000   1.0000   1.0000   1.0000   1.0000   1.0000   1.0000   1.0000
     1.0000   1.0000   1.0000   1.0000   0.0000   0.0000   0.0000   0.0000

          k = 0.3571 0.4286-0.5000 (  2330 PWs)   bands (ev):

   -45.6579 -22.0337 -22.0275 -22.0155 -21.9473  -5.7645  -5.6366  -5.5558
    -4.2739  -4.1221  -4.0911   6.0330   6.3481   6.5824   6.6306   6.8493
     6.9039  10.2863  10.3230  10.5266  15.0827  15.1281  15.2228  17.9258

     occupation numbers 
     1.0000   1.0000   1.0000   1.0000   1.0000   1.0000   1.0000   1.0000
     1.0000   1.0000   1.0000   1.0000   1.0000   1.0000   1.0000   1.0000
     1.0000   1.0000   1.0000   1.0000   0.0000   0.0000   0.0000   0.0000

          k = 0.3571-0.5000-0.5000 (  2316 PWs)   bands (ev):

   -45.6578 -22.0315 -22.0315 -22.0153 -21.9482  -5.6392  -5.6193  -5.6193
    -4.2564  -4.1519  -4.1519   5.9845   6.2910   6.5752   6.6373   6.8656
     6.8656  10.3377  10.3377  10.5724  15.1405  15.1405  15.2723  17.8252

     occupation numbers 
     1.0000   1.0000   1.0000   1.0000   1.0000   1.0000   1.0000   1.0000
     1.0000   1.0000   1.0000   1.0000   1.0000   1.0000   1.0000   1.0000
     1.0000   1.0000   1.0000   1.0000   0.0000   0.0000   0.0000   0.0000

          k = 0.4286 0.4286 0.4286 (  2326 PWs)   bands (ev):

   -45.6578 -22.0287 -22.0269 -22.0269 -21.9457  -5.6947  -5.5379  -5.5379
    -4.2678  -4.2678  -4.1384   6.0305   6.3889   6.3889   6.6933   6.8109
     6.8109  10.4309  10.4309  10.5210  15.1941  15.2088  15.2088  17.9617

     occupation numbers 
     1.0000   1.0000   1.0000   1.0000   1.0000   1.0000   1.0000   1.0000
     1.0000   1.0000   1.0000   1.0000   1.0000   1.0000   1.0000   1.0000
     1.0000   1.0000   1.0000   1.0000   0.0000   0.0000   0.0000   0.0000

          k = 0.4286 0.4286-0.5000 (  2316 PWs)   bands (ev):

   -45.6577 -22.0316 -22.0269 -22.0267 -21.9457  -5.6179  -5.5531  -5.5001
    -4.3156  -4.2375  -4.2164   5.9774   6.3349   6.3902   6.6988   6.7841
     6.8172  10.4625  10.4909  10.5515  15.2160  15.2509  15.2617  17.8609

     occupation numbers 
     1.0000   1.0000   1.0000   1.0000   1.0000   1.0000   1.0000   1.0000
     1.0000   1.0000   1.0000   1.0000   1.0000   1.0000   1.0000   1.0000
     1.0000   1.0000   1.0000   1.0000   0.0000   0.0000   0.0000   0.0000

          k = 0.4286-0.5000-0.5000 (  2308 PWs)   bands (ev):

   -45.6576 -22.0308 -22.0308 -22.0265 -21.9451  -5.5221  -5.5200  -5.5200
    -4.3130  -4.2815  -4.2815   5.9326   6.2935   6.3671   6.7138   6.7891
     6.7891  10.5244  10.5244  10.5853  15.2686  15.2686  15.3069  17.7563

     occupation numbers 
     1.0000   1.0000   1.0000   1.0000   1.0000   1.0000   1.0000   1.0000
     1.0000   1.0000   1.0000   1.0000   1.0000   1.0000   1.0000   1.0000
     1.0000   1.0000   1.0000   1.0000   0.0000   0.0000   0.0000   0.0000

          k =-0.5000-0.5000-0.5000 (  2320 PWs)   bands (ev):

   -45.6576 -22.0306 -22.0306 -22.0306 -21.9440  -5.4794  -5.4794  -5.4794
    -4.3330  -4.3330  -4.3330   5.8925   6.2945   6.2945   6.7633   6.7633
     6.7633  10.5900  10.5900  10.5900  15.3194  15.3194  15.3194  17.7278

     occupation numbers 
     1.0000   1.0000   1.0000   1.0000   1.0000   1.0000   1.0000   1.0000
     1.0000   1.0000   1.0000   1.0000   1.0000   1.0000   1.0000   1.0000
     1.0000   1.0000   1.0000   1.0000   0.0000   0.0000   0.0000   0.0000

     the Fermi energy is    12.3809 ev

!    total energy              =    -287.00522350 Ry
     Harris-Foulkes estimate   =    -287.00522351 Ry
     estimated scf accuracy    <          7.2E-09 Ry

     The total energy is the sum of the following terms:

     one-electron contribution =     -73.13699593 Ry
     hartree contribution      =      59.87552152 Ry
     xc contribution           =     -58.61804042 Ry
     ewald contribution        =    -215.12570867 Ry
     smearing contrib. (-TS)   =      -0.00000000 Ry

     convergence has been achieved in   9 iterations
 
     init_run     :      0.93s CPU      1.05s WALL (       1 calls)
     electrons    :     25.64s CPU     28.05s WALL (       1 calls)

     Called by init_run:
     wfcinit      :      0.84s CPU      0.92s WALL (       1 calls)
     wfcinit:atom :      0.01s CPU      0.01s WALL (     120 calls)
     wfcinit:wfcr :      0.81s CPU      0.89s WALL (     120 calls)
     potinit      :      0.01s CPU      0.01s WALL (       1 calls)
     hinit0       :      0.07s CPU      0.10s WALL (       1 calls)

     Called by electrons:
     c_bands      :     23.84s CPU     26.12s WALL (       9 calls)
     sum_band     :      1.72s CPU      1.83s WALL (       9 calls)
     v_of_rho     :      0.02s CPU      0.02s WALL (      10 calls)
     v_h          :      0.00s CPU      0.00s WALL (      10 calls)
     v_xc         :      0.01s CPU      0.02s WALL (      10 calls)
     newd         :      0.06s CPU      0.07s WALL (      10 calls)
     mix_rho      :      0.00s CPU      0.00s WALL (       9 calls)

     Called by c_bands:
     init_us_2    :      0.16s CPU      0.16s WALL (    2280 calls)
     cegterg      :     23.23s CPU     25.49s WALL (    1080 calls)

     Called by sum_band:
     sum_band:bec :      0.02s CPU      0.02s WALL (    1080 calls)
     addusdens    :      0.06s CPU      0.06s WALL (       9 calls)

     Called by *egterg:
     h_psi        :      8.28s CPU      8.70s WALL (    4457 calls)
     s_psi        :      0.21s CPU      0.22s WALL (    4457 calls)
     g_psi        :      0.05s CPU      0.05s WALL (    3257 calls)
     cdiaghg      :     12.73s CPU     14.11s WALL (    4337 calls)
     cegterg:over :      1.56s CPU      2.03s WALL (    3257 calls)
     cegterg:upda :      0.58s CPU      0.61s WALL (    3257 calls)
     cegterg:last :      0.23s CPU      0.24s WALL (    1080 calls)
     cdiaghg:chol :      0.36s CPU      0.43s WALL (    4337 calls)
     cdiaghg:inve :      0.22s CPU      0.26s WALL (    4337 calls)
     cdiaghg:para :      0.70s CPU      0.77s WALL (    8674 calls)

     Called by h_psi:
     h_psi:pot    :      8.26s CPU      8.68s WALL (    4457 calls)
     h_psi:calbec :      0.39s CPU      0.41s WALL (    4457 calls)
     vloc_psi     :      7.63s CPU      8.02s WALL (    4457 calls)
     add_vuspsi   :      0.22s CPU      0.23s WALL (    4457 calls)

     General routines
     calbec       :      0.50s CPU      0.52s WALL (    5537 calls)
     fft          :      0.01s CPU      0.04s WALL (     111 calls)
     ffts         :      0.00s CPU      0.00s WALL (       9 calls)
     fftw         :      8.49s CPU      8.94s WALL (  168670 calls)
 
     Parallel routines
     fft_scatt_xy :      0.67s CPU      0.71s WALL (  168790 calls)
     fft_scatt_yz :      5.28s CPU      5.58s WALL (  168790 calls)
 
     PWSCF        :    26.65s CPU        29.29s WALL

 
   This run was terminated on:  21:43:52   6Feb2019            

=------------------------------------------------------------------------------=
   JOB DONE.
=------------------------------------------------------------------------------=
