
     Program PWSCF v.6.3MaX starts on  6Feb2019 at 22:38:42 

     This program is part of the open-source Quantum ESPRESSO suite
     for quantum simulation of materials; please cite
         "P. Giannozzi et al., J. Phys.:Condens. Matter 21 395502 (2009);
         "P. Giannozzi et al., J. Phys.:Condens. Matter 29 465901 (2017);
          URL http://www.quantum-espresso.org", 
     in publications or presentations arising from this work. More details at
     http://www.quantum-espresso.org/quote

     Parallel version (MPI & OpenMP), running on      20 processor cores
     Number of MPI processes:                20
     Threads/MPI process:                     1

     MPI processes distributed on     1 nodes
     R & G space division:  proc/nbgrp/npool/nimage =      20
     Reading input from /home/azadoks/dftman/projects/SrTiO3 Convergence/EOSWorkflows/851d9a203d99/acf9458f2570/pwscf.in
Warning: card &IONS ignored
Warning: card / ignored
Warning: card &CELL ignored
Warning: card / ignored

     Current dimensions of program PWSCF are:
     Max number of different atomic species (ntypx) = 10
     Max number of k-points (npk) =  40000
     Max angular momentum in pseudopotentials (lmaxx) =  3
     Message from routine iosys:
     minimal I/O required, wf_collect reset to FALSE

     Subspace diagonalization in iterative solution of the eigenvalue problem:
     one sub-group per band group will be used
     scalapack distributed-memory algorithm (size of sub-group:  3*  3 procs)

 
     Parallelization info
     --------------------
     sticks:   dense  smooth     PW     G-vecs:    dense   smooth      PW
     Min          37      37     11                  759      759     127
     Max          38      38     12                  762      762     132
     Sum         749     749    225                15203    15203    2553
 


     bravais-lattice index     =            0
     lattice parameter (alat)  =       7.6209  a.u.
     unit-cell volume          =     442.6054 (a.u.)^3
     number of atoms/cell      =            5
     number of atomic types    =            3
     number of electrons       =        40.00
     number of Kohn-Sham states=           24
     kinetic-energy cutoff     =      40.0000  Ry
     charge density cutoff     =     160.0000  Ry
     convergence threshold     =      1.0E-08
     mixing beta               =       0.7000
     number of iterations used =            8  plain     mixing
     Exchange-correlation      =  SLA  PW   PBX  PBC ( 1  4  3  4 0 0)

     celldm(1)=   7.620888  celldm(2)=   0.000000  celldm(3)=   0.000000
     celldm(4)=   0.000000  celldm(5)=   0.000000  celldm(6)=   0.000000

     crystal axes: (cart. coord. in units of alat)
               a(1) = (   1.000000   0.000000   0.000000 )  
               a(2) = (   0.000000   1.000000   0.000000 )  
               a(3) = (   0.000000   0.000000   1.000000 )  

     reciprocal axes: (cart. coord. in units 2 pi/alat)
               b(1) = (  1.000000  0.000000  0.000000 )  
               b(2) = (  0.000000  1.000000  0.000000 )  
               b(3) = (  0.000000  0.000000  1.000000 )  


     PseudoPot. # 1 for O  read from file:
     /home/azadoks/.local/share/pseudo/GBRV_PBE_US/o_pbe_v1.2.uspp.F.UPF
     MD5 check sum: 734c27235a0248c51dbae37a1fbe46ec
     Pseudo is Ultrasoft + core correction, Zval =  6.0
     Generated by new atomic code, or converted to UPF format
     Using radial grid of  737 points,  5 beta functions with: 
                l(1) =   0
                l(2) =   0
                l(3) =   1
                l(4) =   1
                l(5) =   2
     Q(r) pseudized with  8 coefficients,  rinner =    0.900   0.900   0.900
                                                       0.900   0.900

     PseudoPot. # 2 for Sr read from file:
     /home/azadoks/.local/share/pseudo/GBRV_PBE_US/sr_pbe_v1.uspp.F.UPF
     MD5 check sum: 6b418c05fbe9db5448babca5e47b7a5b
     Pseudo is Ultrasoft + core correction, Zval = 10.0
     Generated by new atomic code, or converted to UPF format
     Using radial grid of  883 points,  6 beta functions with: 
                l(1) =   0
                l(2) =   0
                l(3) =   1
                l(4) =   1
                l(5) =   2
                l(6) =   2
     Q(r) pseudized with  6 coefficients,  rinner =    1.400   1.400   1.400
                                                       1.400   1.400

     PseudoPot. # 3 for Ti read from file:
     /home/azadoks/.local/share/pseudo/GBRV_PBE_US/ti_pbe_v1.4.uspp.F.UPF
     MD5 check sum: 88a00a6731bd790ddea75d31a80cb452
     Pseudo is Ultrasoft + core correction, Zval = 12.0
     Generated by new atomic code, or converted to UPF format
     Using radial grid of  851 points,  6 beta functions with: 
                l(1) =   0
                l(2) =   0
                l(3) =   1
                l(4) =   1
                l(5) =   2
                l(6) =   2
     Q(r) pseudized with  6 coefficients,  rinner =    1.000   1.000   1.000
                                                       1.000   1.000

     atomic species   valence    mass     pseudopotential
        O              6.00    15.99940     O ( 1.00)
        Sr            10.00    87.62000     Sr( 1.00)
        Ti            12.00    47.86700     Ti( 1.00)

     48 Sym. Ops., with inversion, found


                                    s                        frac. trans.

      isym =  1     identity                                     

 cryst.   s( 1) = (     1          0          0      )
                  (     0          1          0      )
                  (     0          0          1      )

 cart.    s( 1) = (  1.0000000  0.0000000  0.0000000 )
                  (  0.0000000  1.0000000  0.0000000 )
                  (  0.0000000  0.0000000  1.0000000 )


      isym =  2     180 deg rotation - cart. axis [0,0,1]        

 cryst.   s( 2) = (    -1          0          0      )
                  (     0         -1          0      )
                  (     0          0          1      )

 cart.    s( 2) = ( -1.0000000  0.0000000  0.0000000 )
                  (  0.0000000 -1.0000000  0.0000000 )
                  (  0.0000000  0.0000000  1.0000000 )


      isym =  3     180 deg rotation - cart. axis [0,1,0]        

 cryst.   s( 3) = (    -1          0          0      )
                  (     0          1          0      )
                  (     0          0         -1      )

 cart.    s( 3) = ( -1.0000000  0.0000000  0.0000000 )
                  (  0.0000000  1.0000000  0.0000000 )
                  (  0.0000000  0.0000000 -1.0000000 )


      isym =  4     180 deg rotation - cart. axis [1,0,0]        

 cryst.   s( 4) = (     1          0          0      )
                  (     0         -1          0      )
                  (     0          0         -1      )

 cart.    s( 4) = (  1.0000000  0.0000000  0.0000000 )
                  (  0.0000000 -1.0000000  0.0000000 )
                  (  0.0000000  0.0000000 -1.0000000 )


      isym =  5     180 deg rotation - cart. axis [1,1,0]        

 cryst.   s( 5) = (     0          1          0      )
                  (     1          0          0      )
                  (     0          0         -1      )

 cart.    s( 5) = (  0.0000000  1.0000000  0.0000000 )
                  (  1.0000000  0.0000000  0.0000000 )
                  (  0.0000000  0.0000000 -1.0000000 )


      isym =  6     180 deg rotation - cart. axis [1,-1,0]       

 cryst.   s( 6) = (     0         -1          0      )
                  (    -1          0          0      )
                  (     0          0         -1      )

 cart.    s( 6) = (  0.0000000 -1.0000000  0.0000000 )
                  ( -1.0000000  0.0000000  0.0000000 )
                  (  0.0000000  0.0000000 -1.0000000 )


      isym =  7      90 deg rotation - cart. axis [0,0,-1]       

 cryst.   s( 7) = (     0         -1          0      )
                  (     1          0          0      )
                  (     0          0          1      )

 cart.    s( 7) = (  0.0000000  1.0000000  0.0000000 )
                  ( -1.0000000  0.0000000  0.0000000 )
                  (  0.0000000  0.0000000  1.0000000 )


      isym =  8      90 deg rotation - cart. axis [0,0,1]        

 cryst.   s( 8) = (     0          1          0      )
                  (    -1          0          0      )
                  (     0          0          1      )

 cart.    s( 8) = (  0.0000000 -1.0000000  0.0000000 )
                  (  1.0000000  0.0000000  0.0000000 )
                  (  0.0000000  0.0000000  1.0000000 )


      isym =  9     180 deg rotation - cart. axis [1,0,1]        

 cryst.   s( 9) = (     0          0          1      )
                  (     0         -1          0      )
                  (     1          0          0      )

 cart.    s( 9) = (  0.0000000  0.0000000  1.0000000 )
                  (  0.0000000 -1.0000000  0.0000000 )
                  (  1.0000000  0.0000000  0.0000000 )


      isym = 10     180 deg rotation - cart. axis [-1,0,1]       

 cryst.   s(10) = (     0          0         -1      )
                  (     0         -1          0      )
                  (    -1          0          0      )

 cart.    s(10) = (  0.0000000  0.0000000 -1.0000000 )
                  (  0.0000000 -1.0000000  0.0000000 )
                  ( -1.0000000  0.0000000  0.0000000 )


      isym = 11      90 deg rotation - cart. axis [0,1,0]        

 cryst.   s(11) = (     0          0         -1      )
                  (     0          1          0      )
                  (     1          0          0      )

 cart.    s(11) = (  0.0000000  0.0000000  1.0000000 )
                  (  0.0000000  1.0000000  0.0000000 )
                  ( -1.0000000  0.0000000  0.0000000 )


      isym = 12      90 deg rotation - cart. axis [0,-1,0]       

 cryst.   s(12) = (     0          0          1      )
                  (     0          1          0      )
                  (    -1          0          0      )

 cart.    s(12) = (  0.0000000  0.0000000 -1.0000000 )
                  (  0.0000000  1.0000000  0.0000000 )
                  (  1.0000000  0.0000000  0.0000000 )


      isym = 13     180 deg rotation - cart. axis [0,1,1]        

 cryst.   s(13) = (    -1          0          0      )
                  (     0          0          1      )
                  (     0          1          0      )

 cart.    s(13) = ( -1.0000000  0.0000000  0.0000000 )
                  (  0.0000000  0.0000000  1.0000000 )
                  (  0.0000000  1.0000000  0.0000000 )


      isym = 14     180 deg rotation - cart. axis [0,1,-1]       

 cryst.   s(14) = (    -1          0          0      )
                  (     0          0         -1      )
                  (     0         -1          0      )

 cart.    s(14) = ( -1.0000000  0.0000000  0.0000000 )
                  (  0.0000000  0.0000000 -1.0000000 )
                  (  0.0000000 -1.0000000  0.0000000 )


      isym = 15      90 deg rotation - cart. axis [-1,0,0]       

 cryst.   s(15) = (     1          0          0      )
                  (     0          0         -1      )
                  (     0          1          0      )

 cart.    s(15) = (  1.0000000  0.0000000  0.0000000 )
                  (  0.0000000  0.0000000  1.0000000 )
                  (  0.0000000 -1.0000000  0.0000000 )


      isym = 16      90 deg rotation - cart. axis [1,0,0]        

 cryst.   s(16) = (     1          0          0      )
                  (     0          0          1      )
                  (     0         -1          0      )

 cart.    s(16) = (  1.0000000  0.0000000  0.0000000 )
                  (  0.0000000  0.0000000 -1.0000000 )
                  (  0.0000000  1.0000000  0.0000000 )


      isym = 17     120 deg rotation - cart. axis [-1,-1,-1]     

 cryst.   s(17) = (     0          0          1      )
                  (     1          0          0      )
                  (     0          1          0      )

 cart.    s(17) = (  0.0000000  1.0000000  0.0000000 )
                  (  0.0000000  0.0000000  1.0000000 )
                  (  1.0000000  0.0000000  0.0000000 )


      isym = 18     120 deg rotation - cart. axis [-1,1,1]       

 cryst.   s(18) = (     0          0         -1      )
                  (    -1          0          0      )
                  (     0          1          0      )

 cart.    s(18) = (  0.0000000 -1.0000000  0.0000000 )
                  (  0.0000000  0.0000000  1.0000000 )
                  ( -1.0000000  0.0000000  0.0000000 )


      isym = 19     120 deg rotation - cart. axis [1,1,-1]       

 cryst.   s(19) = (     0          0         -1      )
                  (     1          0          0      )
                  (     0         -1          0      )

 cart.    s(19) = (  0.0000000  1.0000000  0.0000000 )
                  (  0.0000000  0.0000000 -1.0000000 )
                  ( -1.0000000  0.0000000  0.0000000 )


      isym = 20     120 deg rotation - cart. axis [1,-1,1]       

 cryst.   s(20) = (     0          0          1      )
                  (    -1          0          0      )
                  (     0         -1          0      )

 cart.    s(20) = (  0.0000000 -1.0000000  0.0000000 )
                  (  0.0000000  0.0000000 -1.0000000 )
                  (  1.0000000  0.0000000  0.0000000 )


      isym = 21     120 deg rotation - cart. axis [1,1,1]        

 cryst.   s(21) = (     0          1          0      )
                  (     0          0          1      )
                  (     1          0          0      )

 cart.    s(21) = (  0.0000000  0.0000000  1.0000000 )
                  (  1.0000000  0.0000000  0.0000000 )
                  (  0.0000000  1.0000000  0.0000000 )


      isym = 22     120 deg rotation - cart. axis [-1,1,-1]      

 cryst.   s(22) = (     0         -1          0      )
                  (     0          0         -1      )
                  (     1          0          0      )

 cart.    s(22) = (  0.0000000  0.0000000  1.0000000 )
                  ( -1.0000000  0.0000000  0.0000000 )
                  (  0.0000000 -1.0000000  0.0000000 )


      isym = 23     120 deg rotation - cart. axis [1,-1,-1]      

 cryst.   s(23) = (     0         -1          0      )
                  (     0          0          1      )
                  (    -1          0          0      )

 cart.    s(23) = (  0.0000000  0.0000000 -1.0000000 )
                  ( -1.0000000  0.0000000  0.0000000 )
                  (  0.0000000  1.0000000  0.0000000 )


      isym = 24     120 deg rotation - cart. axis [-1,-1,1]      

 cryst.   s(24) = (     0          1          0      )
                  (     0          0         -1      )
                  (    -1          0          0      )

 cart.    s(24) = (  0.0000000  0.0000000 -1.0000000 )
                  (  1.0000000  0.0000000  0.0000000 )
                  (  0.0000000 -1.0000000  0.0000000 )


      isym = 25     inversion                                    

 cryst.   s(25) = (    -1          0          0      )
                  (     0         -1          0      )
                  (     0          0         -1      )

 cart.    s(25) = ( -1.0000000  0.0000000  0.0000000 )
                  (  0.0000000 -1.0000000  0.0000000 )
                  (  0.0000000  0.0000000 -1.0000000 )


      isym = 26     inv. 180 deg rotation - cart. axis [0,0,1]   

 cryst.   s(26) = (     1          0          0      )
                  (     0          1          0      )
                  (     0          0         -1      )

 cart.    s(26) = (  1.0000000  0.0000000  0.0000000 )
                  (  0.0000000  1.0000000  0.0000000 )
                  (  0.0000000  0.0000000 -1.0000000 )


      isym = 27     inv. 180 deg rotation - cart. axis [0,1,0]   

 cryst.   s(27) = (     1          0          0      )
                  (     0         -1          0      )
                  (     0          0          1      )

 cart.    s(27) = (  1.0000000  0.0000000  0.0000000 )
                  (  0.0000000 -1.0000000  0.0000000 )
                  (  0.0000000  0.0000000  1.0000000 )


      isym = 28     inv. 180 deg rotation - cart. axis [1,0,0]   

 cryst.   s(28) = (    -1          0          0      )
                  (     0          1          0      )
                  (     0          0          1      )

 cart.    s(28) = ( -1.0000000  0.0000000  0.0000000 )
                  (  0.0000000  1.0000000  0.0000000 )
                  (  0.0000000  0.0000000  1.0000000 )


      isym = 29     inv. 180 deg rotation - cart. axis [1,1,0]   

 cryst.   s(29) = (     0         -1          0      )
                  (    -1          0          0      )
                  (     0          0          1      )

 cart.    s(29) = (  0.0000000 -1.0000000  0.0000000 )
                  ( -1.0000000  0.0000000  0.0000000 )
                  (  0.0000000  0.0000000  1.0000000 )


      isym = 30     inv. 180 deg rotation - cart. axis [1,-1,0]  

 cryst.   s(30) = (     0          1          0      )
                  (     1          0          0      )
                  (     0          0          1      )

 cart.    s(30) = (  0.0000000  1.0000000  0.0000000 )
                  (  1.0000000  0.0000000  0.0000000 )
                  (  0.0000000  0.0000000  1.0000000 )


      isym = 31     inv.  90 deg rotation - cart. axis [0,0,-1]  

 cryst.   s(31) = (     0          1          0      )
                  (    -1          0          0      )
                  (     0          0         -1      )

 cart.    s(31) = (  0.0000000 -1.0000000  0.0000000 )
                  (  1.0000000  0.0000000  0.0000000 )
                  (  0.0000000  0.0000000 -1.0000000 )


      isym = 32     inv.  90 deg rotation - cart. axis [0,0,1]   

 cryst.   s(32) = (     0         -1          0      )
                  (     1          0          0      )
                  (     0          0         -1      )

 cart.    s(32) = (  0.0000000  1.0000000  0.0000000 )
                  ( -1.0000000  0.0000000  0.0000000 )
                  (  0.0000000  0.0000000 -1.0000000 )


      isym = 33     inv. 180 deg rotation - cart. axis [1,0,1]   

 cryst.   s(33) = (     0          0         -1      )
                  (     0          1          0      )
                  (    -1          0          0      )

 cart.    s(33) = (  0.0000000  0.0000000 -1.0000000 )
                  (  0.0000000  1.0000000  0.0000000 )
                  ( -1.0000000  0.0000000  0.0000000 )


      isym = 34     inv. 180 deg rotation - cart. axis [-1,0,1]  

 cryst.   s(34) = (     0          0          1      )
                  (     0          1          0      )
                  (     1          0          0      )

 cart.    s(34) = (  0.0000000  0.0000000  1.0000000 )
                  (  0.0000000  1.0000000  0.0000000 )
                  (  1.0000000  0.0000000  0.0000000 )


      isym = 35     inv.  90 deg rotation - cart. axis [0,1,0]   

 cryst.   s(35) = (     0          0          1      )
                  (     0         -1          0      )
                  (    -1          0          0      )

 cart.    s(35) = (  0.0000000  0.0000000 -1.0000000 )
                  (  0.0000000 -1.0000000  0.0000000 )
                  (  1.0000000  0.0000000  0.0000000 )


      isym = 36     inv.  90 deg rotation - cart. axis [0,-1,0]  

 cryst.   s(36) = (     0          0         -1      )
                  (     0         -1          0      )
                  (     1          0          0      )

 cart.    s(36) = (  0.0000000  0.0000000  1.0000000 )
                  (  0.0000000 -1.0000000  0.0000000 )
                  ( -1.0000000  0.0000000  0.0000000 )


      isym = 37     inv. 180 deg rotation - cart. axis [0,1,1]   

 cryst.   s(37) = (     1          0          0      )
                  (     0          0         -1      )
                  (     0         -1          0      )

 cart.    s(37) = (  1.0000000  0.0000000  0.0000000 )
                  (  0.0000000  0.0000000 -1.0000000 )
                  (  0.0000000 -1.0000000  0.0000000 )


      isym = 38     inv. 180 deg rotation - cart. axis [0,1,-1]  

 cryst.   s(38) = (     1          0          0      )
                  (     0          0          1      )
                  (     0          1          0      )

 cart.    s(38) = (  1.0000000  0.0000000  0.0000000 )
                  (  0.0000000  0.0000000  1.0000000 )
                  (  0.0000000  1.0000000  0.0000000 )


      isym = 39     inv.  90 deg rotation - cart. axis [-1,0,0]  

 cryst.   s(39) = (    -1          0          0      )
                  (     0          0          1      )
                  (     0         -1          0      )

 cart.    s(39) = ( -1.0000000  0.0000000  0.0000000 )
                  (  0.0000000  0.0000000 -1.0000000 )
                  (  0.0000000  1.0000000  0.0000000 )


      isym = 40     inv.  90 deg rotation - cart. axis [1,0,0]   

 cryst.   s(40) = (    -1          0          0      )
                  (     0          0         -1      )
                  (     0          1          0      )

 cart.    s(40) = ( -1.0000000  0.0000000  0.0000000 )
                  (  0.0000000  0.0000000  1.0000000 )
                  (  0.0000000 -1.0000000  0.0000000 )


      isym = 41     inv. 120 deg rotation - cart. axis [-1,-1,-1]

 cryst.   s(41) = (     0          0         -1      )
                  (    -1          0          0      )
                  (     0         -1          0      )

 cart.    s(41) = (  0.0000000 -1.0000000  0.0000000 )
                  (  0.0000000  0.0000000 -1.0000000 )
                  ( -1.0000000  0.0000000  0.0000000 )


      isym = 42     inv. 120 deg rotation - cart. axis [-1,1,1]  

 cryst.   s(42) = (     0          0          1      )
                  (     1          0          0      )
                  (     0         -1          0      )

 cart.    s(42) = (  0.0000000  1.0000000  0.0000000 )
                  (  0.0000000  0.0000000 -1.0000000 )
                  (  1.0000000  0.0000000  0.0000000 )


      isym = 43     inv. 120 deg rotation - cart. axis [1,1,-1]  

 cryst.   s(43) = (     0          0          1      )
                  (    -1          0          0      )
                  (     0          1          0      )

 cart.    s(43) = (  0.0000000 -1.0000000  0.0000000 )
                  (  0.0000000  0.0000000  1.0000000 )
                  (  1.0000000  0.0000000  0.0000000 )


      isym = 44     inv. 120 deg rotation - cart. axis [1,-1,1]  

 cryst.   s(44) = (     0          0         -1      )
                  (     1          0          0      )
                  (     0          1          0      )

 cart.    s(44) = (  0.0000000  1.0000000  0.0000000 )
                  (  0.0000000  0.0000000  1.0000000 )
                  ( -1.0000000  0.0000000  0.0000000 )


      isym = 45     inv. 120 deg rotation - cart. axis [1,1,1]   

 cryst.   s(45) = (     0         -1          0      )
                  (     0          0         -1      )
                  (    -1          0          0      )

 cart.    s(45) = (  0.0000000  0.0000000 -1.0000000 )
                  ( -1.0000000  0.0000000  0.0000000 )
                  (  0.0000000 -1.0000000  0.0000000 )


      isym = 46     inv. 120 deg rotation - cart. axis [-1,1,-1] 

 cryst.   s(46) = (     0          1          0      )
                  (     0          0          1      )
                  (    -1          0          0      )

 cart.    s(46) = (  0.0000000  0.0000000 -1.0000000 )
                  (  1.0000000  0.0000000  0.0000000 )
                  (  0.0000000  1.0000000  0.0000000 )


      isym = 47     inv. 120 deg rotation - cart. axis [1,-1,-1] 

 cryst.   s(47) = (     0          1          0      )
                  (     0          0         -1      )
                  (     1          0          0      )

 cart.    s(47) = (  0.0000000  0.0000000  1.0000000 )
                  (  1.0000000  0.0000000  0.0000000 )
                  (  0.0000000 -1.0000000  0.0000000 )


      isym = 48     inv. 120 deg rotation - cart. axis [-1,-1,1] 

 cryst.   s(48) = (     0         -1          0      )
                  (     0          0          1      )
                  (     1          0          0      )

 cart.    s(48) = (  0.0000000  0.0000000  1.0000000 )
                  ( -1.0000000  0.0000000  0.0000000 )
                  (  0.0000000  1.0000000  0.0000000 )


   Cartesian axes

     site n.     atom                  positions (alat units)
         1           O   tau(   1) = (   0.5000000   0.0000000   0.5000000  )
         2           O   tau(   2) = (   0.5000000   0.5000000   0.0000000  )
         3           O   tau(   3) = (   0.0000000   0.5000000   0.5000000  )
         4           Ti  tau(   4) = (   0.5000000   0.5000000   0.5000000  )
         5           Sr  tau(   5) = (   0.0000000   0.0000000   0.0000000  )

   Crystallographic axes

     site n.     atom                  positions (cryst. coord.)
         1           O   tau(   1) = (  0.5000000  0.0000000  0.5000000  )
         2           O   tau(   2) = (  0.5000000  0.5000000  0.0000000  )
         3           O   tau(   3) = (  0.0000000  0.5000000  0.5000000  )
         4           Ti  tau(   4) = (  0.5000000  0.5000000  0.5000000  )
         5           Sr  tau(   5) = (  0.0000000  0.0000000  0.0000000  )

     number of k points=   364  Marzari-Vanderbilt smearing, width (Ry)=  0.0010
                       cart. coord. in units 2pi/alat
        k(    1) = (   0.0000000   0.0000000   0.0000000), wk =   0.0001878
        k(    2) = (   0.0000000   0.0000000   0.0454545), wk =   0.0011270
        k(    3) = (   0.0000000   0.0000000   0.0909091), wk =   0.0011270
        k(    4) = (   0.0000000   0.0000000   0.1363636), wk =   0.0011270
        k(    5) = (   0.0000000   0.0000000   0.1818182), wk =   0.0011270
        k(    6) = (   0.0000000   0.0000000   0.2272727), wk =   0.0011270
        k(    7) = (   0.0000000   0.0000000   0.2727273), wk =   0.0011270
        k(    8) = (   0.0000000   0.0000000   0.3181818), wk =   0.0011270
        k(    9) = (   0.0000000   0.0000000   0.3636364), wk =   0.0011270
        k(   10) = (   0.0000000   0.0000000   0.4090909), wk =   0.0011270
        k(   11) = (   0.0000000   0.0000000   0.4545455), wk =   0.0011270
        k(   12) = (   0.0000000   0.0000000  -0.5000000), wk =   0.0005635
        k(   13) = (   0.0000000   0.0454545   0.0454545), wk =   0.0022539
        k(   14) = (   0.0000000   0.0454545   0.0909091), wk =   0.0045079
        k(   15) = (   0.0000000   0.0454545   0.1363636), wk =   0.0045079
        k(   16) = (   0.0000000   0.0454545   0.1818182), wk =   0.0045079
        k(   17) = (   0.0000000   0.0454545   0.2272727), wk =   0.0045079
        k(   18) = (   0.0000000   0.0454545   0.2727273), wk =   0.0045079
        k(   19) = (   0.0000000   0.0454545   0.3181818), wk =   0.0045079
        k(   20) = (   0.0000000   0.0454545   0.3636364), wk =   0.0045079
        k(   21) = (   0.0000000   0.0454545   0.4090909), wk =   0.0045079
        k(   22) = (   0.0000000   0.0454545   0.4545455), wk =   0.0045079
        k(   23) = (   0.0000000   0.0454545  -0.5000000), wk =   0.0022539
        k(   24) = (   0.0000000   0.0909091   0.0909091), wk =   0.0022539
        k(   25) = (   0.0000000   0.0909091   0.1363636), wk =   0.0045079
        k(   26) = (   0.0000000   0.0909091   0.1818182), wk =   0.0045079
        k(   27) = (   0.0000000   0.0909091   0.2272727), wk =   0.0045079
        k(   28) = (   0.0000000   0.0909091   0.2727273), wk =   0.0045079
        k(   29) = (   0.0000000   0.0909091   0.3181818), wk =   0.0045079
        k(   30) = (   0.0000000   0.0909091   0.3636364), wk =   0.0045079
        k(   31) = (   0.0000000   0.0909091   0.4090909), wk =   0.0045079
        k(   32) = (   0.0000000   0.0909091   0.4545455), wk =   0.0045079
        k(   33) = (   0.0000000   0.0909091  -0.5000000), wk =   0.0022539
        k(   34) = (   0.0000000   0.1363636   0.1363636), wk =   0.0022539
        k(   35) = (   0.0000000   0.1363636   0.1818182), wk =   0.0045079
        k(   36) = (   0.0000000   0.1363636   0.2272727), wk =   0.0045079
        k(   37) = (   0.0000000   0.1363636   0.2727273), wk =   0.0045079
        k(   38) = (   0.0000000   0.1363636   0.3181818), wk =   0.0045079
        k(   39) = (   0.0000000   0.1363636   0.3636364), wk =   0.0045079
        k(   40) = (   0.0000000   0.1363636   0.4090909), wk =   0.0045079
        k(   41) = (   0.0000000   0.1363636   0.4545455), wk =   0.0045079
        k(   42) = (   0.0000000   0.1363636  -0.5000000), wk =   0.0022539
        k(   43) = (   0.0000000   0.1818182   0.1818182), wk =   0.0022539
        k(   44) = (   0.0000000   0.1818182   0.2272727), wk =   0.0045079
        k(   45) = (   0.0000000   0.1818182   0.2727273), wk =   0.0045079
        k(   46) = (   0.0000000   0.1818182   0.3181818), wk =   0.0045079
        k(   47) = (   0.0000000   0.1818182   0.3636364), wk =   0.0045079
        k(   48) = (   0.0000000   0.1818182   0.4090909), wk =   0.0045079
        k(   49) = (   0.0000000   0.1818182   0.4545455), wk =   0.0045079
        k(   50) = (   0.0000000   0.1818182  -0.5000000), wk =   0.0022539
        k(   51) = (   0.0000000   0.2272727   0.2272727), wk =   0.0022539
        k(   52) = (   0.0000000   0.2272727   0.2727273), wk =   0.0045079
        k(   53) = (   0.0000000   0.2272727   0.3181818), wk =   0.0045079
        k(   54) = (   0.0000000   0.2272727   0.3636364), wk =   0.0045079
        k(   55) = (   0.0000000   0.2272727   0.4090909), wk =   0.0045079
        k(   56) = (   0.0000000   0.2272727   0.4545455), wk =   0.0045079
        k(   57) = (   0.0000000   0.2272727  -0.5000000), wk =   0.0022539
        k(   58) = (   0.0000000   0.2727273   0.2727273), wk =   0.0022539
        k(   59) = (   0.0000000   0.2727273   0.3181818), wk =   0.0045079
        k(   60) = (   0.0000000   0.2727273   0.3636364), wk =   0.0045079
        k(   61) = (   0.0000000   0.2727273   0.4090909), wk =   0.0045079
        k(   62) = (   0.0000000   0.2727273   0.4545455), wk =   0.0045079
        k(   63) = (   0.0000000   0.2727273  -0.5000000), wk =   0.0022539
        k(   64) = (   0.0000000   0.3181818   0.3181818), wk =   0.0022539
        k(   65) = (   0.0000000   0.3181818   0.3636364), wk =   0.0045079
        k(   66) = (   0.0000000   0.3181818   0.4090909), wk =   0.0045079
        k(   67) = (   0.0000000   0.3181818   0.4545455), wk =   0.0045079
        k(   68) = (   0.0000000   0.3181818  -0.5000000), wk =   0.0022539
        k(   69) = (   0.0000000   0.3636364   0.3636364), wk =   0.0022539
        k(   70) = (   0.0000000   0.3636364   0.4090909), wk =   0.0045079
        k(   71) = (   0.0000000   0.3636364   0.4545455), wk =   0.0045079
        k(   72) = (   0.0000000   0.3636364  -0.5000000), wk =   0.0022539
        k(   73) = (   0.0000000   0.4090909   0.4090909), wk =   0.0022539
        k(   74) = (   0.0000000   0.4090909   0.4545455), wk =   0.0045079
        k(   75) = (   0.0000000   0.4090909  -0.5000000), wk =   0.0022539
        k(   76) = (   0.0000000   0.4545455   0.4545455), wk =   0.0022539
        k(   77) = (   0.0000000   0.4545455  -0.5000000), wk =   0.0022539
        k(   78) = (   0.0000000  -0.5000000  -0.5000000), wk =   0.0005635
        k(   79) = (   0.0454545   0.0454545   0.0454545), wk =   0.0015026
        k(   80) = (   0.0454545   0.0454545   0.0909091), wk =   0.0045079
        k(   81) = (   0.0454545   0.0454545   0.1363636), wk =   0.0045079
        k(   82) = (   0.0454545   0.0454545   0.1818182), wk =   0.0045079
        k(   83) = (   0.0454545   0.0454545   0.2272727), wk =   0.0045079
        k(   84) = (   0.0454545   0.0454545   0.2727273), wk =   0.0045079
        k(   85) = (   0.0454545   0.0454545   0.3181818), wk =   0.0045079
        k(   86) = (   0.0454545   0.0454545   0.3636364), wk =   0.0045079
        k(   87) = (   0.0454545   0.0454545   0.4090909), wk =   0.0045079
        k(   88) = (   0.0454545   0.0454545   0.4545455), wk =   0.0045079
        k(   89) = (   0.0454545   0.0454545  -0.5000000), wk =   0.0022539
        k(   90) = (   0.0454545   0.0909091   0.0909091), wk =   0.0045079
        k(   91) = (   0.0454545   0.0909091   0.1363636), wk =   0.0090158
        k(   92) = (   0.0454545   0.0909091   0.1818182), wk =   0.0090158
        k(   93) = (   0.0454545   0.0909091   0.2272727), wk =   0.0090158
        k(   94) = (   0.0454545   0.0909091   0.2727273), wk =   0.0090158
        k(   95) = (   0.0454545   0.0909091   0.3181818), wk =   0.0090158
        k(   96) = (   0.0454545   0.0909091   0.3636364), wk =   0.0090158
        k(   97) = (   0.0454545   0.0909091   0.4090909), wk =   0.0090158
        k(   98) = (   0.0454545   0.0909091   0.4545455), wk =   0.0090158
        k(   99) = (   0.0454545   0.0909091  -0.5000000), wk =   0.0045079
        k(  100) = (   0.0454545   0.1363636   0.1363636), wk =   0.0045079
        k(  101) = (   0.0454545   0.1363636   0.1818182), wk =   0.0090158
        k(  102) = (   0.0454545   0.1363636   0.2272727), wk =   0.0090158
        k(  103) = (   0.0454545   0.1363636   0.2727273), wk =   0.0090158
        k(  104) = (   0.0454545   0.1363636   0.3181818), wk =   0.0090158
        k(  105) = (   0.0454545   0.1363636   0.3636364), wk =   0.0090158
        k(  106) = (   0.0454545   0.1363636   0.4090909), wk =   0.0090158
        k(  107) = (   0.0454545   0.1363636   0.4545455), wk =   0.0090158
        k(  108) = (   0.0454545   0.1363636  -0.5000000), wk =   0.0045079
        k(  109) = (   0.0454545   0.1818182   0.1818182), wk =   0.0045079
        k(  110) = (   0.0454545   0.1818182   0.2272727), wk =   0.0090158
        k(  111) = (   0.0454545   0.1818182   0.2727273), wk =   0.0090158
        k(  112) = (   0.0454545   0.1818182   0.3181818), wk =   0.0090158
        k(  113) = (   0.0454545   0.1818182   0.3636364), wk =   0.0090158
        k(  114) = (   0.0454545   0.1818182   0.4090909), wk =   0.0090158
        k(  115) = (   0.0454545   0.1818182   0.4545455), wk =   0.0090158
        k(  116) = (   0.0454545   0.1818182  -0.5000000), wk =   0.0045079
        k(  117) = (   0.0454545   0.2272727   0.2272727), wk =   0.0045079
        k(  118) = (   0.0454545   0.2272727   0.2727273), wk =   0.0090158
        k(  119) = (   0.0454545   0.2272727   0.3181818), wk =   0.0090158
        k(  120) = (   0.0454545   0.2272727   0.3636364), wk =   0.0090158
        k(  121) = (   0.0454545   0.2272727   0.4090909), wk =   0.0090158
        k(  122) = (   0.0454545   0.2272727   0.4545455), wk =   0.0090158
        k(  123) = (   0.0454545   0.2272727  -0.5000000), wk =   0.0045079
        k(  124) = (   0.0454545   0.2727273   0.2727273), wk =   0.0045079
        k(  125) = (   0.0454545   0.2727273   0.3181818), wk =   0.0090158
        k(  126) = (   0.0454545   0.2727273   0.3636364), wk =   0.0090158
        k(  127) = (   0.0454545   0.2727273   0.4090909), wk =   0.0090158
        k(  128) = (   0.0454545   0.2727273   0.4545455), wk =   0.0090158
        k(  129) = (   0.0454545   0.2727273  -0.5000000), wk =   0.0045079
        k(  130) = (   0.0454545   0.3181818   0.3181818), wk =   0.0045079
        k(  131) = (   0.0454545   0.3181818   0.3636364), wk =   0.0090158
        k(  132) = (   0.0454545   0.3181818   0.4090909), wk =   0.0090158
        k(  133) = (   0.0454545   0.3181818   0.4545455), wk =   0.0090158
        k(  134) = (   0.0454545   0.3181818  -0.5000000), wk =   0.0045079
        k(  135) = (   0.0454545   0.3636364   0.3636364), wk =   0.0045079
        k(  136) = (   0.0454545   0.3636364   0.4090909), wk =   0.0090158
        k(  137) = (   0.0454545   0.3636364   0.4545455), wk =   0.0090158
        k(  138) = (   0.0454545   0.3636364  -0.5000000), wk =   0.0045079
        k(  139) = (   0.0454545   0.4090909   0.4090909), wk =   0.0045079
        k(  140) = (   0.0454545   0.4090909   0.4545455), wk =   0.0090158
        k(  141) = (   0.0454545   0.4090909  -0.5000000), wk =   0.0045079
        k(  142) = (   0.0454545   0.4545455   0.4545455), wk =   0.0045079
        k(  143) = (   0.0454545   0.4545455  -0.5000000), wk =   0.0045079
        k(  144) = (   0.0454545  -0.5000000  -0.5000000), wk =   0.0011270
        k(  145) = (   0.0909091   0.0909091   0.0909091), wk =   0.0015026
        k(  146) = (   0.0909091   0.0909091   0.1363636), wk =   0.0045079
        k(  147) = (   0.0909091   0.0909091   0.1818182), wk =   0.0045079
        k(  148) = (   0.0909091   0.0909091   0.2272727), wk =   0.0045079
        k(  149) = (   0.0909091   0.0909091   0.2727273), wk =   0.0045079
        k(  150) = (   0.0909091   0.0909091   0.3181818), wk =   0.0045079
        k(  151) = (   0.0909091   0.0909091   0.3636364), wk =   0.0045079
        k(  152) = (   0.0909091   0.0909091   0.4090909), wk =   0.0045079
        k(  153) = (   0.0909091   0.0909091   0.4545455), wk =   0.0045079
        k(  154) = (   0.0909091   0.0909091  -0.5000000), wk =   0.0022539
        k(  155) = (   0.0909091   0.1363636   0.1363636), wk =   0.0045079
        k(  156) = (   0.0909091   0.1363636   0.1818182), wk =   0.0090158
        k(  157) = (   0.0909091   0.1363636   0.2272727), wk =   0.0090158
        k(  158) = (   0.0909091   0.1363636   0.2727273), wk =   0.0090158
        k(  159) = (   0.0909091   0.1363636   0.3181818), wk =   0.0090158
        k(  160) = (   0.0909091   0.1363636   0.3636364), wk =   0.0090158
        k(  161) = (   0.0909091   0.1363636   0.4090909), wk =   0.0090158
        k(  162) = (   0.0909091   0.1363636   0.4545455), wk =   0.0090158
        k(  163) = (   0.0909091   0.1363636  -0.5000000), wk =   0.0045079
        k(  164) = (   0.0909091   0.1818182   0.1818182), wk =   0.0045079
        k(  165) = (   0.0909091   0.1818182   0.2272727), wk =   0.0090158
        k(  166) = (   0.0909091   0.1818182   0.2727273), wk =   0.0090158
        k(  167) = (   0.0909091   0.1818182   0.3181818), wk =   0.0090158
        k(  168) = (   0.0909091   0.1818182   0.3636364), wk =   0.0090158
        k(  169) = (   0.0909091   0.1818182   0.4090909), wk =   0.0090158
        k(  170) = (   0.0909091   0.1818182   0.4545455), wk =   0.0090158
        k(  171) = (   0.0909091   0.1818182  -0.5000000), wk =   0.0045079
        k(  172) = (   0.0909091   0.2272727   0.2272727), wk =   0.0045079
        k(  173) = (   0.0909091   0.2272727   0.2727273), wk =   0.0090158
        k(  174) = (   0.0909091   0.2272727   0.3181818), wk =   0.0090158
        k(  175) = (   0.0909091   0.2272727   0.3636364), wk =   0.0090158
        k(  176) = (   0.0909091   0.2272727   0.4090909), wk =   0.0090158
        k(  177) = (   0.0909091   0.2272727   0.4545455), wk =   0.0090158
        k(  178) = (   0.0909091   0.2272727  -0.5000000), wk =   0.0045079
        k(  179) = (   0.0909091   0.2727273   0.2727273), wk =   0.0045079
        k(  180) = (   0.0909091   0.2727273   0.3181818), wk =   0.0090158
        k(  181) = (   0.0909091   0.2727273   0.3636364), wk =   0.0090158
        k(  182) = (   0.0909091   0.2727273   0.4090909), wk =   0.0090158
        k(  183) = (   0.0909091   0.2727273   0.4545455), wk =   0.0090158
        k(  184) = (   0.0909091   0.2727273  -0.5000000), wk =   0.0045079
        k(  185) = (   0.0909091   0.3181818   0.3181818), wk =   0.0045079
        k(  186) = (   0.0909091   0.3181818   0.3636364), wk =   0.0090158
        k(  187) = (   0.0909091   0.3181818   0.4090909), wk =   0.0090158
        k(  188) = (   0.0909091   0.3181818   0.4545455), wk =   0.0090158
        k(  189) = (   0.0909091   0.3181818  -0.5000000), wk =   0.0045079
        k(  190) = (   0.0909091   0.3636364   0.3636364), wk =   0.0045079
        k(  191) = (   0.0909091   0.3636364   0.4090909), wk =   0.0090158
        k(  192) = (   0.0909091   0.3636364   0.4545455), wk =   0.0090158
        k(  193) = (   0.0909091   0.3636364  -0.5000000), wk =   0.0045079
        k(  194) = (   0.0909091   0.4090909   0.4090909), wk =   0.0045079
        k(  195) = (   0.0909091   0.4090909   0.4545455), wk =   0.0090158
        k(  196) = (   0.0909091   0.4090909  -0.5000000), wk =   0.0045079
        k(  197) = (   0.0909091   0.4545455   0.4545455), wk =   0.0045079
        k(  198) = (   0.0909091   0.4545455  -0.5000000), wk =   0.0045079
        k(  199) = (   0.0909091  -0.5000000  -0.5000000), wk =   0.0011270
        k(  200) = (   0.1363636   0.1363636   0.1363636), wk =   0.0015026
        k(  201) = (   0.1363636   0.1363636   0.1818182), wk =   0.0045079
        k(  202) = (   0.1363636   0.1363636   0.2272727), wk =   0.0045079
        k(  203) = (   0.1363636   0.1363636   0.2727273), wk =   0.0045079
        k(  204) = (   0.1363636   0.1363636   0.3181818), wk =   0.0045079
        k(  205) = (   0.1363636   0.1363636   0.3636364), wk =   0.0045079
        k(  206) = (   0.1363636   0.1363636   0.4090909), wk =   0.0045079
        k(  207) = (   0.1363636   0.1363636   0.4545455), wk =   0.0045079
        k(  208) = (   0.1363636   0.1363636  -0.5000000), wk =   0.0022539
        k(  209) = (   0.1363636   0.1818182   0.1818182), wk =   0.0045079
        k(  210) = (   0.1363636   0.1818182   0.2272727), wk =   0.0090158
        k(  211) = (   0.1363636   0.1818182   0.2727273), wk =   0.0090158
        k(  212) = (   0.1363636   0.1818182   0.3181818), wk =   0.0090158
        k(  213) = (   0.1363636   0.1818182   0.3636364), wk =   0.0090158
        k(  214) = (   0.1363636   0.1818182   0.4090909), wk =   0.0090158
        k(  215) = (   0.1363636   0.1818182   0.4545455), wk =   0.0090158
        k(  216) = (   0.1363636   0.1818182  -0.5000000), wk =   0.0045079
        k(  217) = (   0.1363636   0.2272727   0.2272727), wk =   0.0045079
        k(  218) = (   0.1363636   0.2272727   0.2727273), wk =   0.0090158
        k(  219) = (   0.1363636   0.2272727   0.3181818), wk =   0.0090158
        k(  220) = (   0.1363636   0.2272727   0.3636364), wk =   0.0090158
        k(  221) = (   0.1363636   0.2272727   0.4090909), wk =   0.0090158
        k(  222) = (   0.1363636   0.2272727   0.4545455), wk =   0.0090158
        k(  223) = (   0.1363636   0.2272727  -0.5000000), wk =   0.0045079
        k(  224) = (   0.1363636   0.2727273   0.2727273), wk =   0.0045079
        k(  225) = (   0.1363636   0.2727273   0.3181818), wk =   0.0090158
        k(  226) = (   0.1363636   0.2727273   0.3636364), wk =   0.0090158
        k(  227) = (   0.1363636   0.2727273   0.4090909), wk =   0.0090158
        k(  228) = (   0.1363636   0.2727273   0.4545455), wk =   0.0090158
        k(  229) = (   0.1363636   0.2727273  -0.5000000), wk =   0.0045079
        k(  230) = (   0.1363636   0.3181818   0.3181818), wk =   0.0045079
        k(  231) = (   0.1363636   0.3181818   0.3636364), wk =   0.0090158
        k(  232) = (   0.1363636   0.3181818   0.4090909), wk =   0.0090158
        k(  233) = (   0.1363636   0.3181818   0.4545455), wk =   0.0090158
        k(  234) = (   0.1363636   0.3181818  -0.5000000), wk =   0.0045079
        k(  235) = (   0.1363636   0.3636364   0.3636364), wk =   0.0045079
        k(  236) = (   0.1363636   0.3636364   0.4090909), wk =   0.0090158
        k(  237) = (   0.1363636   0.3636364   0.4545455), wk =   0.0090158
        k(  238) = (   0.1363636   0.3636364  -0.5000000), wk =   0.0045079
        k(  239) = (   0.1363636   0.4090909   0.4090909), wk =   0.0045079
        k(  240) = (   0.1363636   0.4090909   0.4545455), wk =   0.0090158
        k(  241) = (   0.1363636   0.4090909  -0.5000000), wk =   0.0045079
        k(  242) = (   0.1363636   0.4545455   0.4545455), wk =   0.0045079
        k(  243) = (   0.1363636   0.4545455  -0.5000000), wk =   0.0045079
        k(  244) = (   0.1363636  -0.5000000  -0.5000000), wk =   0.0011270
        k(  245) = (   0.1818182   0.1818182   0.1818182), wk =   0.0015026
        k(  246) = (   0.1818182   0.1818182   0.2272727), wk =   0.0045079
        k(  247) = (   0.1818182   0.1818182   0.2727273), wk =   0.0045079
        k(  248) = (   0.1818182   0.1818182   0.3181818), wk =   0.0045079
        k(  249) = (   0.1818182   0.1818182   0.3636364), wk =   0.0045079
        k(  250) = (   0.1818182   0.1818182   0.4090909), wk =   0.0045079
        k(  251) = (   0.1818182   0.1818182   0.4545455), wk =   0.0045079
        k(  252) = (   0.1818182   0.1818182  -0.5000000), wk =   0.0022539
        k(  253) = (   0.1818182   0.2272727   0.2272727), wk =   0.0045079
        k(  254) = (   0.1818182   0.2272727   0.2727273), wk =   0.0090158
        k(  255) = (   0.1818182   0.2272727   0.3181818), wk =   0.0090158
        k(  256) = (   0.1818182   0.2272727   0.3636364), wk =   0.0090158
        k(  257) = (   0.1818182   0.2272727   0.4090909), wk =   0.0090158
        k(  258) = (   0.1818182   0.2272727   0.4545455), wk =   0.0090158
        k(  259) = (   0.1818182   0.2272727  -0.5000000), wk =   0.0045079
        k(  260) = (   0.1818182   0.2727273   0.2727273), wk =   0.0045079
        k(  261) = (   0.1818182   0.2727273   0.3181818), wk =   0.0090158
        k(  262) = (   0.1818182   0.2727273   0.3636364), wk =   0.0090158
        k(  263) = (   0.1818182   0.2727273   0.4090909), wk =   0.0090158
        k(  264) = (   0.1818182   0.2727273   0.4545455), wk =   0.0090158
        k(  265) = (   0.1818182   0.2727273  -0.5000000), wk =   0.0045079
        k(  266) = (   0.1818182   0.3181818   0.3181818), wk =   0.0045079
        k(  267) = (   0.1818182   0.3181818   0.3636364), wk =   0.0090158
        k(  268) = (   0.1818182   0.3181818   0.4090909), wk =   0.0090158
        k(  269) = (   0.1818182   0.3181818   0.4545455), wk =   0.0090158
        k(  270) = (   0.1818182   0.3181818  -0.5000000), wk =   0.0045079
        k(  271) = (   0.1818182   0.3636364   0.3636364), wk =   0.0045079
        k(  272) = (   0.1818182   0.3636364   0.4090909), wk =   0.0090158
        k(  273) = (   0.1818182   0.3636364   0.4545455), wk =   0.0090158
        k(  274) = (   0.1818182   0.3636364  -0.5000000), wk =   0.0045079
        k(  275) = (   0.1818182   0.4090909   0.4090909), wk =   0.0045079
        k(  276) = (   0.1818182   0.4090909   0.4545455), wk =   0.0090158
        k(  277) = (   0.1818182   0.4090909  -0.5000000), wk =   0.0045079
        k(  278) = (   0.1818182   0.4545455   0.4545455), wk =   0.0045079
        k(  279) = (   0.1818182   0.4545455  -0.5000000), wk =   0.0045079
        k(  280) = (   0.1818182  -0.5000000  -0.5000000), wk =   0.0011270
        k(  281) = (   0.2272727   0.2272727   0.2272727), wk =   0.0015026
        k(  282) = (   0.2272727   0.2272727   0.2727273), wk =   0.0045079
        k(  283) = (   0.2272727   0.2272727   0.3181818), wk =   0.0045079
        k(  284) = (   0.2272727   0.2272727   0.3636364), wk =   0.0045079
        k(  285) = (   0.2272727   0.2272727   0.4090909), wk =   0.0045079
        k(  286) = (   0.2272727   0.2272727   0.4545455), wk =   0.0045079
        k(  287) = (   0.2272727   0.2272727  -0.5000000), wk =   0.0022539
        k(  288) = (   0.2272727   0.2727273   0.2727273), wk =   0.0045079
        k(  289) = (   0.2272727   0.2727273   0.3181818), wk =   0.0090158
        k(  290) = (   0.2272727   0.2727273   0.3636364), wk =   0.0090158
        k(  291) = (   0.2272727   0.2727273   0.4090909), wk =   0.0090158
        k(  292) = (   0.2272727   0.2727273   0.4545455), wk =   0.0090158
        k(  293) = (   0.2272727   0.2727273  -0.5000000), wk =   0.0045079
        k(  294) = (   0.2272727   0.3181818   0.3181818), wk =   0.0045079
        k(  295) = (   0.2272727   0.3181818   0.3636364), wk =   0.0090158
        k(  296) = (   0.2272727   0.3181818   0.4090909), wk =   0.0090158
        k(  297) = (   0.2272727   0.3181818   0.4545455), wk =   0.0090158
        k(  298) = (   0.2272727   0.3181818  -0.5000000), wk =   0.0045079
        k(  299) = (   0.2272727   0.3636364   0.3636364), wk =   0.0045079
        k(  300) = (   0.2272727   0.3636364   0.4090909), wk =   0.0090158
        k(  301) = (   0.2272727   0.3636364   0.4545455), wk =   0.0090158
        k(  302) = (   0.2272727   0.3636364  -0.5000000), wk =   0.0045079
        k(  303) = (   0.2272727   0.4090909   0.4090909), wk =   0.0045079
        k(  304) = (   0.2272727   0.4090909   0.4545455), wk =   0.0090158
        k(  305) = (   0.2272727   0.4090909  -0.5000000), wk =   0.0045079
        k(  306) = (   0.2272727   0.4545455   0.4545455), wk =   0.0045079
        k(  307) = (   0.2272727   0.4545455  -0.5000000), wk =   0.0045079
        k(  308) = (   0.2272727  -0.5000000  -0.5000000), wk =   0.0011270
        k(  309) = (   0.2727273   0.2727273   0.2727273), wk =   0.0015026
        k(  310) = (   0.2727273   0.2727273   0.3181818), wk =   0.0045079
        k(  311) = (   0.2727273   0.2727273   0.3636364), wk =   0.0045079
        k(  312) = (   0.2727273   0.2727273   0.4090909), wk =   0.0045079
        k(  313) = (   0.2727273   0.2727273   0.4545455), wk =   0.0045079
        k(  314) = (   0.2727273   0.2727273  -0.5000000), wk =   0.0022539
        k(  315) = (   0.2727273   0.3181818   0.3181818), wk =   0.0045079
        k(  316) = (   0.2727273   0.3181818   0.3636364), wk =   0.0090158
        k(  317) = (   0.2727273   0.3181818   0.4090909), wk =   0.0090158
        k(  318) = (   0.2727273   0.3181818   0.4545455), wk =   0.0090158
        k(  319) = (   0.2727273   0.3181818  -0.5000000), wk =   0.0045079
        k(  320) = (   0.2727273   0.3636364   0.3636364), wk =   0.0045079
        k(  321) = (   0.2727273   0.3636364   0.4090909), wk =   0.0090158
        k(  322) = (   0.2727273   0.3636364   0.4545455), wk =   0.0090158
        k(  323) = (   0.2727273   0.3636364  -0.5000000), wk =   0.0045079
        k(  324) = (   0.2727273   0.4090909   0.4090909), wk =   0.0045079
        k(  325) = (   0.2727273   0.4090909   0.4545455), wk =   0.0090158
        k(  326) = (   0.2727273   0.4090909  -0.5000000), wk =   0.0045079
        k(  327) = (   0.2727273   0.4545455   0.4545455), wk =   0.0045079
        k(  328) = (   0.2727273   0.4545455  -0.5000000), wk =   0.0045079
        k(  329) = (   0.2727273  -0.5000000  -0.5000000), wk =   0.0011270
        k(  330) = (   0.3181818   0.3181818   0.3181818), wk =   0.0015026
        k(  331) = (   0.3181818   0.3181818   0.3636364), wk =   0.0045079
        k(  332) = (   0.3181818   0.3181818   0.4090909), wk =   0.0045079
        k(  333) = (   0.3181818   0.3181818   0.4545455), wk =   0.0045079
        k(  334) = (   0.3181818   0.3181818  -0.5000000), wk =   0.0022539
        k(  335) = (   0.3181818   0.3636364   0.3636364), wk =   0.0045079
        k(  336) = (   0.3181818   0.3636364   0.4090909), wk =   0.0090158
        k(  337) = (   0.3181818   0.3636364   0.4545455), wk =   0.0090158
        k(  338) = (   0.3181818   0.3636364  -0.5000000), wk =   0.0045079
        k(  339) = (   0.3181818   0.4090909   0.4090909), wk =   0.0045079
        k(  340) = (   0.3181818   0.4090909   0.4545455), wk =   0.0090158
        k(  341) = (   0.3181818   0.4090909  -0.5000000), wk =   0.0045079
        k(  342) = (   0.3181818   0.4545455   0.4545455), wk =   0.0045079
        k(  343) = (   0.3181818   0.4545455  -0.5000000), wk =   0.0045079
        k(  344) = (   0.3181818  -0.5000000  -0.5000000), wk =   0.0011270
        k(  345) = (   0.3636364   0.3636364   0.3636364), wk =   0.0015026
        k(  346) = (   0.3636364   0.3636364   0.4090909), wk =   0.0045079
        k(  347) = (   0.3636364   0.3636364   0.4545455), wk =   0.0045079
        k(  348) = (   0.3636364   0.3636364  -0.5000000), wk =   0.0022539
        k(  349) = (   0.3636364   0.4090909   0.4090909), wk =   0.0045079
        k(  350) = (   0.3636364   0.4090909   0.4545455), wk =   0.0090158
        k(  351) = (   0.3636364   0.4090909  -0.5000000), wk =   0.0045079
        k(  352) = (   0.3636364   0.4545455   0.4545455), wk =   0.0045079
        k(  353) = (   0.3636364   0.4545455  -0.5000000), wk =   0.0045079
        k(  354) = (   0.3636364  -0.5000000  -0.5000000), wk =   0.0011270
        k(  355) = (   0.4090909   0.4090909   0.4090909), wk =   0.0015026
        k(  356) = (   0.4090909   0.4090909   0.4545455), wk =   0.0045079
        k(  357) = (   0.4090909   0.4090909  -0.5000000), wk =   0.0022539
        k(  358) = (   0.4090909   0.4545455   0.4545455), wk =   0.0045079
        k(  359) = (   0.4090909   0.4545455  -0.5000000), wk =   0.0045079
        k(  360) = (   0.4090909  -0.5000000  -0.5000000), wk =   0.0011270
        k(  361) = (   0.4545455   0.4545455   0.4545455), wk =   0.0015026
        k(  362) = (   0.4545455   0.4545455  -0.5000000), wk =   0.0022539
        k(  363) = (   0.4545455  -0.5000000  -0.5000000), wk =   0.0011270
        k(  364) = (  -0.5000000  -0.5000000  -0.5000000), wk =   0.0001878

                       cryst. coord.
        k(    1) = (   0.0000000   0.0000000   0.0000000), wk =   0.0001878
        k(    2) = (   0.0000000   0.0000000   0.0454545), wk =   0.0011270
        k(    3) = (   0.0000000   0.0000000   0.0909091), wk =   0.0011270
        k(    4) = (   0.0000000   0.0000000   0.1363636), wk =   0.0011270
        k(    5) = (   0.0000000   0.0000000   0.1818182), wk =   0.0011270
        k(    6) = (   0.0000000   0.0000000   0.2272727), wk =   0.0011270
        k(    7) = (   0.0000000   0.0000000   0.2727273), wk =   0.0011270
        k(    8) = (   0.0000000   0.0000000   0.3181818), wk =   0.0011270
        k(    9) = (   0.0000000   0.0000000   0.3636364), wk =   0.0011270
        k(   10) = (   0.0000000   0.0000000   0.4090909), wk =   0.0011270
        k(   11) = (   0.0000000   0.0000000   0.4545455), wk =   0.0011270
        k(   12) = (   0.0000000   0.0000000  -0.5000000), wk =   0.0005635
        k(   13) = (   0.0000000   0.0454545   0.0454545), wk =   0.0022539
        k(   14) = (   0.0000000   0.0454545   0.0909091), wk =   0.0045079
        k(   15) = (   0.0000000   0.0454545   0.1363636), wk =   0.0045079
        k(   16) = (   0.0000000   0.0454545   0.1818182), wk =   0.0045079
        k(   17) = (   0.0000000   0.0454545   0.2272727), wk =   0.0045079
        k(   18) = (   0.0000000   0.0454545   0.2727273), wk =   0.0045079
        k(   19) = (   0.0000000   0.0454545   0.3181818), wk =   0.0045079
        k(   20) = (   0.0000000   0.0454545   0.3636364), wk =   0.0045079
        k(   21) = (   0.0000000   0.0454545   0.4090909), wk =   0.0045079
        k(   22) = (   0.0000000   0.0454545   0.4545455), wk =   0.0045079
        k(   23) = (   0.0000000   0.0454545  -0.5000000), wk =   0.0022539
        k(   24) = (   0.0000000   0.0909091   0.0909091), wk =   0.0022539
        k(   25) = (   0.0000000   0.0909091   0.1363636), wk =   0.0045079
        k(   26) = (   0.0000000   0.0909091   0.1818182), wk =   0.0045079
        k(   27) = (   0.0000000   0.0909091   0.2272727), wk =   0.0045079
        k(   28) = (   0.0000000   0.0909091   0.2727273), wk =   0.0045079
        k(   29) = (   0.0000000   0.0909091   0.3181818), wk =   0.0045079
        k(   30) = (   0.0000000   0.0909091   0.3636364), wk =   0.0045079
        k(   31) = (   0.0000000   0.0909091   0.4090909), wk =   0.0045079
        k(   32) = (   0.0000000   0.0909091   0.4545455), wk =   0.0045079
        k(   33) = (   0.0000000   0.0909091  -0.5000000), wk =   0.0022539
        k(   34) = (   0.0000000   0.1363636   0.1363636), wk =   0.0022539
        k(   35) = (   0.0000000   0.1363636   0.1818182), wk =   0.0045079
        k(   36) = (   0.0000000   0.1363636   0.2272727), wk =   0.0045079
        k(   37) = (   0.0000000   0.1363636   0.2727273), wk =   0.0045079
        k(   38) = (   0.0000000   0.1363636   0.3181818), wk =   0.0045079
        k(   39) = (   0.0000000   0.1363636   0.3636364), wk =   0.0045079
        k(   40) = (   0.0000000   0.1363636   0.4090909), wk =   0.0045079
        k(   41) = (   0.0000000   0.1363636   0.4545455), wk =   0.0045079
        k(   42) = (   0.0000000   0.1363636  -0.5000000), wk =   0.0022539
        k(   43) = (   0.0000000   0.1818182   0.1818182), wk =   0.0022539
        k(   44) = (   0.0000000   0.1818182   0.2272727), wk =   0.0045079
        k(   45) = (   0.0000000   0.1818182   0.2727273), wk =   0.0045079
        k(   46) = (   0.0000000   0.1818182   0.3181818), wk =   0.0045079
        k(   47) = (   0.0000000   0.1818182   0.3636364), wk =   0.0045079
        k(   48) = (   0.0000000   0.1818182   0.4090909), wk =   0.0045079
        k(   49) = (   0.0000000   0.1818182   0.4545455), wk =   0.0045079
        k(   50) = (   0.0000000   0.1818182  -0.5000000), wk =   0.0022539
        k(   51) = (   0.0000000   0.2272727   0.2272727), wk =   0.0022539
        k(   52) = (   0.0000000   0.2272727   0.2727273), wk =   0.0045079
        k(   53) = (   0.0000000   0.2272727   0.3181818), wk =   0.0045079
        k(   54) = (   0.0000000   0.2272727   0.3636364), wk =   0.0045079
        k(   55) = (   0.0000000   0.2272727   0.4090909), wk =   0.0045079
        k(   56) = (   0.0000000   0.2272727   0.4545455), wk =   0.0045079
        k(   57) = (   0.0000000   0.2272727  -0.5000000), wk =   0.0022539
        k(   58) = (   0.0000000   0.2727273   0.2727273), wk =   0.0022539
        k(   59) = (   0.0000000   0.2727273   0.3181818), wk =   0.0045079
        k(   60) = (   0.0000000   0.2727273   0.3636364), wk =   0.0045079
        k(   61) = (   0.0000000   0.2727273   0.4090909), wk =   0.0045079
        k(   62) = (   0.0000000   0.2727273   0.4545455), wk =   0.0045079
        k(   63) = (   0.0000000   0.2727273  -0.5000000), wk =   0.0022539
        k(   64) = (   0.0000000   0.3181818   0.3181818), wk =   0.0022539
        k(   65) = (   0.0000000   0.3181818   0.3636364), wk =   0.0045079
        k(   66) = (   0.0000000   0.3181818   0.4090909), wk =   0.0045079
        k(   67) = (   0.0000000   0.3181818   0.4545455), wk =   0.0045079
        k(   68) = (   0.0000000   0.3181818  -0.5000000), wk =   0.0022539
        k(   69) = (   0.0000000   0.3636364   0.3636364), wk =   0.0022539
        k(   70) = (   0.0000000   0.3636364   0.4090909), wk =   0.0045079
        k(   71) = (   0.0000000   0.3636364   0.4545455), wk =   0.0045079
        k(   72) = (   0.0000000   0.3636364  -0.5000000), wk =   0.0022539
        k(   73) = (   0.0000000   0.4090909   0.4090909), wk =   0.0022539
        k(   74) = (   0.0000000   0.4090909   0.4545455), wk =   0.0045079
        k(   75) = (   0.0000000   0.4090909  -0.5000000), wk =   0.0022539
        k(   76) = (   0.0000000   0.4545455   0.4545455), wk =   0.0022539
        k(   77) = (   0.0000000   0.4545455  -0.5000000), wk =   0.0022539
        k(   78) = (   0.0000000  -0.5000000  -0.5000000), wk =   0.0005635
        k(   79) = (   0.0454545   0.0454545   0.0454545), wk =   0.0015026
        k(   80) = (   0.0454545   0.0454545   0.0909091), wk =   0.0045079
        k(   81) = (   0.0454545   0.0454545   0.1363636), wk =   0.0045079
        k(   82) = (   0.0454545   0.0454545   0.1818182), wk =   0.0045079
        k(   83) = (   0.0454545   0.0454545   0.2272727), wk =   0.0045079
        k(   84) = (   0.0454545   0.0454545   0.2727273), wk =   0.0045079
        k(   85) = (   0.0454545   0.0454545   0.3181818), wk =   0.0045079
        k(   86) = (   0.0454545   0.0454545   0.3636364), wk =   0.0045079
        k(   87) = (   0.0454545   0.0454545   0.4090909), wk =   0.0045079
        k(   88) = (   0.0454545   0.0454545   0.4545455), wk =   0.0045079
        k(   89) = (   0.0454545   0.0454545  -0.5000000), wk =   0.0022539
        k(   90) = (   0.0454545   0.0909091   0.0909091), wk =   0.0045079
        k(   91) = (   0.0454545   0.0909091   0.1363636), wk =   0.0090158
        k(   92) = (   0.0454545   0.0909091   0.1818182), wk =   0.0090158
        k(   93) = (   0.0454545   0.0909091   0.2272727), wk =   0.0090158
        k(   94) = (   0.0454545   0.0909091   0.2727273), wk =   0.0090158
        k(   95) = (   0.0454545   0.0909091   0.3181818), wk =   0.0090158
        k(   96) = (   0.0454545   0.0909091   0.3636364), wk =   0.0090158
        k(   97) = (   0.0454545   0.0909091   0.4090909), wk =   0.0090158
        k(   98) = (   0.0454545   0.0909091   0.4545455), wk =   0.0090158
        k(   99) = (   0.0454545   0.0909091  -0.5000000), wk =   0.0045079
        k(  100) = (   0.0454545   0.1363636   0.1363636), wk =   0.0045079
        k(  101) = (   0.0454545   0.1363636   0.1818182), wk =   0.0090158
        k(  102) = (   0.0454545   0.1363636   0.2272727), wk =   0.0090158
        k(  103) = (   0.0454545   0.1363636   0.2727273), wk =   0.0090158
        k(  104) = (   0.0454545   0.1363636   0.3181818), wk =   0.0090158
        k(  105) = (   0.0454545   0.1363636   0.3636364), wk =   0.0090158
        k(  106) = (   0.0454545   0.1363636   0.4090909), wk =   0.0090158
        k(  107) = (   0.0454545   0.1363636   0.4545455), wk =   0.0090158
        k(  108) = (   0.0454545   0.1363636  -0.5000000), wk =   0.0045079
        k(  109) = (   0.0454545   0.1818182   0.1818182), wk =   0.0045079
        k(  110) = (   0.0454545   0.1818182   0.2272727), wk =   0.0090158
        k(  111) = (   0.0454545   0.1818182   0.2727273), wk =   0.0090158
        k(  112) = (   0.0454545   0.1818182   0.3181818), wk =   0.0090158
        k(  113) = (   0.0454545   0.1818182   0.3636364), wk =   0.0090158
        k(  114) = (   0.0454545   0.1818182   0.4090909), wk =   0.0090158
        k(  115) = (   0.0454545   0.1818182   0.4545455), wk =   0.0090158
        k(  116) = (   0.0454545   0.1818182  -0.5000000), wk =   0.0045079
        k(  117) = (   0.0454545   0.2272727   0.2272727), wk =   0.0045079
        k(  118) = (   0.0454545   0.2272727   0.2727273), wk =   0.0090158
        k(  119) = (   0.0454545   0.2272727   0.3181818), wk =   0.0090158
        k(  120) = (   0.0454545   0.2272727   0.3636364), wk =   0.0090158
        k(  121) = (   0.0454545   0.2272727   0.4090909), wk =   0.0090158
        k(  122) = (   0.0454545   0.2272727   0.4545455), wk =   0.0090158
        k(  123) = (   0.0454545   0.2272727  -0.5000000), wk =   0.0045079
        k(  124) = (   0.0454545   0.2727273   0.2727273), wk =   0.0045079
        k(  125) = (   0.0454545   0.2727273   0.3181818), wk =   0.0090158
        k(  126) = (   0.0454545   0.2727273   0.3636364), wk =   0.0090158
        k(  127) = (   0.0454545   0.2727273   0.4090909), wk =   0.0090158
        k(  128) = (   0.0454545   0.2727273   0.4545455), wk =   0.0090158
        k(  129) = (   0.0454545   0.2727273  -0.5000000), wk =   0.0045079
        k(  130) = (   0.0454545   0.3181818   0.3181818), wk =   0.0045079
        k(  131) = (   0.0454545   0.3181818   0.3636364), wk =   0.0090158
        k(  132) = (   0.0454545   0.3181818   0.4090909), wk =   0.0090158
        k(  133) = (   0.0454545   0.3181818   0.4545455), wk =   0.0090158
        k(  134) = (   0.0454545   0.3181818  -0.5000000), wk =   0.0045079
        k(  135) = (   0.0454545   0.3636364   0.3636364), wk =   0.0045079
        k(  136) = (   0.0454545   0.3636364   0.4090909), wk =   0.0090158
        k(  137) = (   0.0454545   0.3636364   0.4545455), wk =   0.0090158
        k(  138) = (   0.0454545   0.3636364  -0.5000000), wk =   0.0045079
        k(  139) = (   0.0454545   0.4090909   0.4090909), wk =   0.0045079
        k(  140) = (   0.0454545   0.4090909   0.4545455), wk =   0.0090158
        k(  141) = (   0.0454545   0.4090909  -0.5000000), wk =   0.0045079
        k(  142) = (   0.0454545   0.4545455   0.4545455), wk =   0.0045079
        k(  143) = (   0.0454545   0.4545455  -0.5000000), wk =   0.0045079
        k(  144) = (   0.0454545  -0.5000000  -0.5000000), wk =   0.0011270
        k(  145) = (   0.0909091   0.0909091   0.0909091), wk =   0.0015026
        k(  146) = (   0.0909091   0.0909091   0.1363636), wk =   0.0045079
        k(  147) = (   0.0909091   0.0909091   0.1818182), wk =   0.0045079
        k(  148) = (   0.0909091   0.0909091   0.2272727), wk =   0.0045079
        k(  149) = (   0.0909091   0.0909091   0.2727273), wk =   0.0045079
        k(  150) = (   0.0909091   0.0909091   0.3181818), wk =   0.0045079
        k(  151) = (   0.0909091   0.0909091   0.3636364), wk =   0.0045079
        k(  152) = (   0.0909091   0.0909091   0.4090909), wk =   0.0045079
        k(  153) = (   0.0909091   0.0909091   0.4545455), wk =   0.0045079
        k(  154) = (   0.0909091   0.0909091  -0.5000000), wk =   0.0022539
        k(  155) = (   0.0909091   0.1363636   0.1363636), wk =   0.0045079
        k(  156) = (   0.0909091   0.1363636   0.1818182), wk =   0.0090158
        k(  157) = (   0.0909091   0.1363636   0.2272727), wk =   0.0090158
        k(  158) = (   0.0909091   0.1363636   0.2727273), wk =   0.0090158
        k(  159) = (   0.0909091   0.1363636   0.3181818), wk =   0.0090158
        k(  160) = (   0.0909091   0.1363636   0.3636364), wk =   0.0090158
        k(  161) = (   0.0909091   0.1363636   0.4090909), wk =   0.0090158
        k(  162) = (   0.0909091   0.1363636   0.4545455), wk =   0.0090158
        k(  163) = (   0.0909091   0.1363636  -0.5000000), wk =   0.0045079
        k(  164) = (   0.0909091   0.1818182   0.1818182), wk =   0.0045079
        k(  165) = (   0.0909091   0.1818182   0.2272727), wk =   0.0090158
        k(  166) = (   0.0909091   0.1818182   0.2727273), wk =   0.0090158
        k(  167) = (   0.0909091   0.1818182   0.3181818), wk =   0.0090158
        k(  168) = (   0.0909091   0.1818182   0.3636364), wk =   0.0090158
        k(  169) = (   0.0909091   0.1818182   0.4090909), wk =   0.0090158
        k(  170) = (   0.0909091   0.1818182   0.4545455), wk =   0.0090158
        k(  171) = (   0.0909091   0.1818182  -0.5000000), wk =   0.0045079
        k(  172) = (   0.0909091   0.2272727   0.2272727), wk =   0.0045079
        k(  173) = (   0.0909091   0.2272727   0.2727273), wk =   0.0090158
        k(  174) = (   0.0909091   0.2272727   0.3181818), wk =   0.0090158
        k(  175) = (   0.0909091   0.2272727   0.3636364), wk =   0.0090158
        k(  176) = (   0.0909091   0.2272727   0.4090909), wk =   0.0090158
        k(  177) = (   0.0909091   0.2272727   0.4545455), wk =   0.0090158
        k(  178) = (   0.0909091   0.2272727  -0.5000000), wk =   0.0045079
        k(  179) = (   0.0909091   0.2727273   0.2727273), wk =   0.0045079
        k(  180) = (   0.0909091   0.2727273   0.3181818), wk =   0.0090158
        k(  181) = (   0.0909091   0.2727273   0.3636364), wk =   0.0090158
        k(  182) = (   0.0909091   0.2727273   0.4090909), wk =   0.0090158
        k(  183) = (   0.0909091   0.2727273   0.4545455), wk =   0.0090158
        k(  184) = (   0.0909091   0.2727273  -0.5000000), wk =   0.0045079
        k(  185) = (   0.0909091   0.3181818   0.3181818), wk =   0.0045079
        k(  186) = (   0.0909091   0.3181818   0.3636364), wk =   0.0090158
        k(  187) = (   0.0909091   0.3181818   0.4090909), wk =   0.0090158
        k(  188) = (   0.0909091   0.3181818   0.4545455), wk =   0.0090158
        k(  189) = (   0.0909091   0.3181818  -0.5000000), wk =   0.0045079
        k(  190) = (   0.0909091   0.3636364   0.3636364), wk =   0.0045079
        k(  191) = (   0.0909091   0.3636364   0.4090909), wk =   0.0090158
        k(  192) = (   0.0909091   0.3636364   0.4545455), wk =   0.0090158
        k(  193) = (   0.0909091   0.3636364  -0.5000000), wk =   0.0045079
        k(  194) = (   0.0909091   0.4090909   0.4090909), wk =   0.0045079
        k(  195) = (   0.0909091   0.4090909   0.4545455), wk =   0.0090158
        k(  196) = (   0.0909091   0.4090909  -0.5000000), wk =   0.0045079
        k(  197) = (   0.0909091   0.4545455   0.4545455), wk =   0.0045079
        k(  198) = (   0.0909091   0.4545455  -0.5000000), wk =   0.0045079
        k(  199) = (   0.0909091  -0.5000000  -0.5000000), wk =   0.0011270
        k(  200) = (   0.1363636   0.1363636   0.1363636), wk =   0.0015026
        k(  201) = (   0.1363636   0.1363636   0.1818182), wk =   0.0045079
        k(  202) = (   0.1363636   0.1363636   0.2272727), wk =   0.0045079
        k(  203) = (   0.1363636   0.1363636   0.2727273), wk =   0.0045079
        k(  204) = (   0.1363636   0.1363636   0.3181818), wk =   0.0045079
        k(  205) = (   0.1363636   0.1363636   0.3636364), wk =   0.0045079
        k(  206) = (   0.1363636   0.1363636   0.4090909), wk =   0.0045079
        k(  207) = (   0.1363636   0.1363636   0.4545455), wk =   0.0045079
        k(  208) = (   0.1363636   0.1363636  -0.5000000), wk =   0.0022539
        k(  209) = (   0.1363636   0.1818182   0.1818182), wk =   0.0045079
        k(  210) = (   0.1363636   0.1818182   0.2272727), wk =   0.0090158
        k(  211) = (   0.1363636   0.1818182   0.2727273), wk =   0.0090158
        k(  212) = (   0.1363636   0.1818182   0.3181818), wk =   0.0090158
        k(  213) = (   0.1363636   0.1818182   0.3636364), wk =   0.0090158
        k(  214) = (   0.1363636   0.1818182   0.4090909), wk =   0.0090158
        k(  215) = (   0.1363636   0.1818182   0.4545455), wk =   0.0090158
        k(  216) = (   0.1363636   0.1818182  -0.5000000), wk =   0.0045079
        k(  217) = (   0.1363636   0.2272727   0.2272727), wk =   0.0045079
        k(  218) = (   0.1363636   0.2272727   0.2727273), wk =   0.0090158
        k(  219) = (   0.1363636   0.2272727   0.3181818), wk =   0.0090158
        k(  220) = (   0.1363636   0.2272727   0.3636364), wk =   0.0090158
        k(  221) = (   0.1363636   0.2272727   0.4090909), wk =   0.0090158
        k(  222) = (   0.1363636   0.2272727   0.4545455), wk =   0.0090158
        k(  223) = (   0.1363636   0.2272727  -0.5000000), wk =   0.0045079
        k(  224) = (   0.1363636   0.2727273   0.2727273), wk =   0.0045079
        k(  225) = (   0.1363636   0.2727273   0.3181818), wk =   0.0090158
        k(  226) = (   0.1363636   0.2727273   0.3636364), wk =   0.0090158
        k(  227) = (   0.1363636   0.2727273   0.4090909), wk =   0.0090158
        k(  228) = (   0.1363636   0.2727273   0.4545455), wk =   0.0090158
        k(  229) = (   0.1363636   0.2727273  -0.5000000), wk =   0.0045079
        k(  230) = (   0.1363636   0.3181818   0.3181818), wk =   0.0045079
        k(  231) = (   0.1363636   0.3181818   0.3636364), wk =   0.0090158
        k(  232) = (   0.1363636   0.3181818   0.4090909), wk =   0.0090158
        k(  233) = (   0.1363636   0.3181818   0.4545455), wk =   0.0090158
        k(  234) = (   0.1363636   0.3181818  -0.5000000), wk =   0.0045079
        k(  235) = (   0.1363636   0.3636364   0.3636364), wk =   0.0045079
        k(  236) = (   0.1363636   0.3636364   0.4090909), wk =   0.0090158
        k(  237) = (   0.1363636   0.3636364   0.4545455), wk =   0.0090158
        k(  238) = (   0.1363636   0.3636364  -0.5000000), wk =   0.0045079
        k(  239) = (   0.1363636   0.4090909   0.4090909), wk =   0.0045079
        k(  240) = (   0.1363636   0.4090909   0.4545455), wk =   0.0090158
        k(  241) = (   0.1363636   0.4090909  -0.5000000), wk =   0.0045079
        k(  242) = (   0.1363636   0.4545455   0.4545455), wk =   0.0045079
        k(  243) = (   0.1363636   0.4545455  -0.5000000), wk =   0.0045079
        k(  244) = (   0.1363636  -0.5000000  -0.5000000), wk =   0.0011270
        k(  245) = (   0.1818182   0.1818182   0.1818182), wk =   0.0015026
        k(  246) = (   0.1818182   0.1818182   0.2272727), wk =   0.0045079
        k(  247) = (   0.1818182   0.1818182   0.2727273), wk =   0.0045079
        k(  248) = (   0.1818182   0.1818182   0.3181818), wk =   0.0045079
        k(  249) = (   0.1818182   0.1818182   0.3636364), wk =   0.0045079
        k(  250) = (   0.1818182   0.1818182   0.4090909), wk =   0.0045079
        k(  251) = (   0.1818182   0.1818182   0.4545455), wk =   0.0045079
        k(  252) = (   0.1818182   0.1818182  -0.5000000), wk =   0.0022539
        k(  253) = (   0.1818182   0.2272727   0.2272727), wk =   0.0045079
        k(  254) = (   0.1818182   0.2272727   0.2727273), wk =   0.0090158
        k(  255) = (   0.1818182   0.2272727   0.3181818), wk =   0.0090158
        k(  256) = (   0.1818182   0.2272727   0.3636364), wk =   0.0090158
        k(  257) = (   0.1818182   0.2272727   0.4090909), wk =   0.0090158
        k(  258) = (   0.1818182   0.2272727   0.4545455), wk =   0.0090158
        k(  259) = (   0.1818182   0.2272727  -0.5000000), wk =   0.0045079
        k(  260) = (   0.1818182   0.2727273   0.2727273), wk =   0.0045079
        k(  261) = (   0.1818182   0.2727273   0.3181818), wk =   0.0090158
        k(  262) = (   0.1818182   0.2727273   0.3636364), wk =   0.0090158
        k(  263) = (   0.1818182   0.2727273   0.4090909), wk =   0.0090158
        k(  264) = (   0.1818182   0.2727273   0.4545455), wk =   0.0090158
        k(  265) = (   0.1818182   0.2727273  -0.5000000), wk =   0.0045079
        k(  266) = (   0.1818182   0.3181818   0.3181818), wk =   0.0045079
        k(  267) = (   0.1818182   0.3181818   0.3636364), wk =   0.0090158
        k(  268) = (   0.1818182   0.3181818   0.4090909), wk =   0.0090158
        k(  269) = (   0.1818182   0.3181818   0.4545455), wk =   0.0090158
        k(  270) = (   0.1818182   0.3181818  -0.5000000), wk =   0.0045079
        k(  271) = (   0.1818182   0.3636364   0.3636364), wk =   0.0045079
        k(  272) = (   0.1818182   0.3636364   0.4090909), wk =   0.0090158
        k(  273) = (   0.1818182   0.3636364   0.4545455), wk =   0.0090158
        k(  274) = (   0.1818182   0.3636364  -0.5000000), wk =   0.0045079
        k(  275) = (   0.1818182   0.4090909   0.4090909), wk =   0.0045079
        k(  276) = (   0.1818182   0.4090909   0.4545455), wk =   0.0090158
        k(  277) = (   0.1818182   0.4090909  -0.5000000), wk =   0.0045079
        k(  278) = (   0.1818182   0.4545455   0.4545455), wk =   0.0045079
        k(  279) = (   0.1818182   0.4545455  -0.5000000), wk =   0.0045079
        k(  280) = (   0.1818182  -0.5000000  -0.5000000), wk =   0.0011270
        k(  281) = (   0.2272727   0.2272727   0.2272727), wk =   0.0015026
        k(  282) = (   0.2272727   0.2272727   0.2727273), wk =   0.0045079
        k(  283) = (   0.2272727   0.2272727   0.3181818), wk =   0.0045079
        k(  284) = (   0.2272727   0.2272727   0.3636364), wk =   0.0045079
        k(  285) = (   0.2272727   0.2272727   0.4090909), wk =   0.0045079
        k(  286) = (   0.2272727   0.2272727   0.4545455), wk =   0.0045079
        k(  287) = (   0.2272727   0.2272727  -0.5000000), wk =   0.0022539
        k(  288) = (   0.2272727   0.2727273   0.2727273), wk =   0.0045079
        k(  289) = (   0.2272727   0.2727273   0.3181818), wk =   0.0090158
        k(  290) = (   0.2272727   0.2727273   0.3636364), wk =   0.0090158
        k(  291) = (   0.2272727   0.2727273   0.4090909), wk =   0.0090158
        k(  292) = (   0.2272727   0.2727273   0.4545455), wk =   0.0090158
        k(  293) = (   0.2272727   0.2727273  -0.5000000), wk =   0.0045079
        k(  294) = (   0.2272727   0.3181818   0.3181818), wk =   0.0045079
        k(  295) = (   0.2272727   0.3181818   0.3636364), wk =   0.0090158
        k(  296) = (   0.2272727   0.3181818   0.4090909), wk =   0.0090158
        k(  297) = (   0.2272727   0.3181818   0.4545455), wk =   0.0090158
        k(  298) = (   0.2272727   0.3181818  -0.5000000), wk =   0.0045079
        k(  299) = (   0.2272727   0.3636364   0.3636364), wk =   0.0045079
        k(  300) = (   0.2272727   0.3636364   0.4090909), wk =   0.0090158
        k(  301) = (   0.2272727   0.3636364   0.4545455), wk =   0.0090158
        k(  302) = (   0.2272727   0.3636364  -0.5000000), wk =   0.0045079
        k(  303) = (   0.2272727   0.4090909   0.4090909), wk =   0.0045079
        k(  304) = (   0.2272727   0.4090909   0.4545455), wk =   0.0090158
        k(  305) = (   0.2272727   0.4090909  -0.5000000), wk =   0.0045079
        k(  306) = (   0.2272727   0.4545455   0.4545455), wk =   0.0045079
        k(  307) = (   0.2272727   0.4545455  -0.5000000), wk =   0.0045079
        k(  308) = (   0.2272727  -0.5000000  -0.5000000), wk =   0.0011270
        k(  309) = (   0.2727273   0.2727273   0.2727273), wk =   0.0015026
        k(  310) = (   0.2727273   0.2727273   0.3181818), wk =   0.0045079
        k(  311) = (   0.2727273   0.2727273   0.3636364), wk =   0.0045079
        k(  312) = (   0.2727273   0.2727273   0.4090909), wk =   0.0045079
        k(  313) = (   0.2727273   0.2727273   0.4545455), wk =   0.0045079
        k(  314) = (   0.2727273   0.2727273  -0.5000000), wk =   0.0022539
        k(  315) = (   0.2727273   0.3181818   0.3181818), wk =   0.0045079
        k(  316) = (   0.2727273   0.3181818   0.3636364), wk =   0.0090158
        k(  317) = (   0.2727273   0.3181818   0.4090909), wk =   0.0090158
        k(  318) = (   0.2727273   0.3181818   0.4545455), wk =   0.0090158
        k(  319) = (   0.2727273   0.3181818  -0.5000000), wk =   0.0045079
        k(  320) = (   0.2727273   0.3636364   0.3636364), wk =   0.0045079
        k(  321) = (   0.2727273   0.3636364   0.4090909), wk =   0.0090158
        k(  322) = (   0.2727273   0.3636364   0.4545455), wk =   0.0090158
        k(  323) = (   0.2727273   0.3636364  -0.5000000), wk =   0.0045079
        k(  324) = (   0.2727273   0.4090909   0.4090909), wk =   0.0045079
        k(  325) = (   0.2727273   0.4090909   0.4545455), wk =   0.0090158
        k(  326) = (   0.2727273   0.4090909  -0.5000000), wk =   0.0045079
        k(  327) = (   0.2727273   0.4545455   0.4545455), wk =   0.0045079
        k(  328) = (   0.2727273   0.4545455  -0.5000000), wk =   0.0045079
        k(  329) = (   0.2727273  -0.5000000  -0.5000000), wk =   0.0011270
        k(  330) = (   0.3181818   0.3181818   0.3181818), wk =   0.0015026
        k(  331) = (   0.3181818   0.3181818   0.3636364), wk =   0.0045079
        k(  332) = (   0.3181818   0.3181818   0.4090909), wk =   0.0045079
        k(  333) = (   0.3181818   0.3181818   0.4545455), wk =   0.0045079
        k(  334) = (   0.3181818   0.3181818  -0.5000000), wk =   0.0022539
        k(  335) = (   0.3181818   0.3636364   0.3636364), wk =   0.0045079
        k(  336) = (   0.3181818   0.3636364   0.4090909), wk =   0.0090158
        k(  337) = (   0.3181818   0.3636364   0.4545455), wk =   0.0090158
        k(  338) = (   0.3181818   0.3636364  -0.5000000), wk =   0.0045079
        k(  339) = (   0.3181818   0.4090909   0.4090909), wk =   0.0045079
        k(  340) = (   0.3181818   0.4090909   0.4545455), wk =   0.0090158
        k(  341) = (   0.3181818   0.4090909  -0.5000000), wk =   0.0045079
        k(  342) = (   0.3181818   0.4545455   0.4545455), wk =   0.0045079
        k(  343) = (   0.3181818   0.4545455  -0.5000000), wk =   0.0045079
        k(  344) = (   0.3181818  -0.5000000  -0.5000000), wk =   0.0011270
        k(  345) = (   0.3636364   0.3636364   0.3636364), wk =   0.0015026
        k(  346) = (   0.3636364   0.3636364   0.4090909), wk =   0.0045079
        k(  347) = (   0.3636364   0.3636364   0.4545455), wk =   0.0045079
        k(  348) = (   0.3636364   0.3636364  -0.5000000), wk =   0.0022539
        k(  349) = (   0.3636364   0.4090909   0.4090909), wk =   0.0045079
[...]
     1.0000   1.0000   1.0000   1.0000   0.0000   0.0000   0.0000   0.0000

          k = 0.3182 0.3636 0.3636 (  1882 PWs)   bands (ev):

   -48.0454 -24.2941 -24.2819 -24.2774 -24.2361  -7.6929  -7.3420  -7.2818
    -6.2935  -6.2204  -6.0271   4.7367   5.1817   5.2815   5.3509   5.5921
     5.6065   8.2470   8.2836   8.5294  12.2425  12.2740  12.3382  15.1486

     occupation numbers 
     1.0000   1.0000   1.0000   1.0000   1.0000   1.0000   1.0000   1.0000
     1.0000   1.0000   1.0000   1.0000   1.0000   1.0000   1.0000   1.0000
     1.0000   1.0000   1.0000   1.0000   0.0000   0.0000   0.0000   0.0000

          k = 0.3182 0.3636 0.4091 (  1880 PWs)   bands (ev):

   -48.0454 -24.2936 -24.2827 -24.2770 -24.2386  -7.6361  -7.3496  -7.2516
    -6.3303  -6.2059  -6.0641   4.6702   5.1201   5.2284   5.3325   5.5264
     5.6173   8.2801   8.3362   8.5715  12.2717  12.3451  12.4148  15.1551

     occupation numbers 
     1.0000   1.0000   1.0000   1.0000   1.0000   1.0000   1.0000   1.0000
     1.0000   1.0000   1.0000   1.0000   1.0000   1.0000   1.0000   1.0000
     1.0000   1.0000   1.0000   1.0000   0.0000   0.0000   0.0000   0.0000

          k = 0.3182 0.3636 0.4545 (  1880 PWs)   bands (ev):

   -48.0454 -24.2946 -24.2820 -24.2765 -24.2405  -7.5956  -7.3619  -7.2277
    -6.3597  -6.1788  -6.1007   4.6105   5.0991   5.1823   5.3333   5.4801
     5.6339   8.2952   8.3699   8.5986  12.2826  12.4000  12.4671  15.1471

     occupation numbers 
     1.0000   1.0000   1.0000   1.0000   1.0000   1.0000   1.0000   1.0000
     1.0000   1.0000   1.0000   1.0000   1.0000   1.0000   1.0000   1.0000
     1.0000   1.0000   1.0000   1.0000   0.0000   0.0000   0.0000   0.0000

          k = 0.3182 0.3636-0.5000 (  1874 PWs)   bands (ev):

   -48.0453 -24.2951 -24.2816 -24.2763 -24.2412  -7.5804  -7.3678  -7.2189
    -6.3705  -6.1570  -6.1254   4.5872   5.0984   5.1619   5.3357   5.4635
     5.6402   8.2997   8.3812   8.6078  12.2861  12.4195  12.4857  15.1431

     occupation numbers 
     1.0000   1.0000   1.0000   1.0000   1.0000   1.0000   1.0000   1.0000
     1.0000   1.0000   1.0000   1.0000   1.0000   1.0000   1.0000   1.0000
     1.0000   1.0000   1.0000   1.0000   0.0000   0.0000   0.0000   0.0000

          k = 0.3182 0.4091 0.4091 (  1880 PWs)   bands (ev):

   -48.0453 -24.2913 -24.2856 -24.2766 -24.2409  -7.5668  -7.3411  -7.2449
    -6.3449  -6.2180  -6.1042   4.6115   5.0472   5.1776   5.3285   5.5395
     5.5416   8.3367   8.3722   8.6267  12.3501  12.3675  12.4846  15.1795

     occupation numbers 
     1.0000   1.0000   1.0000   1.0000   1.0000   1.0000   1.0000   1.0000
     1.0000   1.0000   1.0000   1.0000   1.0000   1.0000   1.0000   1.0000
     1.0000   1.0000   1.0000   1.0000   0.0000   0.0000   0.0000   0.0000

          k = 0.3182 0.4091 0.4545 (  1883 PWs)   bands (ev):

   -48.0453 -24.2914 -24.2859 -24.2762 -24.2425  -7.5132  -7.3467  -7.2384
    -6.3610  -6.2069  -6.1422   4.5576   5.0097   5.1455   5.3339   5.4908
     5.5562   8.3622   8.3988   8.6635  12.3677  12.4160  12.5325  15.1725

     occupation numbers 
     1.0000   1.0000   1.0000   1.0000   1.0000   1.0000   1.0000   1.0000
     1.0000   1.0000   1.0000   1.0000   1.0000   1.0000   1.0000   1.0000
     1.0000   1.0000   1.0000   1.0000   0.0000   0.0000   0.0000   0.0000

          k = 0.3182 0.4091-0.5000 (  1878 PWs)   bands (ev):

   -48.0453 -24.2918 -24.2855 -24.2761 -24.2431  -7.4909  -7.3529  -7.2356
    -6.3678  -6.1894  -6.1676   4.5362   4.9997   5.1339   5.3379   5.4725
     5.5623   8.3687   8.4092   8.6761  12.3714  12.4355  12.5496  15.1673

     occupation numbers 
     1.0000   1.0000   1.0000   1.0000   1.0000   1.0000   1.0000   1.0000
     1.0000   1.0000   1.0000   1.0000   1.0000   1.0000   1.0000   1.0000
     1.0000   1.0000   1.0000   1.0000   0.0000   0.0000   0.0000   0.0000

          k = 0.3182 0.4545 0.4545 (  1881 PWs)   bands (ev):

   -48.0453 -24.2895 -24.2881 -24.2760 -24.2440  -7.4424  -7.3406  -7.2602
    -6.3596  -6.2162  -6.1785   4.5089   4.9615   5.1196   5.3432   5.5041
     5.5062   8.4014   8.4137   8.7068  12.4224  12.4276  12.5778  15.1606

     occupation numbers 
     1.0000   1.0000   1.0000   1.0000   1.0000   1.0000   1.0000   1.0000
     1.0000   1.0000   1.0000   1.0000   1.0000   1.0000   1.0000   1.0000
     1.0000   1.0000   1.0000   1.0000   0.0000   0.0000   0.0000   0.0000

          k = 0.3182 0.4545-0.5000 (  1886 PWs)   bands (ev):

   -48.0453 -24.2897 -24.2880 -24.2759 -24.2445  -7.4070  -7.3436  -7.2739
    -6.3587  -6.2091  -6.2015   4.4894   4.9475   5.1101   5.3488   5.4861
     5.5110   8.4111   8.4217   8.7217  12.4282  12.4450  12.5940  15.1525

     occupation numbers 
     1.0000   1.0000   1.0000   1.0000   1.0000   1.0000   1.0000   1.0000
     1.0000   1.0000   1.0000   1.0000   1.0000   1.0000   1.0000   1.0000
     1.0000   1.0000   1.0000   1.0000   0.0000   0.0000   0.0000   0.0000

          k = 0.3182-0.5000-0.5000 (  1888 PWs)   bands (ev):

   -48.0452 -24.2889 -24.2889 -24.2759 -24.2451  -7.3405  -7.3405  -7.3249
    -6.3532  -6.2156  -6.2156   4.4706   4.9322   5.1013   5.3551   5.4918
     5.4918   8.4254   8.4254   8.7375  12.4482  12.4482  12.6099  15.1431

     occupation numbers 
     1.0000   1.0000   1.0000   1.0000   1.0000   1.0000   1.0000   1.0000
     1.0000   1.0000   1.0000   1.0000   1.0000   1.0000   1.0000   1.0000
     1.0000   1.0000   1.0000   1.0000   0.0000   0.0000   0.0000   0.0000

          k = 0.3636 0.3636 0.3636 (  1875 PWs)   bands (ev):

   -48.0454 -24.2912 -24.2816 -24.2816 -24.2382  -7.6233  -7.2893  -7.2893
    -6.2832  -6.2832  -6.0689   4.6943   5.1868   5.1868   5.3034   5.5216
     5.5216   8.3513   8.3513   8.5665  12.3274  12.3649  12.3649  15.4101

     occupation numbers 
     1.0000   1.0000   1.0000   1.0000   1.0000   1.0000   1.0000   1.0000
     1.0000   1.0000   1.0000   1.0000   1.0000   1.0000   1.0000   1.0000
     1.0000   1.0000   1.0000   1.0000   0.0000   0.0000   0.0000   0.0000

          k = 0.3636 0.3636 0.4091 (  1880 PWs)   bands (ev):

   -48.0453 -24.2907 -24.2829 -24.2814 -24.2402  -7.5611  -7.3045  -7.2432
    -6.3371  -6.2627  -6.1118   4.6306   5.1076   5.1917   5.2594   5.4592
     5.5200   8.3888   8.4268   8.6040  12.3633  12.4209  12.4424  15.3786

     occupation numbers 
     1.0000   1.0000   1.0000   1.0000   1.0000   1.0000   1.0000   1.0000
     1.0000   1.0000   1.0000   1.0000   1.0000   1.0000   1.0000   1.0000
     1.0000   1.0000   1.0000   1.0000   0.0000   0.0000   0.0000   0.0000

          k = 0.3636 0.3636 0.4545 (  1882 PWs)   bands (ev):

   -48.0453 -24.2919 -24.2819 -24.2813 -24.2416  -7.5136  -7.3228  -7.2110
    -6.3743  -6.2348  -6.1528   4.5730   5.0765   5.1956   5.2194   5.4206
     5.5332   8.4071   8.4724   8.6306  12.3752  12.4700  12.4951  15.3542

     occupation numbers 
     1.0000   1.0000   1.0000   1.0000   1.0000   1.0000   1.0000   1.0000
     1.0000   1.0000   1.0000   1.0000   1.0000   1.0000   1.0000   1.0000
     1.0000   1.0000   1.0000   1.0000   0.0000   0.0000   0.0000   0.0000

          k = 0.3636 0.3636-0.5000 (  1876 PWs)   bands (ev):

   -48.0453 -24.2925 -24.2814 -24.2812 -24.2421  -7.4943  -7.3322  -7.1993
    -6.3877  -6.2119  -6.1801   4.5503   5.0700   5.1972   5.2036   5.4075
     5.5391   8.4126   8.4876   8.6400  12.3789  12.4877  12.5139  15.3449

     occupation numbers 
     1.0000   1.0000   1.0000   1.0000   1.0000   1.0000   1.0000   1.0000
     1.0000   1.0000   1.0000   1.0000   1.0000   1.0000   1.0000   1.0000
     1.0000   1.0000   1.0000   1.0000   0.0000   0.0000   0.0000   0.0000

          k = 0.3636 0.4091 0.4091 (  1884 PWs)   bands (ev):

   -48.0453 -24.2890 -24.2854 -24.2817 -24.2416  -7.4918  -7.2828  -7.2305
    -6.3537  -6.2883  -6.1590   4.5731   5.0503   5.1587   5.2434   5.4426
     5.4609   8.4612   8.4834   8.6443  12.4344  12.4518  12.5043  15.4217

     occupation numbers 
     1.0000   1.0000   1.0000   1.0000   1.0000   1.0000   1.0000   1.0000
     1.0000   1.0000   1.0000   1.0000   1.0000   1.0000   1.0000   1.0000
     1.0000   1.0000   1.0000   1.0000   0.0000   0.0000   0.0000   0.0000

          k = 0.3636 0.4091 0.4545 (  1880 PWs)   bands (ev):

   -48.0452 -24.2898 -24.2856 -24.2813 -24.2426  -7.4357  -7.2923  -7.2089
    -6.3813  -6.2756  -6.2027   4.5206   5.0104   5.1585   5.2185   5.4103
     5.4647   8.4896   8.5253   8.6767  12.4529  12.4956  12.5522  15.3922

     occupation numbers 
     1.0000   1.0000   1.0000   1.0000   1.0000   1.0000   1.0000   1.0000
     1.0000   1.0000   1.0000   1.0000   1.0000   1.0000   1.0000   1.0000
     1.0000   1.0000   1.0000   1.0000   0.0000   0.0000   0.0000   0.0000

          k = 0.3636 0.4091-0.5000 (  1882 PWs)   bands (ev):

   -48.0452 -24.2904 -24.2853 -24.2811 -24.2429  -7.4104  -7.3032  -7.1995
    -6.3930  -6.2552  -6.2319   4.4998   4.9990   5.1600   5.2078   5.3971
     5.4703   8.4966   8.5407   8.6887  12.4568  12.5134  12.5693  15.3777

     occupation numbers 
     1.0000   1.0000   1.0000   1.0000   1.0000   1.0000   1.0000   1.0000
     1.0000   1.0000   1.0000   1.0000   1.0000   1.0000   1.0000   1.0000
     1.0000   1.0000   1.0000   1.0000   0.0000   0.0000   0.0000   0.0000

          k = 0.3636 0.4545 0.4545 (  1885 PWs)   bands (ev):

   -48.0452 -24.2887 -24.2878 -24.2811 -24.2432  -7.3690  -7.2789  -7.2175
    -6.3855  -6.2911  -6.2460   4.4730   4.9636   5.1557   5.2023   5.4189
     5.4260   8.5380   8.5485   8.7161  12.5031  12.5081  12.5972  15.3511

     occupation numbers 
     1.0000   1.0000   1.0000   1.0000   1.0000   1.0000   1.0000   1.0000
     1.0000   1.0000   1.0000   1.0000   1.0000   1.0000   1.0000   1.0000
     1.0000   1.0000   1.0000   1.0000   0.0000   0.0000   0.0000   0.0000

          k = 0.3636 0.4545-0.5000 (  1886 PWs)   bands (ev):

   -48.0452 -24.2891 -24.2878 -24.2810 -24.2435  -7.3338  -7.2842  -7.2225
    -6.3879  -6.2827  -6.2739   4.4539   4.9493   5.1565   5.1946   5.4083
     5.4286   8.5484   8.5607   8.7307  12.5091  12.5241  12.6134  15.3308

     occupation numbers 
     1.0000   1.0000   1.0000   1.0000   1.0000   1.0000   1.0000   1.0000
     1.0000   1.0000   1.0000   1.0000   1.0000   1.0000   1.0000   1.0000
     1.0000   1.0000   1.0000   1.0000   0.0000   0.0000   0.0000   0.0000

          k = 0.3636-0.5000-0.5000 (  1884 PWs)   bands (ev):

   -48.0452 -24.2886 -24.2886 -24.2810 -24.2437  -7.2776  -7.2776  -7.2604
    -6.3824  -6.2920  -6.2920   4.4355   4.9340   5.1568   5.1880   5.4145
     5.4145   8.5659   8.5659   8.7463  12.5276  12.5276  12.6292  15.3083

     occupation numbers 
     1.0000   1.0000   1.0000   1.0000   1.0000   1.0000   1.0000   1.0000
     1.0000   1.0000   1.0000   1.0000   1.0000   1.0000   1.0000   1.0000
     1.0000   1.0000   1.0000   1.0000   0.0000   0.0000   0.0000   0.0000

          k = 0.4091 0.4091 0.4091 (  1878 PWs)   bands (ev):

   -48.0452 -24.2876 -24.2852 -24.2852 -24.2422  -7.4218  -7.2312  -7.2312
    -6.3492  -6.3492  -6.2117   4.5193   5.0531   5.0531   5.2672   5.4023
     5.4023   8.5532   8.5532   8.6695  12.5017  12.5236  12.5236  15.5556

     occupation numbers 
     1.0000   1.0000   1.0000   1.0000   1.0000   1.0000   1.0000   1.0000
     1.0000   1.0000   1.0000   1.0000   1.0000   1.0000   1.0000   1.0000
     1.0000   1.0000   1.0000   1.0000   0.0000   0.0000   0.0000   0.0000

          k = 0.4091 0.4091 0.4545 (  1887 PWs)   bands (ev):

   -48.0452 -24.2886 -24.2854 -24.2851 -24.2426  -7.3630  -7.2464  -7.1945
    -6.3918  -6.3317  -6.2590   4.4705   5.0001   5.0550   5.2604   5.3666
     5.4031   8.5842   8.6095   8.6965  12.5247  12.5585  12.5726  15.4850

     occupation numbers 
     1.0000   1.0000   1.0000   1.0000   1.0000   1.0000   1.0000   1.0000
     1.0000   1.0000   1.0000   1.0000   1.0000   1.0000   1.0000   1.0000
     1.0000   1.0000   1.0000   1.0000   0.0000   0.0000   0.0000   0.0000

          k = 0.4091 0.4091-0.5000 (  1882 PWs)   bands (ev):

   -48.0452 -24.2894 -24.2851 -24.2850 -24.2428  -7.3338  -7.2607  -7.1809
    -6.4074  -6.3098  -6.2909   4.4511   4.9850   5.0557   5.2539   5.3546
     5.4081   8.5923   8.6285   8.7080  12.5289  12.5748  12.5900  15.4593

     occupation numbers 
     1.0000   1.0000   1.0000   1.0000   1.0000   1.0000   1.0000   1.0000
     1.0000   1.0000   1.0000   1.0000   1.0000   1.0000   1.0000   1.0000
     1.0000   1.0000   1.0000   1.0000   0.0000   0.0000   0.0000   0.0000

          k = 0.4091 0.4545 0.4545 (  1880 PWs)   bands (ev):

   -48.0451 -24.2880 -24.2876 -24.2850 -24.2426  -7.3011  -7.2237  -7.1903
    -6.4010  -6.3566  -6.3067   4.4256   4.9653   5.0316   5.2644   5.3612
     5.3694   8.6401   8.6479   8.7246  12.5715  12.5767  12.6124  15.4268

     occupation numbers 
     1.0000   1.0000   1.0000   1.0000   1.0000   1.0000   1.0000   1.0000
     1.0000   1.0000   1.0000   1.0000   1.0000   1.0000   1.0000   1.0000
     1.0000   1.0000   1.0000   1.0000   0.0000   0.0000   0.0000   0.0000

          k = 0.4091 0.4545-0.5000 (  1882 PWs)   bands (ev):

   -48.0451 -24.2887 -24.2876 -24.2849 -24.2426  -7.2668  -7.2316  -7.1854
    -6.4092  -6.3463  -6.3377   4.4076   4.9503   5.0296   5.2599   5.3527
     5.3710   8.6515   8.6642   8.7382  12.5778  12.5914  12.6286  15.3960

     occupation numbers 
     1.0000   1.0000   1.0000   1.0000   1.0000   1.0000   1.0000   1.0000
     1.0000   1.0000   1.0000   1.0000   1.0000   1.0000   1.0000   1.0000
     1.0000   1.0000   1.0000   1.0000   0.0000   0.0000   0.0000   0.0000

          k = 0.4091-0.5000-0.5000 (  1880 PWs)   bands (ev):

   -48.0451 -24.2884 -24.2884 -24.2849 -24.2426  -7.2211  -7.2211  -7.2092
    -6.4049  -6.3591  -6.3591   4.3901   4.9354   5.0265   5.2557   5.3587
     5.3587   8.6715   8.6715   8.7532  12.5951  12.5951  12.6444  15.3633

     occupation numbers 
     1.0000   1.0000   1.0000   1.0000   1.0000   1.0000   1.0000   1.0000
     1.0000   1.0000   1.0000   1.0000   1.0000   1.0000   1.0000   1.0000
     1.0000   1.0000   1.0000   1.0000   0.0000   0.0000   0.0000   0.0000

          k = 0.4545 0.4545 0.4545 (  1880 PWs)   bands (ev):

   -48.0451 -24.2877 -24.2875 -24.2875 -24.2422  -7.2448  -7.1839  -7.1839
    -6.4028  -6.4028  -6.3552   4.3833   4.9665   4.9665   5.2959   5.3352
     5.3352   8.7032   8.7032   8.7361  12.6167  12.6234  12.6234  15.4395

     occupation numbers 
     1.0000   1.0000   1.0000   1.0000   1.0000   1.0000   1.0000   1.0000
     1.0000   1.0000   1.0000   1.0000   1.0000   1.0000   1.0000   1.0000
     1.0000   1.0000   1.0000   1.0000   0.0000   0.0000   0.0000   0.0000

          k = 0.4545 0.4545-0.5000 (  1884 PWs)   bands (ev):

   -48.0451 -24.2884 -24.2875 -24.2874 -24.2421  -7.2126  -7.1941  -7.1692
    -6.4198  -6.3905  -6.3852   4.3665   4.9469   4.9668   5.2969   5.3237
     5.3364   8.7153   8.7246   8.7466  12.6245  12.6355  12.6400  15.4034

     occupation numbers 
     1.0000   1.0000   1.0000   1.0000   1.0000   1.0000   1.0000   1.0000
     1.0000   1.0000   1.0000   1.0000   1.0000   1.0000   1.0000   1.0000
     1.0000   1.0000   1.0000   1.0000   0.0000   0.0000   0.0000   0.0000

          k = 0.4545-0.5000-0.5000 (  1888 PWs)   bands (ev):

   -48.0451 -24.2883 -24.2883 -24.2874 -24.2419  -7.1803  -7.1803  -7.1764
    -6.4192  -6.4066  -6.4066   4.3500   4.9363   4.9575   5.2988   5.3249
     5.3249   8.7369   8.7369   8.7576  12.6411  12.6411  12.6541  15.3704

     occupation numbers 
     1.0000   1.0000   1.0000   1.0000   1.0000   1.0000   1.0000   1.0000
     1.0000   1.0000   1.0000   1.0000   1.0000   1.0000   1.0000   1.0000
     1.0000   1.0000   1.0000   1.0000   0.0000   0.0000   0.0000   0.0000

          k =-0.5000-0.5000-0.5000 (  1904 PWs)   bands (ev):

   -48.0451 -24.2883 -24.2883 -24.2883 -24.2417  -7.1651  -7.1651  -7.1651
    -6.4240  -6.4240  -6.4240   4.3340   4.9366   4.9366   5.3136   5.3136
     5.3136   8.7591   8.7591   8.7591  12.6575  12.6575  12.6575  16.1123

     occupation numbers 
     1.0000   1.0000   1.0000   1.0000   1.0000   1.0000   1.0000   1.0000
     1.0000   1.0000   1.0000   1.0000   1.0000   1.0000   1.0000   1.0000
     1.0000   1.0000   1.0000   1.0000   0.0000   0.0000   0.0000   0.0000

     the Fermi energy is    10.1195 ev

!    total energy              =    -287.00261632 Ry
     Harris-Foulkes estimate   =    -287.00261632 Ry
     estimated scf accuracy    <          6.6E-10 Ry

     The total energy is the sum of the following terms:

     one-electron contribution =     -86.66736344 Ry
     hartree contribution      =      63.63639237 Ry
     xc contribution           =     -58.19922130 Ry
     ewald contribution        =    -205.77242396 Ry
     smearing contrib. (-TS)   =       0.00000000 Ry

     convergence has been achieved in  12 iterations
 
     init_run     :      2.35s CPU      2.64s WALL (       1 calls)
     electrons    :     92.13s CPU    101.76s WALL (       1 calls)

     Called by init_run:
     wfcinit      :      2.27s CPU      2.51s WALL (       1 calls)
     wfcinit:atom :      0.01s CPU      0.02s WALL (     364 calls)
     wfcinit:wfcr :      2.18s CPU      2.41s WALL (     364 calls)
     potinit      :      0.01s CPU      0.01s WALL (       1 calls)
     hinit0       :      0.07s CPU      0.10s WALL (       1 calls)

     Called by electrons:
     c_bands      :     86.46s CPU     95.63s WALL (      12 calls)
     sum_band     :      5.58s CPU      6.01s WALL (      12 calls)
     v_of_rho     :      0.02s CPU      0.02s WALL (      13 calls)
     v_h          :      0.00s CPU      0.00s WALL (      13 calls)
     v_xc         :      0.02s CPU      0.02s WALL (      13 calls)
     newd         :      0.07s CPU      0.07s WALL (      13 calls)
     mix_rho      :      0.01s CPU      0.01s WALL (      12 calls)

     Called by c_bands:
     init_us_2    :      0.55s CPU      0.58s WALL (    9100 calls)
     cegterg      :     84.29s CPU     93.39s WALL (    4368 calls)

     Called by sum_band:
     sum_band:bec :      0.08s CPU      0.09s WALL (    4368 calls)
     addusdens    :      0.06s CPU      0.07s WALL (      12 calls)

     Called by *egterg:
     h_psi        :     26.86s CPU     28.63s WALL (   17497 calls)
     s_psi        :      0.70s CPU      0.75s WALL (   17497 calls)
     g_psi        :      0.16s CPU      0.16s WALL (   12765 calls)
     cdiaghg      :     48.49s CPU     54.06s WALL (   17133 calls)
     cegterg:over :      5.91s CPU      7.70s WALL (   12765 calls)
     cegterg:upda :      2.09s CPU      2.15s WALL (   12765 calls)
     cegterg:last :      0.86s CPU      0.89s WALL (    4368 calls)
     cdiaghg:chol :      1.37s CPU      1.63s WALL (   17133 calls)
     cdiaghg:inve :      0.83s CPU      1.00s WALL (   17133 calls)
     cdiaghg:para :      2.43s CPU      2.69s WALL (   34266 calls)

     Called by h_psi:
     h_psi:pot    :     26.78s CPU     28.55s WALL (   17497 calls)
     h_psi:calbec :      1.34s CPU      1.43s WALL (   17497 calls)
     vloc_psi     :     24.64s CPU     26.26s WALL (   17497 calls)
     add_vuspsi   :      0.74s CPU      0.79s WALL (   17497 calls)

     General routines
     calbec       :      1.73s CPU      1.86s WALL (   21865 calls)
     fft          :      0.02s CPU      0.04s WALL (     144 calls)
     ffts         :      0.00s CPU      0.00s WALL (      12 calls)
     fftw         :     27.43s CPU     29.27s WALL (  656640 calls)
 
     Parallel routines
     fft_scatt_xy :      2.25s CPU      2.41s WALL (  656796 calls)
     fft_scatt_yz :     18.73s CPU     20.07s WALL (  656796 calls)
 
     PWSCF        :  1m34.59s CPU     1m44.60s WALL

 
   This run was terminated on:  22:40:27   6Feb2019            

=------------------------------------------------------------------------------=
   JOB DONE.
=------------------------------------------------------------------------------=
