
     Program PWSCF v.6.3MaX starts on  6Feb2019 at 22:38:40 

     This program is part of the open-source Quantum ESPRESSO suite
     for quantum simulation of materials; please cite
         "P. Giannozzi et al., J. Phys.:Condens. Matter 21 395502 (2009);
         "P. Giannozzi et al., J. Phys.:Condens. Matter 29 465901 (2017);
          URL http://www.quantum-espresso.org", 
     in publications or presentations arising from this work. More details at
     http://www.quantum-espresso.org/quote

     Parallel version (MPI & OpenMP), running on      20 processor cores
     Number of MPI processes:                20
     Threads/MPI process:                     1

     MPI processes distributed on     1 nodes
     R & G space division:  proc/nbgrp/npool/nimage =      20
     Reading input from /home/azadoks/dftman/projects/SrTiO3 Convergence/EOSWorkflows/851d9a203d99/7162ea4945ac/pwscf.in
Warning: card &IONS ignored
Warning: card / ignored
Warning: card &CELL ignored
Warning: card / ignored

     Current dimensions of program PWSCF are:
     Max number of different atomic species (ntypx) = 10
     Max number of k-points (npk) =  40000
     Max angular momentum in pseudopotentials (lmaxx) =  3
     Message from routine iosys:
     minimal I/O required, wf_collect reset to FALSE

     Subspace diagonalization in iterative solution of the eigenvalue problem:
     one sub-group per band group will be used
     scalapack distributed-memory algorithm (size of sub-group:  3*  3 procs)

 
     Parallelization info
     --------------------
     sticks:   dense  smooth     PW     G-vecs:    dense   smooth      PW
     Min          43      43     13                  975      975     161
     Max          44      44     14                  978      978     164
     Sum         877     877    261                19549    19549    3239
 


     bravais-lattice index     =            0
     lattice parameter (alat)  =       8.2836  a.u.
     unit-cell volume          =     568.3987 (a.u.)^3
     number of atoms/cell      =            5
     number of atomic types    =            3
     number of electrons       =        40.00
     number of Kohn-Sham states=           24
     kinetic-energy cutoff     =      40.0000  Ry
     charge density cutoff     =     160.0000  Ry
     convergence threshold     =      1.0E-08
     mixing beta               =       0.7000
     number of iterations used =            8  plain     mixing
     Exchange-correlation      =  SLA  PW   PBX  PBC ( 1  4  3  4 0 0)

     celldm(1)=   8.283573  celldm(2)=   0.000000  celldm(3)=   0.000000
     celldm(4)=   0.000000  celldm(5)=   0.000000  celldm(6)=   0.000000

     crystal axes: (cart. coord. in units of alat)
               a(1) = (   1.000000   0.000000   0.000000 )  
               a(2) = (   0.000000   1.000000   0.000000 )  
               a(3) = (   0.000000   0.000000   1.000000 )  

     reciprocal axes: (cart. coord. in units 2 pi/alat)
               b(1) = (  1.000000  0.000000  0.000000 )  
               b(2) = (  0.000000  1.000000  0.000000 )  
               b(3) = (  0.000000  0.000000  1.000000 )  


     PseudoPot. # 1 for O  read from file:
     /home/azadoks/.local/share/pseudo/GBRV_PBE_US/o_pbe_v1.2.uspp.F.UPF
     MD5 check sum: 734c27235a0248c51dbae37a1fbe46ec
     Pseudo is Ultrasoft + core correction, Zval =  6.0
     Generated by new atomic code, or converted to UPF format
     Using radial grid of  737 points,  5 beta functions with: 
                l(1) =   0
                l(2) =   0
                l(3) =   1
                l(4) =   1
                l(5) =   2
     Q(r) pseudized with  8 coefficients,  rinner =    0.900   0.900   0.900
                                                       0.900   0.900

     PseudoPot. # 2 for Sr read from file:
     /home/azadoks/.local/share/pseudo/GBRV_PBE_US/sr_pbe_v1.uspp.F.UPF
     MD5 check sum: 6b418c05fbe9db5448babca5e47b7a5b
     Pseudo is Ultrasoft + core correction, Zval = 10.0
     Generated by new atomic code, or converted to UPF format
     Using radial grid of  883 points,  6 beta functions with: 
                l(1) =   0
                l(2) =   0
                l(3) =   1
                l(4) =   1
                l(5) =   2
                l(6) =   2
     Q(r) pseudized with  6 coefficients,  rinner =    1.400   1.400   1.400
                                                       1.400   1.400

     PseudoPot. # 3 for Ti read from file:
     /home/azadoks/.local/share/pseudo/GBRV_PBE_US/ti_pbe_v1.4.uspp.F.UPF
     MD5 check sum: 88a00a6731bd790ddea75d31a80cb452
     Pseudo is Ultrasoft + core correction, Zval = 12.0
     Generated by new atomic code, or converted to UPF format
     Using radial grid of  851 points,  6 beta functions with: 
                l(1) =   0
                l(2) =   0
                l(3) =   1
                l(4) =   1
                l(5) =   2
                l(6) =   2
     Q(r) pseudized with  6 coefficients,  rinner =    1.000   1.000   1.000
                                                       1.000   1.000

     atomic species   valence    mass     pseudopotential
        O              6.00    15.99940     O ( 1.00)
        Sr            10.00    87.62000     Sr( 1.00)
        Ti            12.00    47.86700     Ti( 1.00)

     48 Sym. Ops., with inversion, found


                                    s                        frac. trans.

      isym =  1     identity                                     

 cryst.   s( 1) = (     1          0          0      )
                  (     0          1          0      )
                  (     0          0          1      )

 cart.    s( 1) = (  1.0000000  0.0000000  0.0000000 )
                  (  0.0000000  1.0000000  0.0000000 )
                  (  0.0000000  0.0000000  1.0000000 )


      isym =  2     180 deg rotation - cart. axis [0,0,1]        

 cryst.   s( 2) = (    -1          0          0      )
                  (     0         -1          0      )
                  (     0          0          1      )

 cart.    s( 2) = ( -1.0000000  0.0000000  0.0000000 )
                  (  0.0000000 -1.0000000  0.0000000 )
                  (  0.0000000  0.0000000  1.0000000 )


      isym =  3     180 deg rotation - cart. axis [0,1,0]        

 cryst.   s( 3) = (    -1          0          0      )
                  (     0          1          0      )
                  (     0          0         -1      )

 cart.    s( 3) = ( -1.0000000  0.0000000  0.0000000 )
                  (  0.0000000  1.0000000  0.0000000 )
                  (  0.0000000  0.0000000 -1.0000000 )


      isym =  4     180 deg rotation - cart. axis [1,0,0]        

 cryst.   s( 4) = (     1          0          0      )
                  (     0         -1          0      )
                  (     0          0         -1      )

 cart.    s( 4) = (  1.0000000  0.0000000  0.0000000 )
                  (  0.0000000 -1.0000000  0.0000000 )
                  (  0.0000000  0.0000000 -1.0000000 )


      isym =  5     180 deg rotation - cart. axis [1,1,0]        

 cryst.   s( 5) = (     0          1          0      )
                  (     1          0          0      )
                  (     0          0         -1      )

 cart.    s( 5) = (  0.0000000  1.0000000  0.0000000 )
                  (  1.0000000  0.0000000  0.0000000 )
                  (  0.0000000  0.0000000 -1.0000000 )


      isym =  6     180 deg rotation - cart. axis [1,-1,0]       

 cryst.   s( 6) = (     0         -1          0      )
                  (    -1          0          0      )
                  (     0          0         -1      )

 cart.    s( 6) = (  0.0000000 -1.0000000  0.0000000 )
                  ( -1.0000000  0.0000000  0.0000000 )
                  (  0.0000000  0.0000000 -1.0000000 )


      isym =  7      90 deg rotation - cart. axis [0,0,-1]       

 cryst.   s( 7) = (     0         -1          0      )
                  (     1          0          0      )
                  (     0          0          1      )

 cart.    s( 7) = (  0.0000000  1.0000000  0.0000000 )
                  ( -1.0000000  0.0000000  0.0000000 )
                  (  0.0000000  0.0000000  1.0000000 )


      isym =  8      90 deg rotation - cart. axis [0,0,1]        

 cryst.   s( 8) = (     0          1          0      )
                  (    -1          0          0      )
                  (     0          0          1      )

 cart.    s( 8) = (  0.0000000 -1.0000000  0.0000000 )
                  (  1.0000000  0.0000000  0.0000000 )
                  (  0.0000000  0.0000000  1.0000000 )


      isym =  9     180 deg rotation - cart. axis [1,0,1]        

 cryst.   s( 9) = (     0          0          1      )
                  (     0         -1          0      )
                  (     1          0          0      )

 cart.    s( 9) = (  0.0000000  0.0000000  1.0000000 )
                  (  0.0000000 -1.0000000  0.0000000 )
                  (  1.0000000  0.0000000  0.0000000 )


      isym = 10     180 deg rotation - cart. axis [-1,0,1]       

 cryst.   s(10) = (     0          0         -1      )
                  (     0         -1          0      )
                  (    -1          0          0      )

 cart.    s(10) = (  0.0000000  0.0000000 -1.0000000 )
                  (  0.0000000 -1.0000000  0.0000000 )
                  ( -1.0000000  0.0000000  0.0000000 )


      isym = 11      90 deg rotation - cart. axis [0,1,0]        

 cryst.   s(11) = (     0          0         -1      )
                  (     0          1          0      )
                  (     1          0          0      )

 cart.    s(11) = (  0.0000000  0.0000000  1.0000000 )
                  (  0.0000000  1.0000000  0.0000000 )
                  ( -1.0000000  0.0000000  0.0000000 )


      isym = 12      90 deg rotation - cart. axis [0,-1,0]       

 cryst.   s(12) = (     0          0          1      )
                  (     0          1          0      )
                  (    -1          0          0      )

 cart.    s(12) = (  0.0000000  0.0000000 -1.0000000 )
                  (  0.0000000  1.0000000  0.0000000 )
                  (  1.0000000  0.0000000  0.0000000 )


      isym = 13     180 deg rotation - cart. axis [0,1,1]        

 cryst.   s(13) = (    -1          0          0      )
                  (     0          0          1      )
                  (     0          1          0      )

 cart.    s(13) = ( -1.0000000  0.0000000  0.0000000 )
                  (  0.0000000  0.0000000  1.0000000 )
                  (  0.0000000  1.0000000  0.0000000 )


      isym = 14     180 deg rotation - cart. axis [0,1,-1]       

 cryst.   s(14) = (    -1          0          0      )
                  (     0          0         -1      )
                  (     0         -1          0      )

 cart.    s(14) = ( -1.0000000  0.0000000  0.0000000 )
                  (  0.0000000  0.0000000 -1.0000000 )
                  (  0.0000000 -1.0000000  0.0000000 )


      isym = 15      90 deg rotation - cart. axis [-1,0,0]       

 cryst.   s(15) = (     1          0          0      )
                  (     0          0         -1      )
                  (     0          1          0      )

 cart.    s(15) = (  1.0000000  0.0000000  0.0000000 )
                  (  0.0000000  0.0000000  1.0000000 )
                  (  0.0000000 -1.0000000  0.0000000 )


      isym = 16      90 deg rotation - cart. axis [1,0,0]        

 cryst.   s(16) = (     1          0          0      )
                  (     0          0          1      )
                  (     0         -1          0      )

 cart.    s(16) = (  1.0000000  0.0000000  0.0000000 )
                  (  0.0000000  0.0000000 -1.0000000 )
                  (  0.0000000  1.0000000  0.0000000 )


      isym = 17     120 deg rotation - cart. axis [-1,-1,-1]     

 cryst.   s(17) = (     0          0          1      )
                  (     1          0          0      )
                  (     0          1          0      )

 cart.    s(17) = (  0.0000000  1.0000000  0.0000000 )
                  (  0.0000000  0.0000000  1.0000000 )
                  (  1.0000000  0.0000000  0.0000000 )


      isym = 18     120 deg rotation - cart. axis [-1,1,1]       

 cryst.   s(18) = (     0          0         -1      )
                  (    -1          0          0      )
                  (     0          1          0      )

 cart.    s(18) = (  0.0000000 -1.0000000  0.0000000 )
                  (  0.0000000  0.0000000  1.0000000 )
                  ( -1.0000000  0.0000000  0.0000000 )


      isym = 19     120 deg rotation - cart. axis [1,1,-1]       

 cryst.   s(19) = (     0          0         -1      )
                  (     1          0          0      )
                  (     0         -1          0      )

 cart.    s(19) = (  0.0000000  1.0000000  0.0000000 )
                  (  0.0000000  0.0000000 -1.0000000 )
                  ( -1.0000000  0.0000000  0.0000000 )


      isym = 20     120 deg rotation - cart. axis [1,-1,1]       

 cryst.   s(20) = (     0          0          1      )
                  (    -1          0          0      )
                  (     0         -1          0      )

 cart.    s(20) = (  0.0000000 -1.0000000  0.0000000 )
                  (  0.0000000  0.0000000 -1.0000000 )
                  (  1.0000000  0.0000000  0.0000000 )


      isym = 21     120 deg rotation - cart. axis [1,1,1]        

 cryst.   s(21) = (     0          1          0      )
                  (     0          0          1      )
                  (     1          0          0      )

 cart.    s(21) = (  0.0000000  0.0000000  1.0000000 )
                  (  1.0000000  0.0000000  0.0000000 )
                  (  0.0000000  1.0000000  0.0000000 )


      isym = 22     120 deg rotation - cart. axis [-1,1,-1]      

 cryst.   s(22) = (     0         -1          0      )
                  (     0          0         -1      )
                  (     1          0          0      )

 cart.    s(22) = (  0.0000000  0.0000000  1.0000000 )
                  ( -1.0000000  0.0000000  0.0000000 )
                  (  0.0000000 -1.0000000  0.0000000 )


      isym = 23     120 deg rotation - cart. axis [1,-1,-1]      

 cryst.   s(23) = (     0         -1          0      )
                  (     0          0          1      )
                  (    -1          0          0      )

 cart.    s(23) = (  0.0000000  0.0000000 -1.0000000 )
                  ( -1.0000000  0.0000000  0.0000000 )
                  (  0.0000000  1.0000000  0.0000000 )


      isym = 24     120 deg rotation - cart. axis [-1,-1,1]      

 cryst.   s(24) = (     0          1          0      )
                  (     0          0         -1      )
                  (    -1          0          0      )

 cart.    s(24) = (  0.0000000  0.0000000 -1.0000000 )
                  (  1.0000000  0.0000000  0.0000000 )
                  (  0.0000000 -1.0000000  0.0000000 )


      isym = 25     inversion                                    

 cryst.   s(25) = (    -1          0          0      )
                  (     0         -1          0      )
                  (     0          0         -1      )

 cart.    s(25) = ( -1.0000000  0.0000000  0.0000000 )
                  (  0.0000000 -1.0000000  0.0000000 )
                  (  0.0000000  0.0000000 -1.0000000 )


      isym = 26     inv. 180 deg rotation - cart. axis [0,0,1]   

 cryst.   s(26) = (     1          0          0      )
                  (     0          1          0      )
                  (     0          0         -1      )

 cart.    s(26) = (  1.0000000  0.0000000  0.0000000 )
                  (  0.0000000  1.0000000  0.0000000 )
                  (  0.0000000  0.0000000 -1.0000000 )


      isym = 27     inv. 180 deg rotation - cart. axis [0,1,0]   

 cryst.   s(27) = (     1          0          0      )
                  (     0         -1          0      )
                  (     0          0          1      )

 cart.    s(27) = (  1.0000000  0.0000000  0.0000000 )
                  (  0.0000000 -1.0000000  0.0000000 )
                  (  0.0000000  0.0000000  1.0000000 )


      isym = 28     inv. 180 deg rotation - cart. axis [1,0,0]   

 cryst.   s(28) = (    -1          0          0      )
                  (     0          1          0      )
                  (     0          0          1      )

 cart.    s(28) = ( -1.0000000  0.0000000  0.0000000 )
                  (  0.0000000  1.0000000  0.0000000 )
                  (  0.0000000  0.0000000  1.0000000 )


      isym = 29     inv. 180 deg rotation - cart. axis [1,1,0]   

 cryst.   s(29) = (     0         -1          0      )
                  (    -1          0          0      )
                  (     0          0          1      )

 cart.    s(29) = (  0.0000000 -1.0000000  0.0000000 )
                  ( -1.0000000  0.0000000  0.0000000 )
                  (  0.0000000  0.0000000  1.0000000 )


      isym = 30     inv. 180 deg rotation - cart. axis [1,-1,0]  

 cryst.   s(30) = (     0          1          0      )
                  (     1          0          0      )
                  (     0          0          1      )

 cart.    s(30) = (  0.0000000  1.0000000  0.0000000 )
                  (  1.0000000  0.0000000  0.0000000 )
                  (  0.0000000  0.0000000  1.0000000 )


      isym = 31     inv.  90 deg rotation - cart. axis [0,0,-1]  

 cryst.   s(31) = (     0          1          0      )
                  (    -1          0          0      )
                  (     0          0         -1      )

 cart.    s(31) = (  0.0000000 -1.0000000  0.0000000 )
                  (  1.0000000  0.0000000  0.0000000 )
                  (  0.0000000  0.0000000 -1.0000000 )


      isym = 32     inv.  90 deg rotation - cart. axis [0,0,1]   

 cryst.   s(32) = (     0         -1          0      )
                  (     1          0          0      )
                  (     0          0         -1      )

 cart.    s(32) = (  0.0000000  1.0000000  0.0000000 )
                  ( -1.0000000  0.0000000  0.0000000 )
                  (  0.0000000  0.0000000 -1.0000000 )


      isym = 33     inv. 180 deg rotation - cart. axis [1,0,1]   

 cryst.   s(33) = (     0          0         -1      )
                  (     0          1          0      )
                  (    -1          0          0      )

 cart.    s(33) = (  0.0000000  0.0000000 -1.0000000 )
                  (  0.0000000  1.0000000  0.0000000 )
                  ( -1.0000000  0.0000000  0.0000000 )


      isym = 34     inv. 180 deg rotation - cart. axis [-1,0,1]  

 cryst.   s(34) = (     0          0          1      )
                  (     0          1          0      )
                  (     1          0          0      )

 cart.    s(34) = (  0.0000000  0.0000000  1.0000000 )
                  (  0.0000000  1.0000000  0.0000000 )
                  (  1.0000000  0.0000000  0.0000000 )


      isym = 35     inv.  90 deg rotation - cart. axis [0,1,0]   

 cryst.   s(35) = (     0          0          1      )
                  (     0         -1          0      )
                  (    -1          0          0      )

 cart.    s(35) = (  0.0000000  0.0000000 -1.0000000 )
                  (  0.0000000 -1.0000000  0.0000000 )
                  (  1.0000000  0.0000000  0.0000000 )


      isym = 36     inv.  90 deg rotation - cart. axis [0,-1,0]  

 cryst.   s(36) = (     0          0         -1      )
                  (     0         -1          0      )
                  (     1          0          0      )

 cart.    s(36) = (  0.0000000  0.0000000  1.0000000 )
                  (  0.0000000 -1.0000000  0.0000000 )
                  ( -1.0000000  0.0000000  0.0000000 )


      isym = 37     inv. 180 deg rotation - cart. axis [0,1,1]   

 cryst.   s(37) = (     1          0          0      )
                  (     0          0         -1      )
                  (     0         -1          0      )

 cart.    s(37) = (  1.0000000  0.0000000  0.0000000 )
                  (  0.0000000  0.0000000 -1.0000000 )
                  (  0.0000000 -1.0000000  0.0000000 )


      isym = 38     inv. 180 deg rotation - cart. axis [0,1,-1]  

 cryst.   s(38) = (     1          0          0      )
                  (     0          0          1      )
                  (     0          1          0      )

 cart.    s(38) = (  1.0000000  0.0000000  0.0000000 )
                  (  0.0000000  0.0000000  1.0000000 )
                  (  0.0000000  1.0000000  0.0000000 )


      isym = 39     inv.  90 deg rotation - cart. axis [-1,0,0]  

 cryst.   s(39) = (    -1          0          0      )
                  (     0          0          1      )
                  (     0         -1          0      )

 cart.    s(39) = ( -1.0000000  0.0000000  0.0000000 )
                  (  0.0000000  0.0000000 -1.0000000 )
                  (  0.0000000  1.0000000  0.0000000 )


      isym = 40     inv.  90 deg rotation - cart. axis [1,0,0]   

 cryst.   s(40) = (    -1          0          0      )
                  (     0          0         -1      )
                  (     0          1          0      )

 cart.    s(40) = ( -1.0000000  0.0000000  0.0000000 )
                  (  0.0000000  0.0000000  1.0000000 )
                  (  0.0000000 -1.0000000  0.0000000 )


      isym = 41     inv. 120 deg rotation - cart. axis [-1,-1,-1]

 cryst.   s(41) = (     0          0         -1      )
                  (    -1          0          0      )
                  (     0         -1          0      )

 cart.    s(41) = (  0.0000000 -1.0000000  0.0000000 )
                  (  0.0000000  0.0000000 -1.0000000 )
                  ( -1.0000000  0.0000000  0.0000000 )


      isym = 42     inv. 120 deg rotation - cart. axis [-1,1,1]  

 cryst.   s(42) = (     0          0          1      )
                  (     1          0          0      )
                  (     0         -1          0      )

 cart.    s(42) = (  0.0000000  1.0000000  0.0000000 )
                  (  0.0000000  0.0000000 -1.0000000 )
                  (  1.0000000  0.0000000  0.0000000 )


      isym = 43     inv. 120 deg rotation - cart. axis [1,1,-1]  

 cryst.   s(43) = (     0          0          1      )
                  (    -1          0          0      )
                  (     0          1          0      )

 cart.    s(43) = (  0.0000000 -1.0000000  0.0000000 )
                  (  0.0000000  0.0000000  1.0000000 )
                  (  1.0000000  0.0000000  0.0000000 )


      isym = 44     inv. 120 deg rotation - cart. axis [1,-1,1]  

 cryst.   s(44) = (     0          0         -1      )
                  (     1          0          0      )
                  (     0          1          0      )

 cart.    s(44) = (  0.0000000  1.0000000  0.0000000 )
                  (  0.0000000  0.0000000  1.0000000 )
                  ( -1.0000000  0.0000000  0.0000000 )


      isym = 45     inv. 120 deg rotation - cart. axis [1,1,1]   

 cryst.   s(45) = (     0         -1          0      )
                  (     0          0         -1      )
                  (    -1          0          0      )

 cart.    s(45) = (  0.0000000  0.0000000 -1.0000000 )
                  ( -1.0000000  0.0000000  0.0000000 )
                  (  0.0000000 -1.0000000  0.0000000 )


      isym = 46     inv. 120 deg rotation - cart. axis [-1,1,-1] 

 cryst.   s(46) = (     0          1          0      )
                  (     0          0          1      )
                  (    -1          0          0      )

 cart.    s(46) = (  0.0000000  0.0000000 -1.0000000 )
                  (  1.0000000  0.0000000  0.0000000 )
                  (  0.0000000  1.0000000  0.0000000 )


      isym = 47     inv. 120 deg rotation - cart. axis [1,-1,-1] 

 cryst.   s(47) = (     0          1          0      )
                  (     0          0         -1      )
                  (     1          0          0      )

 cart.    s(47) = (  0.0000000  0.0000000  1.0000000 )
                  (  1.0000000  0.0000000  0.0000000 )
                  (  0.0000000 -1.0000000  0.0000000 )


      isym = 48     inv. 120 deg rotation - cart. axis [-1,-1,1] 

 cryst.   s(48) = (     0         -1          0      )
                  (     0          0          1      )
                  (     1          0          0      )

 cart.    s(48) = (  0.0000000  0.0000000  1.0000000 )
                  ( -1.0000000  0.0000000  0.0000000 )
                  (  0.0000000  1.0000000  0.0000000 )


   Cartesian axes

     site n.     atom                  positions (alat units)
         1           O   tau(   1) = (   0.5000000   0.0000000   0.5000000  )
         2           O   tau(   2) = (   0.5000000   0.5000000   0.0000000  )
         3           O   tau(   3) = (   0.0000000   0.5000000   0.5000000  )
         4           Ti  tau(   4) = (   0.5000000   0.5000000   0.5000000  )
         5           Sr  tau(   5) = (   0.0000000   0.0000000   0.0000000  )

   Crystallographic axes

     site n.     atom                  positions (cryst. coord.)
         1           O   tau(   1) = (  0.5000000  0.0000000  0.5000000  )
         2           O   tau(   2) = (  0.5000000  0.5000000  0.0000000  )
         3           O   tau(   3) = (  0.0000000  0.5000000  0.5000000  )
         4           Ti  tau(   4) = (  0.5000000  0.5000000  0.5000000  )
         5           Sr  tau(   5) = (  0.0000000  0.0000000  0.0000000  )

     number of k points=   364  Marzari-Vanderbilt smearing, width (Ry)=  0.0010
                       cart. coord. in units 2pi/alat
        k(    1) = (   0.0000000   0.0000000   0.0000000), wk =   0.0001878
        k(    2) = (   0.0000000   0.0000000   0.0454545), wk =   0.0011270
        k(    3) = (   0.0000000   0.0000000   0.0909091), wk =   0.0011270
        k(    4) = (   0.0000000   0.0000000   0.1363636), wk =   0.0011270
        k(    5) = (   0.0000000   0.0000000   0.1818182), wk =   0.0011270
        k(    6) = (   0.0000000   0.0000000   0.2272727), wk =   0.0011270
        k(    7) = (   0.0000000   0.0000000   0.2727273), wk =   0.0011270
        k(    8) = (   0.0000000   0.0000000   0.3181818), wk =   0.0011270
        k(    9) = (   0.0000000   0.0000000   0.3636364), wk =   0.0011270
        k(   10) = (   0.0000000   0.0000000   0.4090909), wk =   0.0011270
        k(   11) = (   0.0000000   0.0000000   0.4545455), wk =   0.0011270
        k(   12) = (   0.0000000   0.0000000  -0.5000000), wk =   0.0005635
        k(   13) = (   0.0000000   0.0454545   0.0454545), wk =   0.0022539
        k(   14) = (   0.0000000   0.0454545   0.0909091), wk =   0.0045079
        k(   15) = (   0.0000000   0.0454545   0.1363636), wk =   0.0045079
        k(   16) = (   0.0000000   0.0454545   0.1818182), wk =   0.0045079
        k(   17) = (   0.0000000   0.0454545   0.2272727), wk =   0.0045079
        k(   18) = (   0.0000000   0.0454545   0.2727273), wk =   0.0045079
        k(   19) = (   0.0000000   0.0454545   0.3181818), wk =   0.0045079
        k(   20) = (   0.0000000   0.0454545   0.3636364), wk =   0.0045079
        k(   21) = (   0.0000000   0.0454545   0.4090909), wk =   0.0045079
        k(   22) = (   0.0000000   0.0454545   0.4545455), wk =   0.0045079
        k(   23) = (   0.0000000   0.0454545  -0.5000000), wk =   0.0022539
        k(   24) = (   0.0000000   0.0909091   0.0909091), wk =   0.0022539
        k(   25) = (   0.0000000   0.0909091   0.1363636), wk =   0.0045079
        k(   26) = (   0.0000000   0.0909091   0.1818182), wk =   0.0045079
        k(   27) = (   0.0000000   0.0909091   0.2272727), wk =   0.0045079
        k(   28) = (   0.0000000   0.0909091   0.2727273), wk =   0.0045079
        k(   29) = (   0.0000000   0.0909091   0.3181818), wk =   0.0045079
        k(   30) = (   0.0000000   0.0909091   0.3636364), wk =   0.0045079
        k(   31) = (   0.0000000   0.0909091   0.4090909), wk =   0.0045079
        k(   32) = (   0.0000000   0.0909091   0.4545455), wk =   0.0045079
        k(   33) = (   0.0000000   0.0909091  -0.5000000), wk =   0.0022539
        k(   34) = (   0.0000000   0.1363636   0.1363636), wk =   0.0022539
        k(   35) = (   0.0000000   0.1363636   0.1818182), wk =   0.0045079
        k(   36) = (   0.0000000   0.1363636   0.2272727), wk =   0.0045079
        k(   37) = (   0.0000000   0.1363636   0.2727273), wk =   0.0045079
        k(   38) = (   0.0000000   0.1363636   0.3181818), wk =   0.0045079
        k(   39) = (   0.0000000   0.1363636   0.3636364), wk =   0.0045079
        k(   40) = (   0.0000000   0.1363636   0.4090909), wk =   0.0045079
        k(   41) = (   0.0000000   0.1363636   0.4545455), wk =   0.0045079
        k(   42) = (   0.0000000   0.1363636  -0.5000000), wk =   0.0022539
        k(   43) = (   0.0000000   0.1818182   0.1818182), wk =   0.0022539
        k(   44) = (   0.0000000   0.1818182   0.2272727), wk =   0.0045079
        k(   45) = (   0.0000000   0.1818182   0.2727273), wk =   0.0045079
        k(   46) = (   0.0000000   0.1818182   0.3181818), wk =   0.0045079
        k(   47) = (   0.0000000   0.1818182   0.3636364), wk =   0.0045079
        k(   48) = (   0.0000000   0.1818182   0.4090909), wk =   0.0045079
        k(   49) = (   0.0000000   0.1818182   0.4545455), wk =   0.0045079
        k(   50) = (   0.0000000   0.1818182  -0.5000000), wk =   0.0022539
        k(   51) = (   0.0000000   0.2272727   0.2272727), wk =   0.0022539
        k(   52) = (   0.0000000   0.2272727   0.2727273), wk =   0.0045079
        k(   53) = (   0.0000000   0.2272727   0.3181818), wk =   0.0045079
        k(   54) = (   0.0000000   0.2272727   0.3636364), wk =   0.0045079
        k(   55) = (   0.0000000   0.2272727   0.4090909), wk =   0.0045079
        k(   56) = (   0.0000000   0.2272727   0.4545455), wk =   0.0045079
        k(   57) = (   0.0000000   0.2272727  -0.5000000), wk =   0.0022539
        k(   58) = (   0.0000000   0.2727273   0.2727273), wk =   0.0022539
        k(   59) = (   0.0000000   0.2727273   0.3181818), wk =   0.0045079
        k(   60) = (   0.0000000   0.2727273   0.3636364), wk =   0.0045079
        k(   61) = (   0.0000000   0.2727273   0.4090909), wk =   0.0045079
        k(   62) = (   0.0000000   0.2727273   0.4545455), wk =   0.0045079
        k(   63) = (   0.0000000   0.2727273  -0.5000000), wk =   0.0022539
        k(   64) = (   0.0000000   0.3181818   0.3181818), wk =   0.0022539
        k(   65) = (   0.0000000   0.3181818   0.3636364), wk =   0.0045079
        k(   66) = (   0.0000000   0.3181818   0.4090909), wk =   0.0045079
        k(   67) = (   0.0000000   0.3181818   0.4545455), wk =   0.0045079
        k(   68) = (   0.0000000   0.3181818  -0.5000000), wk =   0.0022539
        k(   69) = (   0.0000000   0.3636364   0.3636364), wk =   0.0022539
        k(   70) = (   0.0000000   0.3636364   0.4090909), wk =   0.0045079
        k(   71) = (   0.0000000   0.3636364   0.4545455), wk =   0.0045079
        k(   72) = (   0.0000000   0.3636364  -0.5000000), wk =   0.0022539
        k(   73) = (   0.0000000   0.4090909   0.4090909), wk =   0.0022539
        k(   74) = (   0.0000000   0.4090909   0.4545455), wk =   0.0045079
        k(   75) = (   0.0000000   0.4090909  -0.5000000), wk =   0.0022539
        k(   76) = (   0.0000000   0.4545455   0.4545455), wk =   0.0022539
        k(   77) = (   0.0000000   0.4545455  -0.5000000), wk =   0.0022539
        k(   78) = (   0.0000000  -0.5000000  -0.5000000), wk =   0.0005635
        k(   79) = (   0.0454545   0.0454545   0.0454545), wk =   0.0015026
        k(   80) = (   0.0454545   0.0454545   0.0909091), wk =   0.0045079
        k(   81) = (   0.0454545   0.0454545   0.1363636), wk =   0.0045079
        k(   82) = (   0.0454545   0.0454545   0.1818182), wk =   0.0045079
        k(   83) = (   0.0454545   0.0454545   0.2272727), wk =   0.0045079
        k(   84) = (   0.0454545   0.0454545   0.2727273), wk =   0.0045079
        k(   85) = (   0.0454545   0.0454545   0.3181818), wk =   0.0045079
        k(   86) = (   0.0454545   0.0454545   0.3636364), wk =   0.0045079
        k(   87) = (   0.0454545   0.0454545   0.4090909), wk =   0.0045079
        k(   88) = (   0.0454545   0.0454545   0.4545455), wk =   0.0045079
        k(   89) = (   0.0454545   0.0454545  -0.5000000), wk =   0.0022539
        k(   90) = (   0.0454545   0.0909091   0.0909091), wk =   0.0045079
        k(   91) = (   0.0454545   0.0909091   0.1363636), wk =   0.0090158
        k(   92) = (   0.0454545   0.0909091   0.1818182), wk =   0.0090158
        k(   93) = (   0.0454545   0.0909091   0.2272727), wk =   0.0090158
        k(   94) = (   0.0454545   0.0909091   0.2727273), wk =   0.0090158
        k(   95) = (   0.0454545   0.0909091   0.3181818), wk =   0.0090158
        k(   96) = (   0.0454545   0.0909091   0.3636364), wk =   0.0090158
        k(   97) = (   0.0454545   0.0909091   0.4090909), wk =   0.0090158
        k(   98) = (   0.0454545   0.0909091   0.4545455), wk =   0.0090158
        k(   99) = (   0.0454545   0.0909091  -0.5000000), wk =   0.0045079
        k(  100) = (   0.0454545   0.1363636   0.1363636), wk =   0.0045079
        k(  101) = (   0.0454545   0.1363636   0.1818182), wk =   0.0090158
        k(  102) = (   0.0454545   0.1363636   0.2272727), wk =   0.0090158
        k(  103) = (   0.0454545   0.1363636   0.2727273), wk =   0.0090158
        k(  104) = (   0.0454545   0.1363636   0.3181818), wk =   0.0090158
        k(  105) = (   0.0454545   0.1363636   0.3636364), wk =   0.0090158
        k(  106) = (   0.0454545   0.1363636   0.4090909), wk =   0.0090158
        k(  107) = (   0.0454545   0.1363636   0.4545455), wk =   0.0090158
        k(  108) = (   0.0454545   0.1363636  -0.5000000), wk =   0.0045079
        k(  109) = (   0.0454545   0.1818182   0.1818182), wk =   0.0045079
        k(  110) = (   0.0454545   0.1818182   0.2272727), wk =   0.0090158
        k(  111) = (   0.0454545   0.1818182   0.2727273), wk =   0.0090158
        k(  112) = (   0.0454545   0.1818182   0.3181818), wk =   0.0090158
        k(  113) = (   0.0454545   0.1818182   0.3636364), wk =   0.0090158
        k(  114) = (   0.0454545   0.1818182   0.4090909), wk =   0.0090158
        k(  115) = (   0.0454545   0.1818182   0.4545455), wk =   0.0090158
        k(  116) = (   0.0454545   0.1818182  -0.5000000), wk =   0.0045079
        k(  117) = (   0.0454545   0.2272727   0.2272727), wk =   0.0045079
        k(  118) = (   0.0454545   0.2272727   0.2727273), wk =   0.0090158
        k(  119) = (   0.0454545   0.2272727   0.3181818), wk =   0.0090158
        k(  120) = (   0.0454545   0.2272727   0.3636364), wk =   0.0090158
        k(  121) = (   0.0454545   0.2272727   0.4090909), wk =   0.0090158
        k(  122) = (   0.0454545   0.2272727   0.4545455), wk =   0.0090158
        k(  123) = (   0.0454545   0.2272727  -0.5000000), wk =   0.0045079
        k(  124) = (   0.0454545   0.2727273   0.2727273), wk =   0.0045079
        k(  125) = (   0.0454545   0.2727273   0.3181818), wk =   0.0090158
        k(  126) = (   0.0454545   0.2727273   0.3636364), wk =   0.0090158
        k(  127) = (   0.0454545   0.2727273   0.4090909), wk =   0.0090158
        k(  128) = (   0.0454545   0.2727273   0.4545455), wk =   0.0090158
        k(  129) = (   0.0454545   0.2727273  -0.5000000), wk =   0.0045079
        k(  130) = (   0.0454545   0.3181818   0.3181818), wk =   0.0045079
        k(  131) = (   0.0454545   0.3181818   0.3636364), wk =   0.0090158
        k(  132) = (   0.0454545   0.3181818   0.4090909), wk =   0.0090158
        k(  133) = (   0.0454545   0.3181818   0.4545455), wk =   0.0090158
        k(  134) = (   0.0454545   0.3181818  -0.5000000), wk =   0.0045079
        k(  135) = (   0.0454545   0.3636364   0.3636364), wk =   0.0045079
        k(  136) = (   0.0454545   0.3636364   0.4090909), wk =   0.0090158
        k(  137) = (   0.0454545   0.3636364   0.4545455), wk =   0.0090158
        k(  138) = (   0.0454545   0.3636364  -0.5000000), wk =   0.0045079
        k(  139) = (   0.0454545   0.4090909   0.4090909), wk =   0.0045079
        k(  140) = (   0.0454545   0.4090909   0.4545455), wk =   0.0090158
        k(  141) = (   0.0454545   0.4090909  -0.5000000), wk =   0.0045079
        k(  142) = (   0.0454545   0.4545455   0.4545455), wk =   0.0045079
        k(  143) = (   0.0454545   0.4545455  -0.5000000), wk =   0.0045079
        k(  144) = (   0.0454545  -0.5000000  -0.5000000), wk =   0.0011270
        k(  145) = (   0.0909091   0.0909091   0.0909091), wk =   0.0015026
        k(  146) = (   0.0909091   0.0909091   0.1363636), wk =   0.0045079
        k(  147) = (   0.0909091   0.0909091   0.1818182), wk =   0.0045079
        k(  148) = (   0.0909091   0.0909091   0.2272727), wk =   0.0045079
        k(  149) = (   0.0909091   0.0909091   0.2727273), wk =   0.0045079
        k(  150) = (   0.0909091   0.0909091   0.3181818), wk =   0.0045079
        k(  151) = (   0.0909091   0.0909091   0.3636364), wk =   0.0045079
        k(  152) = (   0.0909091   0.0909091   0.4090909), wk =   0.0045079
        k(  153) = (   0.0909091   0.0909091   0.4545455), wk =   0.0045079
        k(  154) = (   0.0909091   0.0909091  -0.5000000), wk =   0.0022539
        k(  155) = (   0.0909091   0.1363636   0.1363636), wk =   0.0045079
        k(  156) = (   0.0909091   0.1363636   0.1818182), wk =   0.0090158
        k(  157) = (   0.0909091   0.1363636   0.2272727), wk =   0.0090158
        k(  158) = (   0.0909091   0.1363636   0.2727273), wk =   0.0090158
        k(  159) = (   0.0909091   0.1363636   0.3181818), wk =   0.0090158
        k(  160) = (   0.0909091   0.1363636   0.3636364), wk =   0.0090158
        k(  161) = (   0.0909091   0.1363636   0.4090909), wk =   0.0090158
        k(  162) = (   0.0909091   0.1363636   0.4545455), wk =   0.0090158
        k(  163) = (   0.0909091   0.1363636  -0.5000000), wk =   0.0045079
        k(  164) = (   0.0909091   0.1818182   0.1818182), wk =   0.0045079
        k(  165) = (   0.0909091   0.1818182   0.2272727), wk =   0.0090158
        k(  166) = (   0.0909091   0.1818182   0.2727273), wk =   0.0090158
        k(  167) = (   0.0909091   0.1818182   0.3181818), wk =   0.0090158
        k(  168) = (   0.0909091   0.1818182   0.3636364), wk =   0.0090158
        k(  169) = (   0.0909091   0.1818182   0.4090909), wk =   0.0090158
        k(  170) = (   0.0909091   0.1818182   0.4545455), wk =   0.0090158
        k(  171) = (   0.0909091   0.1818182  -0.5000000), wk =   0.0045079
        k(  172) = (   0.0909091   0.2272727   0.2272727), wk =   0.0045079
        k(  173) = (   0.0909091   0.2272727   0.2727273), wk =   0.0090158
        k(  174) = (   0.0909091   0.2272727   0.3181818), wk =   0.0090158
        k(  175) = (   0.0909091   0.2272727   0.3636364), wk =   0.0090158
        k(  176) = (   0.0909091   0.2272727   0.4090909), wk =   0.0090158
        k(  177) = (   0.0909091   0.2272727   0.4545455), wk =   0.0090158
        k(  178) = (   0.0909091   0.2272727  -0.5000000), wk =   0.0045079
        k(  179) = (   0.0909091   0.2727273   0.2727273), wk =   0.0045079
        k(  180) = (   0.0909091   0.2727273   0.3181818), wk =   0.0090158
        k(  181) = (   0.0909091   0.2727273   0.3636364), wk =   0.0090158
        k(  182) = (   0.0909091   0.2727273   0.4090909), wk =   0.0090158
        k(  183) = (   0.0909091   0.2727273   0.4545455), wk =   0.0090158
        k(  184) = (   0.0909091   0.2727273  -0.5000000), wk =   0.0045079
        k(  185) = (   0.0909091   0.3181818   0.3181818), wk =   0.0045079
        k(  186) = (   0.0909091   0.3181818   0.3636364), wk =   0.0090158
        k(  187) = (   0.0909091   0.3181818   0.4090909), wk =   0.0090158
        k(  188) = (   0.0909091   0.3181818   0.4545455), wk =   0.0090158
        k(  189) = (   0.0909091   0.3181818  -0.5000000), wk =   0.0045079
        k(  190) = (   0.0909091   0.3636364   0.3636364), wk =   0.0045079
        k(  191) = (   0.0909091   0.3636364   0.4090909), wk =   0.0090158
        k(  192) = (   0.0909091   0.3636364   0.4545455), wk =   0.0090158
        k(  193) = (   0.0909091   0.3636364  -0.5000000), wk =   0.0045079
        k(  194) = (   0.0909091   0.4090909   0.4090909), wk =   0.0045079
        k(  195) = (   0.0909091   0.4090909   0.4545455), wk =   0.0090158
        k(  196) = (   0.0909091   0.4090909  -0.5000000), wk =   0.0045079
        k(  197) = (   0.0909091   0.4545455   0.4545455), wk =   0.0045079
        k(  198) = (   0.0909091   0.4545455  -0.5000000), wk =   0.0045079
        k(  199) = (   0.0909091  -0.5000000  -0.5000000), wk =   0.0011270
        k(  200) = (   0.1363636   0.1363636   0.1363636), wk =   0.0015026
        k(  201) = (   0.1363636   0.1363636   0.1818182), wk =   0.0045079
        k(  202) = (   0.1363636   0.1363636   0.2272727), wk =   0.0045079
        k(  203) = (   0.1363636   0.1363636   0.2727273), wk =   0.0045079
        k(  204) = (   0.1363636   0.1363636   0.3181818), wk =   0.0045079
        k(  205) = (   0.1363636   0.1363636   0.3636364), wk =   0.0045079
        k(  206) = (   0.1363636   0.1363636   0.4090909), wk =   0.0045079
        k(  207) = (   0.1363636   0.1363636   0.4545455), wk =   0.0045079
        k(  208) = (   0.1363636   0.1363636  -0.5000000), wk =   0.0022539
        k(  209) = (   0.1363636   0.1818182   0.1818182), wk =   0.0045079
        k(  210) = (   0.1363636   0.1818182   0.2272727), wk =   0.0090158
        k(  211) = (   0.1363636   0.1818182   0.2727273), wk =   0.0090158
        k(  212) = (   0.1363636   0.1818182   0.3181818), wk =   0.0090158
        k(  213) = (   0.1363636   0.1818182   0.3636364), wk =   0.0090158
        k(  214) = (   0.1363636   0.1818182   0.4090909), wk =   0.0090158
        k(  215) = (   0.1363636   0.1818182   0.4545455), wk =   0.0090158
        k(  216) = (   0.1363636   0.1818182  -0.5000000), wk =   0.0045079
        k(  217) = (   0.1363636   0.2272727   0.2272727), wk =   0.0045079
        k(  218) = (   0.1363636   0.2272727   0.2727273), wk =   0.0090158
        k(  219) = (   0.1363636   0.2272727   0.3181818), wk =   0.0090158
        k(  220) = (   0.1363636   0.2272727   0.3636364), wk =   0.0090158
        k(  221) = (   0.1363636   0.2272727   0.4090909), wk =   0.0090158
        k(  222) = (   0.1363636   0.2272727   0.4545455), wk =   0.0090158
        k(  223) = (   0.1363636   0.2272727  -0.5000000), wk =   0.0045079
        k(  224) = (   0.1363636   0.2727273   0.2727273), wk =   0.0045079
        k(  225) = (   0.1363636   0.2727273   0.3181818), wk =   0.0090158
        k(  226) = (   0.1363636   0.2727273   0.3636364), wk =   0.0090158
        k(  227) = (   0.1363636   0.2727273   0.4090909), wk =   0.0090158
        k(  228) = (   0.1363636   0.2727273   0.4545455), wk =   0.0090158
        k(  229) = (   0.1363636   0.2727273  -0.5000000), wk =   0.0045079
        k(  230) = (   0.1363636   0.3181818   0.3181818), wk =   0.0045079
        k(  231) = (   0.1363636   0.3181818   0.3636364), wk =   0.0090158
        k(  232) = (   0.1363636   0.3181818   0.4090909), wk =   0.0090158
        k(  233) = (   0.1363636   0.3181818   0.4545455), wk =   0.0090158
        k(  234) = (   0.1363636   0.3181818  -0.5000000), wk =   0.0045079
        k(  235) = (   0.1363636   0.3636364   0.3636364), wk =   0.0045079
        k(  236) = (   0.1363636   0.3636364   0.4090909), wk =   0.0090158
        k(  237) = (   0.1363636   0.3636364   0.4545455), wk =   0.0090158
        k(  238) = (   0.1363636   0.3636364  -0.5000000), wk =   0.0045079
        k(  239) = (   0.1363636   0.4090909   0.4090909), wk =   0.0045079
        k(  240) = (   0.1363636   0.4090909   0.4545455), wk =   0.0090158
        k(  241) = (   0.1363636   0.4090909  -0.5000000), wk =   0.0045079
        k(  242) = (   0.1363636   0.4545455   0.4545455), wk =   0.0045079
        k(  243) = (   0.1363636   0.4545455  -0.5000000), wk =   0.0045079
        k(  244) = (   0.1363636  -0.5000000  -0.5000000), wk =   0.0011270
        k(  245) = (   0.1818182   0.1818182   0.1818182), wk =   0.0015026
        k(  246) = (   0.1818182   0.1818182   0.2272727), wk =   0.0045079
        k(  247) = (   0.1818182   0.1818182   0.2727273), wk =   0.0045079
        k(  248) = (   0.1818182   0.1818182   0.3181818), wk =   0.0045079
        k(  249) = (   0.1818182   0.1818182   0.3636364), wk =   0.0045079
        k(  250) = (   0.1818182   0.1818182   0.4090909), wk =   0.0045079
        k(  251) = (   0.1818182   0.1818182   0.4545455), wk =   0.0045079
        k(  252) = (   0.1818182   0.1818182  -0.5000000), wk =   0.0022539
        k(  253) = (   0.1818182   0.2272727   0.2272727), wk =   0.0045079
        k(  254) = (   0.1818182   0.2272727   0.2727273), wk =   0.0090158
        k(  255) = (   0.1818182   0.2272727   0.3181818), wk =   0.0090158
        k(  256) = (   0.1818182   0.2272727   0.3636364), wk =   0.0090158
        k(  257) = (   0.1818182   0.2272727   0.4090909), wk =   0.0090158
        k(  258) = (   0.1818182   0.2272727   0.4545455), wk =   0.0090158
        k(  259) = (   0.1818182   0.2272727  -0.5000000), wk =   0.0045079
        k(  260) = (   0.1818182   0.2727273   0.2727273), wk =   0.0045079
        k(  261) = (   0.1818182   0.2727273   0.3181818), wk =   0.0090158
        k(  262) = (   0.1818182   0.2727273   0.3636364), wk =   0.0090158
        k(  263) = (   0.1818182   0.2727273   0.4090909), wk =   0.0090158
        k(  264) = (   0.1818182   0.2727273   0.4545455), wk =   0.0090158
        k(  265) = (   0.1818182   0.2727273  -0.5000000), wk =   0.0045079
        k(  266) = (   0.1818182   0.3181818   0.3181818), wk =   0.0045079
        k(  267) = (   0.1818182   0.3181818   0.3636364), wk =   0.0090158
        k(  268) = (   0.1818182   0.3181818   0.4090909), wk =   0.0090158
        k(  269) = (   0.1818182   0.3181818   0.4545455), wk =   0.0090158
        k(  270) = (   0.1818182   0.3181818  -0.5000000), wk =   0.0045079
        k(  271) = (   0.1818182   0.3636364   0.3636364), wk =   0.0045079
        k(  272) = (   0.1818182   0.3636364   0.4090909), wk =   0.0090158
        k(  273) = (   0.1818182   0.3636364   0.4545455), wk =   0.0090158
        k(  274) = (   0.1818182   0.3636364  -0.5000000), wk =   0.0045079
        k(  275) = (   0.1818182   0.4090909   0.4090909), wk =   0.0045079
        k(  276) = (   0.1818182   0.4090909   0.4545455), wk =   0.0090158
        k(  277) = (   0.1818182   0.4090909  -0.5000000), wk =   0.0045079
        k(  278) = (   0.1818182   0.4545455   0.4545455), wk =   0.0045079
        k(  279) = (   0.1818182   0.4545455  -0.5000000), wk =   0.0045079
        k(  280) = (   0.1818182  -0.5000000  -0.5000000), wk =   0.0011270
        k(  281) = (   0.2272727   0.2272727   0.2272727), wk =   0.0015026
        k(  282) = (   0.2272727   0.2272727   0.2727273), wk =   0.0045079
        k(  283) = (   0.2272727   0.2272727   0.3181818), wk =   0.0045079
        k(  284) = (   0.2272727   0.2272727   0.3636364), wk =   0.0045079
        k(  285) = (   0.2272727   0.2272727   0.4090909), wk =   0.0045079
        k(  286) = (   0.2272727   0.2272727   0.4545455), wk =   0.0045079
        k(  287) = (   0.2272727   0.2272727  -0.5000000), wk =   0.0022539
        k(  288) = (   0.2272727   0.2727273   0.2727273), wk =   0.0045079
        k(  289) = (   0.2272727   0.2727273   0.3181818), wk =   0.0090158
        k(  290) = (   0.2272727   0.2727273   0.3636364), wk =   0.0090158
        k(  291) = (   0.2272727   0.2727273   0.4090909), wk =   0.0090158
        k(  292) = (   0.2272727   0.2727273   0.4545455), wk =   0.0090158
        k(  293) = (   0.2272727   0.2727273  -0.5000000), wk =   0.0045079
        k(  294) = (   0.2272727   0.3181818   0.3181818), wk =   0.0045079
        k(  295) = (   0.2272727   0.3181818   0.3636364), wk =   0.0090158
        k(  296) = (   0.2272727   0.3181818   0.4090909), wk =   0.0090158
        k(  297) = (   0.2272727   0.3181818   0.4545455), wk =   0.0090158
        k(  298) = (   0.2272727   0.3181818  -0.5000000), wk =   0.0045079
        k(  299) = (   0.2272727   0.3636364   0.3636364), wk =   0.0045079
        k(  300) = (   0.2272727   0.3636364   0.4090909), wk =   0.0090158
        k(  301) = (   0.2272727   0.3636364   0.4545455), wk =   0.0090158
        k(  302) = (   0.2272727   0.3636364  -0.5000000), wk =   0.0045079
        k(  303) = (   0.2272727   0.4090909   0.4090909), wk =   0.0045079
        k(  304) = (   0.2272727   0.4090909   0.4545455), wk =   0.0090158
        k(  305) = (   0.2272727   0.4090909  -0.5000000), wk =   0.0045079
        k(  306) = (   0.2272727   0.4545455   0.4545455), wk =   0.0045079
        k(  307) = (   0.2272727   0.4545455  -0.5000000), wk =   0.0045079
        k(  308) = (   0.2272727  -0.5000000  -0.5000000), wk =   0.0011270
        k(  309) = (   0.2727273   0.2727273   0.2727273), wk =   0.0015026
        k(  310) = (   0.2727273   0.2727273   0.3181818), wk =   0.0045079
        k(  311) = (   0.2727273   0.2727273   0.3636364), wk =   0.0045079
        k(  312) = (   0.2727273   0.2727273   0.4090909), wk =   0.0045079
        k(  313) = (   0.2727273   0.2727273   0.4545455), wk =   0.0045079
        k(  314) = (   0.2727273   0.2727273  -0.5000000), wk =   0.0022539
        k(  315) = (   0.2727273   0.3181818   0.3181818), wk =   0.0045079
        k(  316) = (   0.2727273   0.3181818   0.3636364), wk =   0.0090158
        k(  317) = (   0.2727273   0.3181818   0.4090909), wk =   0.0090158
        k(  318) = (   0.2727273   0.3181818   0.4545455), wk =   0.0090158
        k(  319) = (   0.2727273   0.3181818  -0.5000000), wk =   0.0045079
        k(  320) = (   0.2727273   0.3636364   0.3636364), wk =   0.0045079
        k(  321) = (   0.2727273   0.3636364   0.4090909), wk =   0.0090158
        k(  322) = (   0.2727273   0.3636364   0.4545455), wk =   0.0090158
        k(  323) = (   0.2727273   0.3636364  -0.5000000), wk =   0.0045079
        k(  324) = (   0.2727273   0.4090909   0.4090909), wk =   0.0045079
        k(  325) = (   0.2727273   0.4090909   0.4545455), wk =   0.0090158
        k(  326) = (   0.2727273   0.4090909  -0.5000000), wk =   0.0045079
        k(  327) = (   0.2727273   0.4545455   0.4545455), wk =   0.0045079
        k(  328) = (   0.2727273   0.4545455  -0.5000000), wk =   0.0045079
        k(  329) = (   0.2727273  -0.5000000  -0.5000000), wk =   0.0011270
        k(  330) = (   0.3181818   0.3181818   0.3181818), wk =   0.0015026
        k(  331) = (   0.3181818   0.3181818   0.3636364), wk =   0.0045079
        k(  332) = (   0.3181818   0.3181818   0.4090909), wk =   0.0045079
        k(  333) = (   0.3181818   0.3181818   0.4545455), wk =   0.0045079
        k(  334) = (   0.3181818   0.3181818  -0.5000000), wk =   0.0022539
        k(  335) = (   0.3181818   0.3636364   0.3636364), wk =   0.0045079
        k(  336) = (   0.3181818   0.3636364   0.4090909), wk =   0.0090158
        k(  337) = (   0.3181818   0.3636364   0.4545455), wk =   0.0090158
        k(  338) = (   0.3181818   0.3636364  -0.5000000), wk =   0.0045079
        k(  339) = (   0.3181818   0.4090909   0.4090909), wk =   0.0045079
        k(  340) = (   0.3181818   0.4090909   0.4545455), wk =   0.0090158
        k(  341) = (   0.3181818   0.4090909  -0.5000000), wk =   0.0045079
        k(  342) = (   0.3181818   0.4545455   0.4545455), wk =   0.0045079
        k(  343) = (   0.3181818   0.4545455  -0.5000000), wk =   0.0045079
        k(  344) = (   0.3181818  -0.5000000  -0.5000000), wk =   0.0011270
        k(  345) = (   0.3636364   0.3636364   0.3636364), wk =   0.0015026
        k(  346) = (   0.3636364   0.3636364   0.4090909), wk =   0.0045079
        k(  347) = (   0.3636364   0.3636364   0.4545455), wk =   0.0045079
        k(  348) = (   0.3636364   0.3636364  -0.5000000), wk =   0.0022539
        k(  349) = (   0.3636364   0.4090909   0.4090909), wk =   0.0045079
        k(  350) = (   0.3636364   0.4090909   0.4545455), wk =   0.0090158
        k(  351) = (   0.3636364   0.4090909  -0.5000000), wk =   0.0045079
        k(  352) = (   0.3636364   0.4545455   0.4545455), wk =   0.0045079
        k(  353) = (   0.3636364   0.4545455  -0.5000000), wk =   0.0045079
        k(  354) = (   0.3636364  -0.5000000  -0.5000000), wk =   0.0011270
        k(  355) = (   0.4090909   0.4090909   0.4090909), wk =   0.0015026
        k(  356) = (   0.4090909   0.4090909   0.4545455), wk =   0.0045079
        k(  357) = (   0.4090909   0.4090909  -0.5000000), wk =   0.0022539
        k(  358) = (   0.4090909   0.4545455   0.4545455), wk =   0.0045079
        k(  359) = (   0.4090909   0.4545455  -0.5000000), wk =   0.0045079
        k(  360) = (   0.4090909  -0.5000000  -0.5000000), wk =   0.0011270
        k(  361) = (   0.4545455   0.4545455   0.4545455), wk =   0.0015026
        k(  362) = (   0.4545455   0.4545455  -0.5000000), wk =   0.0022539
        k(  363) = (   0.4545455  -0.5000000  -0.5000000), wk =   0.0011270
        k(  364) = (  -0.5000000  -0.5000000  -0.5000000), wk =   0.0001878

                       cryst. coord.
        k(    1) = (   0.0000000   0.0000000   0.0000000), wk =   0.0001878
        k(    2) = (   0.0000000   0.0000000   0.0454545), wk =   0.0011270
        k(    3) = (   0.0000000   0.0000000   0.0909091), wk =   0.0011270
        k(    4) = (   0.0000000   0.0000000   0.1363636), wk =   0.0011270
        k(    5) = (   0.0000000   0.0000000   0.1818182), wk =   0.0011270
        k(    6) = (   0.0000000   0.0000000   0.2272727), wk =   0.0011270
        k(    7) = (   0.0000000   0.0000000   0.2727273), wk =   0.0011270
        k(    8) = (   0.0000000   0.0000000   0.3181818), wk =   0.0011270
        k(    9) = (   0.0000000   0.0000000   0.3636364), wk =   0.0011270
        k(   10) = (   0.0000000   0.0000000   0.4090909), wk =   0.0011270
        k(   11) = (   0.0000000   0.0000000   0.4545455), wk =   0.0011270
        k(   12) = (   0.0000000   0.0000000  -0.5000000), wk =   0.0005635
        k(   13) = (   0.0000000   0.0454545   0.0454545), wk =   0.0022539
        k(   14) = (   0.0000000   0.0454545   0.0909091), wk =   0.0045079
        k(   15) = (   0.0000000   0.0454545   0.1363636), wk =   0.0045079
        k(   16) = (   0.0000000   0.0454545   0.1818182), wk =   0.0045079
        k(   17) = (   0.0000000   0.0454545   0.2272727), wk =   0.0045079
        k(   18) = (   0.0000000   0.0454545   0.2727273), wk =   0.0045079
        k(   19) = (   0.0000000   0.0454545   0.3181818), wk =   0.0045079
        k(   20) = (   0.0000000   0.0454545   0.3636364), wk =   0.0045079
        k(   21) = (   0.0000000   0.0454545   0.4090909), wk =   0.0045079
        k(   22) = (   0.0000000   0.0454545   0.4545455), wk =   0.0045079
        k(   23) = (   0.0000000   0.0454545  -0.5000000), wk =   0.0022539
        k(   24) = (   0.0000000   0.0909091   0.0909091), wk =   0.0022539
        k(   25) = (   0.0000000   0.0909091   0.1363636), wk =   0.0045079
        k(   26) = (   0.0000000   0.0909091   0.1818182), wk =   0.0045079
        k(   27) = (   0.0000000   0.0909091   0.2272727), wk =   0.0045079
        k(   28) = (   0.0000000   0.0909091   0.2727273), wk =   0.0045079
        k(   29) = (   0.0000000   0.0909091   0.3181818), wk =   0.0045079
        k(   30) = (   0.0000000   0.0909091   0.3636364), wk =   0.0045079
        k(   31) = (   0.0000000   0.0909091   0.4090909), wk =   0.0045079
        k(   32) = (   0.0000000   0.0909091   0.4545455), wk =   0.0045079
        k(   33) = (   0.0000000   0.0909091  -0.5000000), wk =   0.0022539
        k(   34) = (   0.0000000   0.1363636   0.1363636), wk =   0.0022539
        k(   35) = (   0.0000000   0.1363636   0.1818182), wk =   0.0045079
        k(   36) = (   0.0000000   0.1363636   0.2272727), wk =   0.0045079
        k(   37) = (   0.0000000   0.1363636   0.2727273), wk =   0.0045079
        k(   38) = (   0.0000000   0.1363636   0.3181818), wk =   0.0045079
        k(   39) = (   0.0000000   0.1363636   0.3636364), wk =   0.0045079
        k(   40) = (   0.0000000   0.1363636   0.4090909), wk =   0.0045079
        k(   41) = (   0.0000000   0.1363636   0.4545455), wk =   0.0045079
        k(   42) = (   0.0000000   0.1363636  -0.5000000), wk =   0.0022539
        k(   43) = (   0.0000000   0.1818182   0.1818182), wk =   0.0022539
        k(   44) = (   0.0000000   0.1818182   0.2272727), wk =   0.0045079
        k(   45) = (   0.0000000   0.1818182   0.2727273), wk =   0.0045079
        k(   46) = (   0.0000000   0.1818182   0.3181818), wk =   0.0045079
        k(   47) = (   0.0000000   0.1818182   0.3636364), wk =   0.0045079
        k(   48) = (   0.0000000   0.1818182   0.4090909), wk =   0.0045079
        k(   49) = (   0.0000000   0.1818182   0.4545455), wk =   0.0045079
        k(   50) = (   0.0000000   0.1818182  -0.5000000), wk =   0.0022539
        k(   51) = (   0.0000000   0.2272727   0.2272727), wk =   0.0022539
        k(   52) = (   0.0000000   0.2272727   0.2727273), wk =   0.0045079
        k(   53) = (   0.0000000   0.2272727   0.3181818), wk =   0.0045079
        k(   54) = (   0.0000000   0.2272727   0.3636364), wk =   0.0045079
        k(   55) = (   0.0000000   0.2272727   0.4090909), wk =   0.0045079
        k(   56) = (   0.0000000   0.2272727   0.4545455), wk =   0.0045079
        k(   57) = (   0.0000000   0.2272727  -0.5000000), wk =   0.0022539
        k(   58) = (   0.0000000   0.2727273   0.2727273), wk =   0.0022539
        k(   59) = (   0.0000000   0.2727273   0.3181818), wk =   0.0045079
        k(   60) = (   0.0000000   0.2727273   0.3636364), wk =   0.0045079
        k(   61) = (   0.0000000   0.2727273   0.4090909), wk =   0.0045079
        k(   62) = (   0.0000000   0.2727273   0.4545455), wk =   0.0045079
        k(   63) = (   0.0000000   0.2727273  -0.5000000), wk =   0.0022539
        k(   64) = (   0.0000000   0.3181818   0.3181818), wk =   0.0022539
        k(   65) = (   0.0000000   0.3181818   0.3636364), wk =   0.0045079
        k(   66) = (   0.0000000   0.3181818   0.4090909), wk =   0.0045079
        k(   67) = (   0.0000000   0.3181818   0.4545455), wk =   0.0045079
        k(   68) = (   0.0000000   0.3181818  -0.5000000), wk =   0.0022539
        k(   69) = (   0.0000000   0.3636364   0.3636364), wk =   0.0022539
        k(   70) = (   0.0000000   0.3636364   0.4090909), wk =   0.0045079
        k(   71) = (   0.0000000   0.3636364   0.4545455), wk =   0.0045079
        k(   72) = (   0.0000000   0.3636364  -0.5000000), wk =   0.0022539
        k(   73) = (   0.0000000   0.4090909   0.4090909), wk =   0.0022539
        k(   74) = (   0.0000000   0.4090909   0.4545455), wk =   0.0045079
        k(   75) = (   0.0000000   0.4090909  -0.5000000), wk =   0.0022539
        k(   76) = (   0.0000000   0.4545455   0.4545455), wk =   0.0022539
        k(   77) = (   0.0000000   0.4545455  -0.5000000), wk =   0.0022539
        k(   78) = (   0.0000000  -0.5000000  -0.5000000), wk =   0.0005635
        k(   79) = (   0.0454545   0.0454545   0.0454545), wk =   0.0015026
        k(   80) = (   0.0454545   0.0454545   0.0909091), wk =   0.0045079
        k(   81) = (   0.0454545   0.0454545   0.1363636), wk =   0.0045079
        k(   82) = (   0.0454545   0.0454545   0.1818182), wk =   0.0045079
        k(   83) = (   0.0454545   0.0454545   0.2272727), wk =   0.0045079
        k(   84) = (   0.0454545   0.0454545   0.2727273), wk =   0.0045079
        k(   85) = (   0.0454545   0.0454545   0.3181818), wk =   0.0045079
        k(   86) = (   0.0454545   0.0454545   0.3636364), wk =   0.0045079
        k(   87) = (   0.0454545   0.0454545   0.4090909), wk =   0.0045079
        k(   88) = (   0.0454545   0.0454545   0.4545455), wk =   0.0045079
        k(   89) = (   0.0454545   0.0454545  -0.5000000), wk =   0.0022539
        k(   90) = (   0.0454545   0.0909091   0.0909091), wk =   0.0045079
        k(   91) = (   0.0454545   0.0909091   0.1363636), wk =   0.0090158
        k(   92) = (   0.0454545   0.0909091   0.1818182), wk =   0.0090158
        k(   93) = (   0.0454545   0.0909091   0.2272727), wk =   0.0090158
        k(   94) = (   0.0454545   0.0909091   0.2727273), wk =   0.0090158
        k(   95) = (   0.0454545   0.0909091   0.3181818), wk =   0.0090158
        k(   96) = (   0.0454545   0.0909091   0.3636364), wk =   0.0090158
        k(   97) = (   0.0454545   0.0909091   0.4090909), wk =   0.0090158
        k(   98) = (   0.0454545   0.0909091   0.4545455), wk =   0.0090158
        k(   99) = (   0.0454545   0.0909091  -0.5000000), wk =   0.0045079
        k(  100) = (   0.0454545   0.1363636   0.1363636), wk =   0.0045079
        k(  101) = (   0.0454545   0.1363636   0.1818182), wk =   0.0090158
        k(  102) = (   0.0454545   0.1363636   0.2272727), wk =   0.0090158
        k(  103) = (   0.0454545   0.1363636   0.2727273), wk =   0.0090158
        k(  104) = (   0.0454545   0.1363636   0.3181818), wk =   0.0090158
        k(  105) = (   0.0454545   0.1363636   0.3636364), wk =   0.0090158
        k(  106) = (   0.0454545   0.1363636   0.4090909), wk =   0.0090158
        k(  107) = (   0.0454545   0.1363636   0.4545455), wk =   0.0090158
        k(  108) = (   0.0454545   0.1363636  -0.5000000), wk =   0.0045079
        k(  109) = (   0.0454545   0.1818182   0.1818182), wk =   0.0045079
        k(  110) = (   0.0454545   0.1818182   0.2272727), wk =   0.0090158
        k(  111) = (   0.0454545   0.1818182   0.2727273), wk =   0.0090158
        k(  112) = (   0.0454545   0.1818182   0.3181818), wk =   0.0090158
        k(  113) = (   0.0454545   0.1818182   0.3636364), wk =   0.0090158
        k(  114) = (   0.0454545   0.1818182   0.4090909), wk =   0.0090158
        k(  115) = (   0.0454545   0.1818182   0.4545455), wk =   0.0090158
        k(  116) = (   0.0454545   0.1818182  -0.5000000), wk =   0.0045079
        k(  117) = (   0.0454545   0.2272727   0.2272727), wk =   0.0045079
        k(  118) = (   0.0454545   0.2272727   0.2727273), wk =   0.0090158
        k(  119) = (   0.0454545   0.2272727   0.3181818), wk =   0.0090158
        k(  120) = (   0.0454545   0.2272727   0.3636364), wk =   0.0090158
        k(  121) = (   0.0454545   0.2272727   0.4090909), wk =   0.0090158
        k(  122) = (   0.0454545   0.2272727   0.4545455), wk =   0.0090158
        k(  123) = (   0.0454545   0.2272727  -0.5000000), wk =   0.0045079
        k(  124) = (   0.0454545   0.2727273   0.2727273), wk =   0.0045079
        k(  125) = (   0.0454545   0.2727273   0.3181818), wk =   0.0090158
        k(  126) = (   0.0454545   0.2727273   0.3636364), wk =   0.0090158
        k(  127) = (   0.0454545   0.2727273   0.4090909), wk =   0.0090158
        k(  128) = (   0.0454545   0.2727273   0.4545455), wk =   0.0090158
        k(  129) = (   0.0454545   0.2727273  -0.5000000), wk =   0.0045079
        k(  130) = (   0.0454545   0.3181818   0.3181818), wk =   0.0045079
        k(  131) = (   0.0454545   0.3181818   0.3636364), wk =   0.0090158
        k(  132) = (   0.0454545   0.3181818   0.4090909), wk =   0.0090158
        k(  133) = (   0.0454545   0.3181818   0.4545455), wk =   0.0090158
        k(  134) = (   0.0454545   0.3181818  -0.5000000), wk =   0.0045079
        k(  135) = (   0.0454545   0.3636364   0.3636364), wk =   0.0045079
        k(  136) = (   0.0454545   0.3636364   0.4090909), wk =   0.0090158
        k(  137) = (   0.0454545   0.3636364   0.4545455), wk =   0.0090158
        k(  138) = (   0.0454545   0.3636364  -0.5000000), wk =   0.0045079
        k(  139) = (   0.0454545   0.4090909   0.4090909), wk =   0.0045079
        k(  140) = (   0.0454545   0.4090909   0.4545455), wk =   0.0090158
        k(  141) = (   0.0454545   0.4090909  -0.5000000), wk =   0.0045079
        k(  142) = (   0.0454545   0.4545455   0.4545455), wk =   0.0045079
        k(  143) = (   0.0454545   0.4545455  -0.5000000), wk =   0.0045079
        k(  144) = (   0.0454545  -0.5000000  -0.5000000), wk =   0.0011270
        k(  145) = (   0.0909091   0.0909091   0.0909091), wk =   0.0015026
        k(  146) = (   0.0909091   0.0909091   0.1363636), wk =   0.0045079
        k(  147) = (   0.0909091   0.0909091   0.1818182), wk =   0.0045079
        k(  148) = (   0.0909091   0.0909091   0.2272727), wk =   0.0045079
        k(  149) = (   0.0909091   0.0909091   0.2727273), wk =   0.0045079
        k(  150) = (   0.0909091   0.0909091   0.3181818), wk =   0.0045079
        k(  151) = (   0.0909091   0.0909091   0.3636364), wk =   0.0045079
        k(  152) = (   0.0909091   0.0909091   0.4090909), wk =   0.0045079
        k(  153) = (   0.0909091   0.0909091   0.4545455), wk =   0.0045079
        k(  154) = (   0.0909091   0.0909091  -0.5000000), wk =   0.0022539
        k(  155) = (   0.0909091   0.1363636   0.1363636), wk =   0.0045079
        k(  156) = (   0.0909091   0.1363636   0.1818182), wk =   0.0090158
        k(  157) = (   0.0909091   0.1363636   0.2272727), wk =   0.0090158
        k(  158) = (   0.0909091   0.1363636   0.2727273), wk =   0.0090158
        k(  159) = (   0.0909091   0.1363636   0.3181818), wk =   0.0090158
        k(  160) = (   0.0909091   0.1363636   0.3636364), wk =   0.0090158
        k(  161) = (   0.0909091   0.1363636   0.4090909), wk =   0.0090158
        k(  162) = (   0.0909091   0.1363636   0.4545455), wk =   0.0090158
        k(  163) = (   0.0909091   0.1363636  -0.5000000), wk =   0.0045079
        k(  164) = (   0.0909091   0.1818182   0.1818182), wk =   0.0045079
        k(  165) = (   0.0909091   0.1818182   0.2272727), wk =   0.0090158
        k(  166) = (   0.0909091   0.1818182   0.2727273), wk =   0.0090158
        k(  167) = (   0.0909091   0.1818182   0.3181818), wk =   0.0090158
        k(  168) = (   0.0909091   0.1818182   0.3636364), wk =   0.0090158
        k(  169) = (   0.0909091   0.1818182   0.4090909), wk =   0.0090158
        k(  170) = (   0.0909091   0.1818182   0.4545455), wk =   0.0090158
        k(  171) = (   0.0909091   0.1818182  -0.5000000), wk =   0.0045079
        k(  172) = (   0.0909091   0.2272727   0.2272727), wk =   0.0045079
        k(  173) = (   0.0909091   0.2272727   0.2727273), wk =   0.0090158
        k(  174) = (   0.0909091   0.2272727   0.3181818), wk =   0.0090158
        k(  175) = (   0.0909091   0.2272727   0.3636364), wk =   0.0090158
        k(  176) = (   0.0909091   0.2272727   0.4090909), wk =   0.0090158
        k(  177) = (   0.0909091   0.2272727   0.4545455), wk =   0.0090158
        k(  178) = (   0.0909091   0.2272727  -0.5000000), wk =   0.0045079
        k(  179) = (   0.0909091   0.2727273   0.2727273), wk =   0.0045079
        k(  180) = (   0.0909091   0.2727273   0.3181818), wk =   0.0090158
        k(  181) = (   0.0909091   0.2727273   0.3636364), wk =   0.0090158
        k(  182) = (   0.0909091   0.2727273   0.4090909), wk =   0.0090158
        k(  183) = (   0.0909091   0.2727273   0.4545455), wk =   0.0090158
        k(  184) = (   0.0909091   0.2727273  -0.5000000), wk =   0.0045079
        k(  185) = (   0.0909091   0.3181818   0.3181818), wk =   0.0045079
        k(  186) = (   0.0909091   0.3181818   0.3636364), wk =   0.0090158
        k(  187) = (   0.0909091   0.3181818   0.4090909), wk =   0.0090158
        k(  188) = (   0.0909091   0.3181818   0.4545455), wk =   0.0090158
        k(  189) = (   0.0909091   0.3181818  -0.5000000), wk =   0.0045079
        k(  190) = (   0.0909091   0.3636364   0.3636364), wk =   0.0045079
        k(  191) = (   0.0909091   0.3636364   0.4090909), wk =   0.0090158
        k(  192) = (   0.0909091   0.3636364   0.4545455), wk =   0.0090158
        k(  193) = (   0.0909091   0.3636364  -0.5000000), wk =   0.0045079
        k(  194) = (   0.0909091   0.4090909   0.4090909), wk =   0.0045079
        k(  195) = (   0.0909091   0.4090909   0.4545455), wk =   0.0090158
        k(  196) = (   0.0909091   0.4090909  -0.5000000), wk =   0.0045079
        k(  197) = (   0.0909091   0.4545455   0.4545455), wk =   0.0045079
        k(  198) = (   0.0909091   0.4545455  -0.5000000), wk =   0.0045079
        k(  199) = (   0.0909091  -0.5000000  -0.5000000), wk =   0.0011270
        k(  200) = (   0.1363636   0.1363636   0.1363636), wk =   0.0015026
        k(  201) = (   0.1363636   0.1363636   0.1818182), wk =   0.0045079
        k(  202) = (   0.1363636   0.1363636   0.2272727), wk =   0.0045079
        k(  203) = (   0.1363636   0.1363636   0.2727273), wk =   0.0045079
        k(  204) = (   0.1363636   0.1363636   0.3181818), wk =   0.0045079
        k(  205) = (   0.1363636   0.1363636   0.3636364), wk =   0.0045079
        k(  206) = (   0.1363636   0.1363636   0.4090909), wk =   0.0045079
        k(  207) = (   0.1363636   0.1363636   0.4545455), wk =   0.0045079
        k(  208) = (   0.1363636   0.1363636  -0.5000000), wk =   0.0022539
        k(  209) = (   0.1363636   0.1818182   0.1818182), wk =   0.0045079
        k(  210) = (   0.1363636   0.1818182   0.2272727), wk =   0.0090158
        k(  211) = (   0.1363636   0.1818182   0.2727273), wk =   0.0090158
        k(  212) = (   0.1363636   0.1818182   0.3181818), wk =   0.0090158
        k(  213) = (   0.1363636   0.1818182   0.3636364), wk =   0.0090158
        k(  214) = (   0.1363636   0.1818182   0.4090909), wk =   0.0090158
        k(  215) = (   0.1363636   0.1818182   0.4545455), wk =   0.0090158
        k(  216) = (   0.1363636   0.1818182  -0.5000000), wk =   0.0045079
        k(  217) = (   0.1363636   0.2272727   0.2272727), wk =   0.0045079
        k(  218) = (   0.1363636   0.2272727   0.2727273), wk =   0.0090158
        k(  219) = (   0.1363636   0.2272727   0.3181818), wk =   0.0090158
        k(  220) = (   0.1363636   0.2272727   0.3636364), wk =   0.0090158
        k(  221) = (   0.1363636   0.2272727   0.4090909), wk =   0.0090158
        k(  222) = (   0.1363636   0.2272727   0.4545455), wk =   0.0090158
        k(  223) = (   0.1363636   0.2272727  -0.5000000), wk =   0.0045079
        k(  224) = (   0.1363636   0.2727273   0.2727273), wk =   0.0045079
        k(  225) = (   0.1363636   0.2727273   0.3181818), wk =   0.0090158
        k(  226) = (   0.1363636   0.2727273   0.3636364), wk =   0.0090158
        k(  227) = (   0.1363636   0.2727273   0.4090909), wk =   0.0090158
        k(  228) = (   0.1363636   0.2727273   0.4545455), wk =   0.0090158
        k(  229) = (   0.1363636   0.2727273  -0.5000000), wk =   0.0045079
        k(  230) = (   0.1363636   0.3181818   0.3181818), wk =   0.0045079
        k(  231) = (   0.1363636   0.3181818   0.3636364), wk =   0.0090158
        k(  232) = (   0.1363636   0.3181818   0.4090909), wk =   0.0090158
        k(  233) = (   0.1363636   0.3181818   0.4545455), wk =   0.0090158
        k(  234) = (   0.1363636   0.3181818  -0.5000000), wk =   0.0045079
        k(  235) = (   0.1363636   0.3636364   0.3636364), wk =   0.0045079
        k(  236) = (   0.1363636   0.3636364   0.4090909), wk =   0.0090158
        k(  237) = (   0.1363636   0.3636364   0.4545455), wk =   0.0090158
        k(  238) = (   0.1363636   0.3636364  -0.5000000), wk =   0.0045079
        k(  239) = (   0.1363636   0.4090909   0.4090909), wk =   0.0045079
        k(  240) = (   0.1363636   0.4090909   0.4545455), wk =   0.0090158
        k(  241) = (   0.1363636   0.4090909  -0.5000000), wk =   0.0045079
        k(  242) = (   0.1363636   0.4545455   0.4545455), wk =   0.0045079
        k(  243) = (   0.1363636   0.4545455  -0.5000000), wk =   0.0045079
        k(  244) = (   0.1363636  -0.5000000  -0.5000000), wk =   0.0011270
        k(  245) = (   0.1818182   0.1818182   0.1818182), wk =   0.0015026
        k(  246) = (   0.1818182   0.1818182   0.2272727), wk =   0.0045079
        k(  247) = (   0.1818182   0.1818182   0.2727273), wk =   0.0045079
        k(  248) = (   0.1818182   0.1818182   0.3181818), wk =   0.0045079
        k(  249) = (   0.1818182   0.1818182   0.3636364), wk =   0.0045079
        k(  250) = (   0.1818182   0.1818182   0.4090909), wk =   0.0045079
        k(  251) = (   0.1818182   0.1818182   0.4545455), wk =   0.0045079
        k(  252) = (   0.1818182   0.1818182  -0.5000000), wk =   0.0022539
        k(  253) = (   0.1818182   0.2272727   0.2272727), wk =   0.0045079
        k(  254) = (   0.1818182   0.2272727   0.2727273), wk =   0.0090158
        k(  255) = (   0.1818182   0.2272727   0.3181818), wk =   0.0090158
        k(  256) = (   0.1818182   0.2272727   0.3636364), wk =   0.0090158
        k(  257) = (   0.1818182   0.2272727   0.4090909), wk =   0.0090158
        k(  258) = (   0.1818182   0.2272727   0.4545455), wk =   0.0090158
        k(  259) = (   0.1818182   0.2272727  -0.5000000), wk =   0.0045079
        k(  260) = (   0.1818182   0.2727273   0.2727273), wk =   0.0045079
        k(  261) = (   0.1818182   0.2727273   0.3181818), wk =   0.0090158
        k(  262) = (   0.1818182   0.2727273   0.3636364), wk =   0.0090158
        k(  263) = (   0.1818182   0.2727273   0.4090909), wk =   0.0090158
        k(  264) = (   0.1818182   0.2727273   0.4545455), wk =   0.0090158
        k(  265) = (   0.1818182   0.2727273  -0.5000000), wk =   0.0045079
        k(  266) = (   0.1818182   0.3181818   0.3181818), wk =   0.0045079
        k(  267) = (   0.1818182   0.3181818   0.3636364), wk =   0.0090158
        k(  268) = (   0.1818182   0.3181818   0.4090909), wk =   0.0090158
        k(  269) = (   0.1818182   0.3181818   0.4545455), wk =   0.0090158
        k(  270) = (   0.1818182   0.3181818  -0.5000000), wk =   0.0045079
        k(  271) = (   0.1818182   0.3636364   0.3636364), wk =   0.0045079
        k(  272) = (   0.1818182   0.3636364   0.4090909), wk =   0.0090158
        k(  273) = (   0.1818182   0.3636364   0.4545455), wk =   0.0090158
        k(  274) = (   0.1818182   0.3636364  -0.5000000), wk =   0.0045079
        k(  275) = (   0.1818182   0.4090909   0.4090909), wk =   0.0045079
        k(  276) = (   0.1818182   0.4090909   0.4545455), wk =   0.0090158
        k(  277) = (   0.1818182   0.4090909  -0.5000000), wk =   0.0045079
        k(  278) = (   0.1818182   0.4545455   0.4545455), wk =   0.0045079
        k(  279) = (   0.1818182   0.4545455  -0.5000000), wk =   0.0045079
        k(  280) = (   0.1818182  -0.5000000  -0.5000000), wk =   0.0011270
        k(  281) = (   0.2272727   0.2272727   0.2272727), wk =   0.0015026
        k(  282) = (   0.2272727   0.2272727   0.2727273), wk =   0.0045079
        k(  283) = (   0.2272727   0.2272727   0.3181818), wk =   0.0045079
        k(  284) = (   0.2272727   0.2272727   0.3636364), wk =   0.0045079
        k(  285) = (   0.2272727   0.2272727   0.4090909), wk =   0.0045079
        k(  286) = (   0.2272727   0.2272727   0.4545455), wk =   0.0045079
        k(  287) = (   0.2272727   0.2272727  -0.5000000), wk =   0.0022539
        k(  288) = (   0.2272727   0.2727273   0.2727273), wk =   0.0045079
        k(  289) = (   0.2272727   0.2727273   0.3181818), wk =   0.0090158
        k(  290) = (   0.2272727   0.2727273   0.3636364), wk =   0.0090158
        k(  291) = (   0.2272727   0.2727273   0.4090909), wk =   0.0090158
        k(  292) = (   0.2272727   0.2727273   0.4545455), wk =   0.0090158
        k(  293) = (   0.2272727   0.2727273  -0.5000000), wk =   0.0045079
        k(  294) = (   0.2272727   0.3181818   0.3181818), wk =   0.0045079
        k(  295) = (   0.2272727   0.3181818   0.3636364), wk =   0.0090158
        k(  296) = (   0.2272727   0.3181818   0.4090909), wk =   0.0090158
        k(  297) = (   0.2272727   0.3181818   0.4545455), wk =   0.0090158
        k(  298) = (   0.2272727   0.3181818  -0.5000000), wk =   0.0045079
        k(  299) = (   0.2272727   0.3636364   0.3636364), wk =   0.0045079
        k(  300) = (   0.2272727   0.3636364   0.4090909), wk =   0.0090158
        k(  301) = (   0.2272727   0.3636364   0.4545455), wk =   0.0090158
        k(  302) = (   0.2272727   0.3636364  -0.5000000), wk =   0.0045079
        k(  303) = (   0.2272727   0.4090909   0.4090909), wk =   0.0045079
        k(  304) = (   0.2272727   0.4090909   0.4545455), wk =   0.0090158
        k(  305) = (   0.2272727   0.4090909  -0.5000000), wk =   0.0045079
        k(  306) = (   0.2272727   0.4545455   0.4545455), wk =   0.0045079
        k(  307) = (   0.2272727   0.4545455  -0.5000000), wk =   0.0045079
        k(  308) = (   0.2272727  -0.5000000  -0.5000000), wk =   0.0011270
        k(  309) = (   0.2727273   0.2727273   0.2727273), wk =   0.0015026
        k(  310) = (   0.2727273   0.2727273   0.3181818), wk =   0.0045079
        k(  311) = (   0.2727273   0.2727273   0.3636364), wk =   0.0045079
        k(  312) = (   0.2727273   0.2727273   0.4090909), wk =   0.0045079
        k(  313) = (   0.2727273   0.2727273   0.4545455), wk =   0.0045079
        k(  314) = (   0.2727273   0.2727273  -0.5000000), wk =   0.0022539
        k(  315) = (   0.2727273   0.3181818   0.3181818), wk =   0.0045079
        k(  316) = (   0.2727273   0.3181818   0.3636364), wk =   0.0090158
        k(  317) = (   0.2727273   0.3181818   0.4090909), wk =   0.0090158
        k(  318) = (   0.2727273   0.3181818   0.4545455), wk =   0.0090158
        k(  319) = (   0.2727273   0.3181818  -0.5000000), wk =   0.0045079
        k(  320) = (   0.2727273   0.3636364   0.3636364), wk =   0.0045079
        k(  321) = (   0.2727273   0.3636364   0.4090909), wk =   0.0090158
        k(  322) = (   0.2727273   0.3636364   0.4545455), wk =   0.0090158
        k(  323) = (   0.2727273   0.3636364  -0.5000000), wk =   0.0045079
        k(  324) = (   0.2727273   0.4090909   0.4090909), wk =   0.0045079
        k(  325) = (   0.2727273   0.4090909   0.4545455), wk =   0.0090158
        k(  326) = (   0.2727273   0.4090909  -0.5000000), wk =   0.0045079
        k(  327) = (   0.2727273   0.4545455   0.4545455), wk =   0.0045079
        k(  328) = (   0.2727273   0.4545455  -0.5000000), wk =   0.0045079
        k(  329) = (   0.2727273  -0.5000000  -0.5000000), wk =   0.0011270
        k(  330) = (   0.3181818   0.3181818   0.3181818), wk =   0.0015026
        k(  331) = (   0.3181818   0.3181818   0.3636364), wk =   0.0045079
        k(  332) = (   0.3181818   0.3181818   0.4090909), wk =   0.0045079
        k(  333) = (   0.3181818   0.3181818   0.4545455), wk =   0.0045079
        k(  334) = (   0.3181818   0.3181818  -0.5000000), wk =   0.0022539
        k(  335) = (   0.3181818   0.3636364   0.3636364), wk =   0.0045079
        k(  336) = (   0.3181818   0.3636364   0.4090909), wk =   0.0090158
        k(  337) = (   0.3181818   0.3636364   0.4545455), wk =   0.0090158
        k(  338) = (   0.3181818   0.3636364  -0.5000000), wk =   0.0045079
        k(  339) = (   0.3181818   0.4090909   0.4090909), wk =   0.0045079
        k(  340) = (   0.3181818   0.4090909   0.4545455), wk =   0.0090158
        k(  341) = (   0.3181818   0.4090909  -0.5000000), wk =   0.0045079
        k(  342) = (   0.3181818   0.4545455   0.4545455), wk =   0.0045079
        k(  343) = (   0.3181818   0.4545455  -0.5000000), wk =   0.0045079
        k(  344) = (   0.3181818  -0.5000000  -0.5000000), wk =   0.0011270
        k(  345) = (   0.3636364   0.3636364   0.3636364), wk =   0.0015026
        k(  346) = (   0.3636364   0.3636364   0.4090909), wk =   0.0045079
        k(  347) = (   0.3636364   0.3636364   0.4545455), wk =   0.0045079
        k(  348) = (   0.3636364   0.3636364  -0.5000000), wk =   0.0022539
        k(  349) = (   0.3636364   0.4090909   0.4090909), wk =   0.0045079
[...]
     1.0000   1.0000   1.0000   1.0000   0.0000   0.0000   0.0000   0.0000

          k = 0.3182 0.3636 0.3636 (  2423 PWs)   bands (ev):

   -51.7654 -28.0628 -27.8855 -27.8853 -27.8840 -10.2666 -10.1194 -10.0657
    -9.6392  -9.5823  -9.5523   2.4383   3.0108   3.1012   3.2369   3.4506
     3.4753   5.5435   5.5648   5.7535   8.2702   8.3039   8.3481  10.2931

     occupation numbers 
     1.0000   1.0000   1.0000   1.0000   1.0000   1.0000   1.0000   1.0000
     1.0000   1.0000   1.0000   1.0000   1.0000   1.0000   1.0000   1.0000
     1.0000   1.0000   1.0000   1.0000   0.0000   0.0000   0.0000   0.0000

          k = 0.3182 0.3636 0.4091 (  2420 PWs)   bands (ev):

   -51.7654 -28.0624 -27.8865 -27.8854 -27.8840 -10.2416 -10.1314 -10.0446
    -9.6653  -9.5800  -9.5499   2.3797   2.9703   3.1023   3.1897   3.3998
     3.4693   5.5696   5.6027   5.7823   8.2931   8.3449   8.3970  10.3078

     occupation numbers 
     1.0000   1.0000   1.0000   1.0000   1.0000   1.0000   1.0000   1.0000
     1.0000   1.0000   1.0000   1.0000   1.0000   1.0000   1.0000   1.0000
     1.0000   1.0000   1.0000   1.0000   0.0000   0.0000   0.0000   0.0000

          k = 0.3182 0.3636 0.4545 (  2408 PWs)   bands (ev):

   -51.7654 -28.0621 -27.8871 -27.8854 -27.8840 -10.2228 -10.1438 -10.0264
    -9.6860  -9.5827  -9.5429   2.3370   2.9491   3.1066   3.1565   3.3630
     3.4758   5.5820   5.6262   5.8011   8.3005   8.3789   8.4302  10.3088

     occupation numbers 
     1.0000   1.0000   1.0000   1.0000   1.0000   1.0000   1.0000   1.0000
     1.0000   1.0000   1.0000   1.0000   1.0000   1.0000   1.0000   1.0000
     1.0000   1.0000   1.0000   1.0000   0.0000   0.0000   0.0000   0.0000

          k = 0.3182 0.3636-0.5000 (  2410 PWs)   bands (ev):

   -51.7654 -28.0621 -27.8874 -27.8854 -27.8840 -10.2152 -10.1493 -10.0194
    -9.6938  -9.5843  -9.5398   2.3215   2.9429   3.1087   3.1446   3.3503
     3.4788   5.5857   5.6341   5.8075   8.3027   8.3911   8.4420  10.3085

     occupation numbers 
     1.0000   1.0000   1.0000   1.0000   1.0000   1.0000   1.0000   1.0000
     1.0000   1.0000   1.0000   1.0000   1.0000   1.0000   1.0000   1.0000
     1.0000   1.0000   1.0000   1.0000   0.0000   0.0000   0.0000   0.0000

          k = 0.3182 0.4091 0.4091 (  2415 PWs)   bands (ev):

   -51.7654 -28.0620 -27.8866 -27.8864 -27.8840 -10.2122 -10.1325 -10.0350
    -9.6893  -9.5731  -9.5587   2.3253   2.9253   3.0990   3.1506   3.3972
     3.4143   5.6098   5.6310   5.8196   8.3430   8.3599   8.4409  10.3466

     occupation numbers 
     1.0000   1.0000   1.0000   1.0000   1.0000   1.0000   1.0000   1.0000
     1.0000   1.0000   1.0000   1.0000   1.0000   1.0000   1.0000   1.0000
     1.0000   1.0000   1.0000   1.0000   0.0000   0.0000   0.0000   0.0000

          k = 0.3182 0.4091 0.4545 (  2418 PWs)   bands (ev):

   -51.7654 -28.0618 -27.8872 -27.8865 -27.8840 -10.1893 -10.1399 -10.0231
    -9.7100  -9.5747  -9.5560   2.2853   2.8998   3.1016   3.1221   3.3669
     3.4143   5.6284   5.6504   5.8448   8.3560   8.3886   8.4712  10.3575

     occupation numbers 
     1.0000   1.0000   1.0000   1.0000   1.0000   1.0000   1.0000   1.0000
     1.0000   1.0000   1.0000   1.0000   1.0000   1.0000   1.0000   1.0000
     1.0000   1.0000   1.0000   1.0000   0.0000   0.0000   0.0000   0.0000

          k = 0.3182 0.4091-0.5000 (  2412 PWs)   bands (ev):

   -51.7654 -28.0617 -27.8874 -27.8865 -27.8840 -10.1791 -10.1451 -10.0179
    -9.7181  -9.5768  -9.5533   2.2708   2.8919   3.1037   3.1115   3.3543
     3.4172   5.6332   5.6577   5.8535   8.3583   8.4008   8.4819  10.3597

     occupation numbers 
     1.0000   1.0000   1.0000   1.0000   1.0000   1.0000   1.0000   1.0000
     1.0000   1.0000   1.0000   1.0000   1.0000   1.0000   1.0000   1.0000
     1.0000   1.0000   1.0000   1.0000   0.0000   0.0000   0.0000   0.0000

          k = 0.3182 0.4545 0.4545 (  2418 PWs)   bands (ev):

   -51.7654 -28.0615 -27.8872 -27.8872 -27.8839 -10.1645 -10.1407 -10.0178
    -9.7314  -9.5675  -9.5637   2.2473   2.8712   3.0952   3.1045   3.3732
     3.3781   5.6551   5.6625   5.8744   8.3910   8.3956   8.4997  10.3735

     occupation numbers 
     1.0000   1.0000   1.0000   1.0000   1.0000   1.0000   1.0000   1.0000
     1.0000   1.0000   1.0000   1.0000   1.0000   1.0000   1.0000   1.0000
     1.0000   1.0000   1.0000   1.0000   0.0000   0.0000   0.0000   0.0000

          k = 0.3182 0.4545-0.5000 (  2416 PWs)   bands (ev):

   -51.7654 -28.0614 -27.8874 -27.8872 -27.8839 -10.1531 -10.1437 -10.0153
    -9.7398  -9.5688  -9.5624   2.2334   2.8622   3.0863   3.1055   3.3626
     3.3792   5.6619   5.6683   5.8846   8.3951   8.4062   8.5098  10.3772

     occupation numbers 
     1.0000   1.0000   1.0000   1.0000   1.0000   1.0000   1.0000   1.0000
     1.0000   1.0000   1.0000   1.0000   1.0000   1.0000   1.0000   1.0000
     1.0000   1.0000   1.0000   1.0000   0.0000   0.0000   0.0000   0.0000

          k = 0.3182-0.5000-0.5000 (  2416 PWs)   bands (ev):

   -51.7654 -28.0614 -27.8874 -27.8874 -27.8839 -10.1434 -10.1434 -10.0140
    -9.7483  -9.5657  -9.5657   2.2197   2.8527   3.0773   3.1068   3.3661
     3.3661   5.6714   5.6714   5.8954   8.4079   8.4079   8.5198  10.3812

     occupation numbers 
     1.0000   1.0000   1.0000   1.0000   1.0000   1.0000   1.0000   1.0000
     1.0000   1.0000   1.0000   1.0000   1.0000   1.0000   1.0000   1.0000
     1.0000   1.0000   1.0000   1.0000   0.0000   0.0000   0.0000   0.0000

          k = 0.3636 0.3636 0.3636 (  2419 PWs)   bands (ev):

   -51.7654 -28.0623 -27.8855 -27.8855 -27.8852 -10.2366 -10.0859 -10.0859
    -9.6180  -9.6180  -9.5661   2.3829   3.0154   3.0154   3.2301   3.3989
     3.3989   5.6178   5.6178   5.7788   8.3251   8.3636   8.3636  10.5150

     occupation numbers 
     1.0000   1.0000   1.0000   1.0000   1.0000   1.0000   1.0000   1.0000
     1.0000   1.0000   1.0000   1.0000   1.0000   1.0000   1.0000   1.0000
     1.0000   1.0000   1.0000   1.0000   0.0000   0.0000   0.0000   0.0000

          k = 0.3636 0.3636 0.4091 (  2414 PWs)   bands (ev):

   -51.7654 -28.0619 -27.8865 -27.8854 -27.8854 -10.2090 -10.1047 -10.0558
    -9.6499  -9.6082  -9.5711   2.3276   2.9620   3.0198   3.2007   3.3427
     3.3906   5.6477   5.6708   5.8045   8.3529   8.3938   8.4136  10.5075

     occupation numbers 
     1.0000   1.0000   1.0000   1.0000   1.0000   1.0000   1.0000   1.0000
     1.0000   1.0000   1.0000   1.0000   1.0000   1.0000   1.0000   1.0000
     1.0000   1.0000   1.0000   1.0000   0.0000   0.0000   0.0000   0.0000

          k = 0.3636 0.3636 0.4545 (  2412 PWs)   bands (ev):

   -51.7654 -28.0617 -27.8871 -27.8854 -27.8854 -10.1865 -10.1211 -10.0340
    -9.6729  -9.6094  -9.5674   2.2871   2.9346   3.0231   3.1741   3.3080
     3.3955   5.6623   5.7025   5.8229   8.3614   8.4235   8.4471  10.5022

     occupation numbers 
     1.0000   1.0000   1.0000   1.0000   1.0000   1.0000   1.0000   1.0000
     1.0000   1.0000   1.0000   1.0000   1.0000   1.0000   1.0000   1.0000
     1.0000   1.0000   1.0000   1.0000   0.0000   0.0000   0.0000   0.0000

          k = 0.3636 0.3636-0.5000 (  2414 PWs)   bands (ev):

   -51.7654 -28.0616 -27.8874 -27.8854 -27.8854 -10.1760 -10.1293 -10.0258
    -9.6814  -9.6111  -9.5649   2.2723   2.9264   3.0243   3.1642   3.2962
     3.3983   5.6667   5.7130   5.8295   8.3638   8.4346   8.4588  10.5003

     occupation numbers 
     1.0000   1.0000   1.0000   1.0000   1.0000   1.0000   1.0000   1.0000
     1.0000   1.0000   1.0000   1.0000   1.0000   1.0000   1.0000   1.0000
     1.0000   1.0000   1.0000   1.0000   0.0000   0.0000   0.0000   0.0000

          k = 0.3636 0.4091 0.4091 (  2412 PWs)   bands (ev):

   -51.7654 -28.0616 -27.8865 -27.8864 -27.8854 -10.1790 -10.0970 -10.0502
    -9.6638  -9.6115  -9.5860   2.2756   2.9279   2.9968   3.1842   3.3227
     3.3403   5.6993   5.7131   5.8317   8.3982   8.4152   8.4511  10.5836

     occupation numbers 
     1.0000   1.0000   1.0000   1.0000   1.0000   1.0000   1.0000   1.0000
     1.0000   1.0000   1.0000   1.0000   1.0000   1.0000   1.0000   1.0000
     1.0000   1.0000   1.0000   1.0000   0.0000   0.0000   0.0000   0.0000

          k = 0.3636 0.4091 0.4545 (  2418 PWs)   bands (ev):

   -51.7654 -28.0614 -27.8871 -27.8865 -27.8854 -10.1541 -10.1068 -10.0344
    -9.6845  -9.6128  -9.5880   2.2373   2.9003   2.9951   3.1626   3.2951
     3.3380   5.7203   5.7428   5.8538   8.4119   8.4408   8.4812  10.5944

     occupation numbers 
     1.0000   1.0000   1.0000   1.0000   1.0000   1.0000   1.0000   1.0000
     1.0000   1.0000   1.0000   1.0000   1.0000   1.0000   1.0000   1.0000
     1.0000   1.0000   1.0000   1.0000   0.0000   0.0000   0.0000   0.0000

          k = 0.3636 0.4091-0.5000 (  2412 PWs)   bands (ev):

   -51.7654 -28.0613 -27.8874 -27.8865 -27.8853 -10.1410 -10.1154 -10.0273
    -9.6928  -9.6153  -9.5863   2.2233   2.8913   2.9953   3.1540   3.2838
     3.3407   5.7256   5.7535   5.8620   8.4145   8.4518   8.4920  10.5954

     occupation numbers 
     1.0000   1.0000   1.0000   1.0000   1.0000   1.0000   1.0000   1.0000
     1.0000   1.0000   1.0000   1.0000   1.0000   1.0000   1.0000   1.0000
     1.0000   1.0000   1.0000   1.0000   0.0000   0.0000   0.0000   0.0000

          k = 0.3636 0.4545 0.4545 (  2419 PWs)   bands (ev):

   -51.7654 -28.0611 -27.8872 -27.8871 -27.8853 -10.1290 -10.1040 -10.0289
    -9.7037  -9.6075  -9.6006   2.2007   2.8727   2.9901   3.1430   3.2986
     3.3055   5.7539   5.7606   5.8805   8.4440   8.4485   8.5093  10.6199

     occupation numbers 
     1.0000   1.0000   1.0000   1.0000   1.0000   1.0000   1.0000   1.0000
     1.0000   1.0000   1.0000   1.0000   1.0000   1.0000   1.0000   1.0000
     1.0000   1.0000   1.0000   1.0000   0.0000   0.0000   0.0000   0.0000

          k = 0.3636 0.4545-0.5000 (  2414 PWs)   bands (ev):

   -51.7654 -28.0611 -27.8874 -27.8872 -27.8853 -10.1157 -10.1083 -10.0255
    -9.7118  -9.6091  -9.6009   2.1872   2.8634   2.9895   3.1350   3.2902
     3.3058   5.7613   5.7692   5.8905   8.4481   8.4581   8.5194  10.6247

     occupation numbers 
     1.0000   1.0000   1.0000   1.0000   1.0000   1.0000   1.0000   1.0000
     1.0000   1.0000   1.0000   1.0000   1.0000   1.0000   1.0000   1.0000
     1.0000   1.0000   1.0000   1.0000   0.0000   0.0000   0.0000   0.0000

          k = 0.3636-0.5000-0.5000 (  2416 PWs)   bands (ev):

   -51.7654 -28.0610 -27.8874 -27.8874 -27.8853 -10.1063 -10.1063 -10.0241
    -9.7200  -9.6061  -9.6061   2.1740   2.8539   2.9886   3.1271   3.2940
     3.2940   5.7733   5.7733   5.9012   8.4600   8.4600   8.5293  10.6306

     occupation numbers 
     1.0000   1.0000   1.0000   1.0000   1.0000   1.0000   1.0000   1.0000
     1.0000   1.0000   1.0000   1.0000   1.0000   1.0000   1.0000   1.0000
     1.0000   1.0000   1.0000   1.0000   0.0000   0.0000   0.0000   0.0000

          k = 0.4091 0.4091 0.4091 (  2410 PWs)   bands (ev):

   -51.7654 -28.0612 -27.8865 -27.8865 -27.8864 -10.1483 -10.0650 -10.0650
    -9.6458  -9.6458  -9.6074   2.2261   2.9303   2.9303   3.1957   3.2863
     3.2863   5.7643   5.7643   5.8489   8.4418   8.4617   8.4617  10.7682

     occupation numbers 
     1.0000   1.0000   1.0000   1.0000   1.0000   1.0000   1.0000   1.0000
     1.0000   1.0000   1.0000   1.0000   1.0000   1.0000   1.0000   1.0000
     1.0000   1.0000   1.0000   1.0000   0.0000   0.0000   0.0000   0.0000

          k = 0.4091 0.4091 0.4545 (  2418 PWs)   bands (ev):

   -51.7654 -28.0610 -27.8871 -27.8864 -27.8864 -10.1223 -10.0797 -10.0416
    -9.6707  -9.6410  -9.6155   2.1897   2.8946   2.9320   3.1848   3.2534
     3.2835   5.7873   5.8036   5.8673   8.4586   8.4810   8.4928  10.7632

     occupation numbers 
     1.0000   1.0000   1.0000   1.0000   1.0000   1.0000   1.0000   1.0000
     1.0000   1.0000   1.0000   1.0000   1.0000   1.0000   1.0000   1.0000
     1.0000   1.0000   1.0000   1.0000   0.0000   0.0000   0.0000   0.0000

          k = 0.4091 0.4091-0.5000 (  2420 PWs)   bands (ev):

   -51.7654 -28.0610 -27.8874 -27.8864 -27.8864 -10.1068 -10.0910 -10.0328
    -9.6799  -9.6428  -9.6150   2.1763   2.8835   2.9326   3.1780   3.2423
     3.2859   5.7932   5.8168   5.8751   8.4613   8.4909   8.5038  10.7613

     occupation numbers 
     1.0000   1.0000   1.0000   1.0000   1.0000   1.0000   1.0000   1.0000
     1.0000   1.0000   1.0000   1.0000   1.0000   1.0000   1.0000   1.0000
     1.0000   1.0000   1.0000   1.0000   0.0000   0.0000   0.0000   0.0000

          k = 0.4091 0.4545 0.4545 (  2415 PWs)   bands (ev):

   -51.7654 -28.0608 -27.8871 -27.8871 -27.8864 -10.0969 -10.0707 -10.0382
    -9.6821  -9.6433  -9.6330   2.1546   2.8740   2.9155   3.1792   3.2461
     3.2529   5.8263   5.8315   5.8862   8.4883   8.4929   8.5169  10.8177

     occupation numbers 
     1.0000   1.0000   1.0000   1.0000   1.0000   1.0000   1.0000   1.0000
     1.0000   1.0000   1.0000   1.0000   1.0000   1.0000   1.0000   1.0000
     1.0000   1.0000   1.0000   1.0000   0.0000   0.0000   0.0000   0.0000

          k = 0.4091 0.4545-0.5000 (  2416 PWs)   bands (ev):

   -51.7653 -28.0608 -27.8873 -27.8871 -27.8864 -10.0819 -10.0767 -10.0332
    -9.6901  -9.6450  -9.6351   2.1417   2.8641   2.9139   3.1727   3.2382
     3.2529   5.8344   5.8429   5.8955   8.4926   8.5016   8.5270  10.8236

     occupation numbers 
     1.0000   1.0000   1.0000   1.0000   1.0000   1.0000   1.0000   1.0000
     1.0000   1.0000   1.0000   1.0000   1.0000   1.0000   1.0000   1.0000
     1.0000   1.0000   1.0000   1.0000   0.0000   0.0000   0.0000   0.0000

          k = 0.4091-0.5000-0.5000 (  2420 PWs)   bands (ev):

   -51.7653 -28.0607 -27.8873 -27.8873 -27.8864 -10.0726 -10.0726 -10.0320
    -9.6977  -9.6424  -9.6424   2.1290   2.8548   2.9113   3.1662   3.2418
     3.2418   5.8483   5.8483   5.9056   8.5037   8.5037   8.5369  10.8334

     occupation numbers 
     1.0000   1.0000   1.0000   1.0000   1.0000   1.0000   1.0000   1.0000
     1.0000   1.0000   1.0000   1.0000   1.0000   1.0000   1.0000   1.0000
     1.0000   1.0000   1.0000   1.0000   0.0000   0.0000   0.0000   0.0000

          k = 0.4545 0.4545 0.4545 (  2416 PWs)   bands (ev):

   -51.7653 -28.0606 -27.8871 -27.8871 -27.8871 -10.0719 -10.0463 -10.0463
    -9.6692  -9.6692  -9.6550   2.1207   2.8748   2.8748   3.1958   3.2210
     3.2210   5.8705   5.8705   5.8939   8.5172   8.5227   8.5227  10.9509

     occupation numbers 
     1.0000   1.0000   1.0000   1.0000   1.0000   1.0000   1.0000   1.0000
     1.0000   1.0000   1.0000   1.0000   1.0000   1.0000   1.0000   1.0000
     1.0000   1.0000   1.0000   1.0000   0.0000   0.0000   0.0000   0.0000

          k = 0.4545 0.4545-0.5000 (  2424 PWs)   bands (ev):

   -51.7653 -28.0606 -27.8873 -27.8871 -27.8871 -10.0572 -10.0546 -10.0372
    -9.6789  -9.6683  -9.6596   2.1082   2.8620   2.8751   3.1933   3.2103
     3.2209   5.8791   5.8853   5.9011   8.5225   8.5295   8.5332  10.9499

     occupation numbers 
     1.0000   1.0000   1.0000   1.0000   1.0000   1.0000   1.0000   1.0000
     1.0000   1.0000   1.0000   1.0000   1.0000   1.0000   1.0000   1.0000
     1.0000   1.0000   1.0000   1.0000   0.0000   0.0000   0.0000   0.0000

          k = 0.4545-0.5000-0.5000 (  2440 PWs)   bands (ev):

   -51.7653 -28.0605 -27.8873 -27.8873 -27.8871 -10.0480 -10.0480 -10.0370
    -9.6835  -9.6687  -9.6687   2.0959   2.8553   2.8689   3.1911   3.2102
     3.2102   5.8941   5.8941   5.9085   8.5330   8.5330   8.5417  10.9734

     occupation numbers 
     1.0000   1.0000   1.0000   1.0000   1.0000   1.0000   1.0000   1.0000
     1.0000   1.0000   1.0000   1.0000   1.0000   1.0000   1.0000   1.0000
     1.0000   1.0000   1.0000   1.0000   0.0000   0.0000   0.0000   0.0000

          k =-0.5000-0.5000-0.5000 (  2440 PWs)   bands (ev):

   -51.7653 -28.0605 -27.8873 -27.8873 -27.8873 -10.0387 -10.0387 -10.0387
    -9.6786  -9.6786  -9.6786   2.0838   2.8555   2.8555   3.1996   3.1996
     3.1996   5.9095   5.9095   5.9095   8.5433   8.5433   8.5433  11.0255

     occupation numbers 
     1.0000   1.0000   1.0000   1.0000   1.0000   1.0000   1.0000   1.0000
     1.0000   1.0000   1.0000   1.0000   1.0000   1.0000   1.0000   1.0000
     1.0000   1.0000   1.0000   1.0000   0.0000   0.0000   0.0000   0.0000

     the Fermi energy is     6.1429 ev

!    total energy              =    -286.82390097 Ry
     Harris-Foulkes estimate   =    -286.82390098 Ry
     estimated scf accuracy    <          9.6E-09 Ry

     The total energy is the sum of the following terms:

     one-electron contribution =    -111.05783976 Ry
     hartree contribution      =      71.13411334 Ry
     xc contribution           =     -57.58953325 Ry
     ewald contribution        =    -189.31064130 Ry
     smearing contrib. (-TS)   =       0.00000000 Ry

     convergence has been achieved in  13 iterations
 
     init_run     :      2.68s CPU      2.99s WALL (       1 calls)
     electrons    :    103.88s CPU    113.87s WALL (       1 calls)

     Called by init_run:
     wfcinit      :      2.60s CPU      2.82s WALL (       1 calls)
     wfcinit:atom :      0.02s CPU      0.02s WALL (     364 calls)
     wfcinit:wfcr :      2.49s CPU      2.71s WALL (     364 calls)
     potinit      :      0.01s CPU      0.01s WALL (       1 calls)
     hinit0       :      0.07s CPU      0.12s WALL (       1 calls)

     Called by electrons:
     c_bands      :     95.94s CPU    105.45s WALL (      13 calls)
     sum_band     :      7.81s CPU      8.25s WALL (      13 calls)
     v_of_rho     :      0.02s CPU      0.03s WALL (      14 calls)
     v_h          :      0.00s CPU      0.00s WALL (      14 calls)
     v_xc         :      0.02s CPU      0.02s WALL (      14 calls)
     newd         :      0.10s CPU      0.11s WALL (      14 calls)
     mix_rho      :      0.01s CPU      0.01s WALL (      13 calls)

     Called by c_bands:
     init_us_2    :      0.72s CPU      0.76s WALL (    9828 calls)
     cegterg      :     93.10s CPU    102.52s WALL (    4732 calls)

     Called by sum_band:
     sum_band:bec :      0.10s CPU      0.10s WALL (    4732 calls)
     addusdens    :      0.10s CPU      0.10s WALL (      13 calls)

     Called by *egterg:
     h_psi        :     34.02s CPU     35.98s WALL (   17706 calls)
     s_psi        :      0.86s CPU      0.91s WALL (   17706 calls)
     g_psi        :      0.19s CPU      0.20s WALL (   12610 calls)
     cdiaghg      :     49.51s CPU     55.14s WALL (   17342 calls)
     cegterg:over :      6.19s CPU      8.04s WALL (   12610 calls)
     cegterg:upda :      2.20s CPU      2.27s WALL (   12610 calls)
     cegterg:last :      0.94s CPU      0.98s WALL (    4732 calls)
     cdiaghg:chol :      1.46s CPU      1.71s WALL (   17342 calls)
     cdiaghg:inve :      0.81s CPU      0.96s WALL (   17342 calls)
     cdiaghg:para :      2.59s CPU      2.84s WALL (   34684 calls)

     Called by h_psi:
     h_psi:pot    :     33.93s CPU     35.89s WALL (   17706 calls)
     h_psi:calbec :      1.61s CPU      1.70s WALL (   17706 calls)
     vloc_psi     :     31.35s CPU     33.16s WALL (   17706 calls)
     add_vuspsi   :      0.90s CPU      0.96s WALL (   17706 calls)

     General routines
     calbec       :      2.12s CPU      2.25s WALL (   22438 calls)
     fft          :      0.02s CPU      0.05s WALL (     155 calls)
     ffts         :      0.00s CPU      0.00s WALL (      13 calls)
     fftw         :     35.57s CPU     37.62s WALL (  690252 calls)
 
     Parallel routines
     fft_scatt_xy :      2.80s CPU      2.98s WALL (  690420 calls)
     fft_scatt_yz :     22.09s CPU     23.53s WALL (  690420 calls)
 
     PWSCF        :  1m46.66s CPU     1m57.17s WALL

 
   This run was terminated on:  22:40:37   6Feb2019            

=------------------------------------------------------------------------------=
   JOB DONE.
=------------------------------------------------------------------------------=
