
     Program PWSCF v.6.3MaX starts on  6Feb2019 at 21:58:51 

     This program is part of the open-source Quantum ESPRESSO suite
     for quantum simulation of materials; please cite
         "P. Giannozzi et al., J. Phys.:Condens. Matter 21 395502 (2009);
         "P. Giannozzi et al., J. Phys.:Condens. Matter 29 465901 (2017);
          URL http://www.quantum-espresso.org", 
     in publications or presentations arising from this work. More details at
     http://www.quantum-espresso.org/quote

     Parallel version (MPI & OpenMP), running on      20 processor cores
     Number of MPI processes:                20
     Threads/MPI process:                     1

     MPI processes distributed on     1 nodes
     R & G space division:  proc/nbgrp/npool/nimage =      20
     Reading input from /home/azadoks/dftman/projects/SrTiO3 Convergence/EOSWorkflows/fe867a77a7d2/01e238b2b60d/pwscf.in
Warning: card &IONS ignored
Warning: card / ignored
Warning: card &CELL ignored
Warning: card / ignored

     Current dimensions of program PWSCF are:
     Max number of different atomic species (ntypx) = 10
     Max number of k-points (npk) =  40000
     Max angular momentum in pseudopotentials (lmaxx) =  3
     Message from routine iosys:
     minimal I/O required, wf_collect reset to FALSE

     Subspace diagonalization in iterative solution of the eigenvalue problem:
     one sub-group per band group will be used
     scalapack distributed-memory algorithm (size of sub-group:  3*  3 procs)

 
     Parallelization info
     --------------------
     sticks:   dense  smooth     PW     G-vecs:    dense   smooth      PW
     Min          31      31      9                  591      591     103
     Max          32      32     10                  594      594     108
     Sum         633     633    193                11837    11837    2103
 


     bravais-lattice index     =            0
     lattice parameter (alat)  =       6.2955  a.u.
     unit-cell volume          =     249.5133 (a.u.)^3
     number of atoms/cell      =            5
     number of atomic types    =            3
     number of electrons       =        40.00
     number of Kohn-Sham states=           24
     kinetic-energy cutoff     =      50.0000  Ry
     charge density cutoff     =     200.0000  Ry
     convergence threshold     =      1.0E-08
     mixing beta               =       0.7000
     number of iterations used =            8  plain     mixing
     Exchange-correlation      =  SLA  PW   PBX  PBC ( 1  4  3  4 0 0)

     celldm(1)=   6.295515  celldm(2)=   0.000000  celldm(3)=   0.000000
     celldm(4)=   0.000000  celldm(5)=   0.000000  celldm(6)=   0.000000

     crystal axes: (cart. coord. in units of alat)
               a(1) = (   1.000000   0.000000   0.000000 )  
               a(2) = (   0.000000   1.000000   0.000000 )  
               a(3) = (   0.000000   0.000000   1.000000 )  

     reciprocal axes: (cart. coord. in units 2 pi/alat)
               b(1) = (  1.000000  0.000000  0.000000 )  
               b(2) = (  0.000000  1.000000  0.000000 )  
               b(3) = (  0.000000  0.000000  1.000000 )  


     PseudoPot. # 1 for O  read from file:
     /home/azadoks/.local/share/pseudo/GBRV_PBE_US/o_pbe_v1.2.uspp.F.UPF
     MD5 check sum: 734c27235a0248c51dbae37a1fbe46ec
     Pseudo is Ultrasoft + core correction, Zval =  6.0
     Generated by new atomic code, or converted to UPF format
     Using radial grid of  737 points,  5 beta functions with: 
                l(1) =   0
                l(2) =   0
                l(3) =   1
                l(4) =   1
                l(5) =   2
     Q(r) pseudized with  8 coefficients,  rinner =    0.900   0.900   0.900
                                                       0.900   0.900

     PseudoPot. # 2 for Sr read from file:
     /home/azadoks/.local/share/pseudo/GBRV_PBE_US/sr_pbe_v1.uspp.F.UPF
     MD5 check sum: 6b418c05fbe9db5448babca5e47b7a5b
     Pseudo is Ultrasoft + core correction, Zval = 10.0
     Generated by new atomic code, or converted to UPF format
     Using radial grid of  883 points,  6 beta functions with: 
                l(1) =   0
                l(2) =   0
                l(3) =   1
                l(4) =   1
                l(5) =   2
                l(6) =   2
     Q(r) pseudized with  6 coefficients,  rinner =    1.400   1.400   1.400
                                                       1.400   1.400

     PseudoPot. # 3 for Ti read from file:
     /home/azadoks/.local/share/pseudo/GBRV_PBE_US/ti_pbe_v1.4.uspp.F.UPF
     MD5 check sum: 88a00a6731bd790ddea75d31a80cb452
     Pseudo is Ultrasoft + core correction, Zval = 12.0
     Generated by new atomic code, or converted to UPF format
     Using radial grid of  851 points,  6 beta functions with: 
                l(1) =   0
                l(2) =   0
                l(3) =   1
                l(4) =   1
                l(5) =   2
                l(6) =   2
     Q(r) pseudized with  6 coefficients,  rinner =    1.000   1.000   1.000
                                                       1.000   1.000

     atomic species   valence    mass     pseudopotential
        O              6.00    15.99940     O ( 1.00)
        Sr            10.00    87.62000     Sr( 1.00)
        Ti            12.00    47.86700     Ti( 1.00)

     48 Sym. Ops., with inversion, found


                                    s                        frac. trans.

      isym =  1     identity                                     

 cryst.   s( 1) = (     1          0          0      )
                  (     0          1          0      )
                  (     0          0          1      )

 cart.    s( 1) = (  1.0000000  0.0000000  0.0000000 )
                  (  0.0000000  1.0000000  0.0000000 )
                  (  0.0000000  0.0000000  1.0000000 )


      isym =  2     180 deg rotation - cart. axis [0,0,1]        

 cryst.   s( 2) = (    -1          0          0      )
                  (     0         -1          0      )
                  (     0          0          1      )

 cart.    s( 2) = ( -1.0000000  0.0000000  0.0000000 )
                  (  0.0000000 -1.0000000  0.0000000 )
                  (  0.0000000  0.0000000  1.0000000 )


      isym =  3     180 deg rotation - cart. axis [0,1,0]        

 cryst.   s( 3) = (    -1          0          0      )
                  (     0          1          0      )
                  (     0          0         -1      )

 cart.    s( 3) = ( -1.0000000  0.0000000  0.0000000 )
                  (  0.0000000  1.0000000  0.0000000 )
                  (  0.0000000  0.0000000 -1.0000000 )


      isym =  4     180 deg rotation - cart. axis [1,0,0]        

 cryst.   s( 4) = (     1          0          0      )
                  (     0         -1          0      )
                  (     0          0         -1      )

 cart.    s( 4) = (  1.0000000  0.0000000  0.0000000 )
                  (  0.0000000 -1.0000000  0.0000000 )
                  (  0.0000000  0.0000000 -1.0000000 )


      isym =  5     180 deg rotation - cart. axis [1,1,0]        

 cryst.   s( 5) = (     0          1          0      )
                  (     1          0          0      )
                  (     0          0         -1      )

 cart.    s( 5) = (  0.0000000  1.0000000  0.0000000 )
                  (  1.0000000  0.0000000  0.0000000 )
                  (  0.0000000  0.0000000 -1.0000000 )


      isym =  6     180 deg rotation - cart. axis [1,-1,0]       

 cryst.   s( 6) = (     0         -1          0      )
                  (    -1          0          0      )
                  (     0          0         -1      )

 cart.    s( 6) = (  0.0000000 -1.0000000  0.0000000 )
                  ( -1.0000000  0.0000000  0.0000000 )
                  (  0.0000000  0.0000000 -1.0000000 )


      isym =  7      90 deg rotation - cart. axis [0,0,-1]       

 cryst.   s( 7) = (     0         -1          0      )
                  (     1          0          0      )
                  (     0          0          1      )

 cart.    s( 7) = (  0.0000000  1.0000000  0.0000000 )
                  ( -1.0000000  0.0000000  0.0000000 )
                  (  0.0000000  0.0000000  1.0000000 )


      isym =  8      90 deg rotation - cart. axis [0,0,1]        

 cryst.   s( 8) = (     0          1          0      )
                  (    -1          0          0      )
                  (     0          0          1      )

 cart.    s( 8) = (  0.0000000 -1.0000000  0.0000000 )
                  (  1.0000000  0.0000000  0.0000000 )
                  (  0.0000000  0.0000000  1.0000000 )


      isym =  9     180 deg rotation - cart. axis [1,0,1]        

 cryst.   s( 9) = (     0          0          1      )
                  (     0         -1          0      )
                  (     1          0          0      )

 cart.    s( 9) = (  0.0000000  0.0000000  1.0000000 )
                  (  0.0000000 -1.0000000  0.0000000 )
                  (  1.0000000  0.0000000  0.0000000 )


      isym = 10     180 deg rotation - cart. axis [-1,0,1]       

 cryst.   s(10) = (     0          0         -1      )
                  (     0         -1          0      )
                  (    -1          0          0      )

 cart.    s(10) = (  0.0000000  0.0000000 -1.0000000 )
                  (  0.0000000 -1.0000000  0.0000000 )
                  ( -1.0000000  0.0000000  0.0000000 )


      isym = 11      90 deg rotation - cart. axis [0,1,0]        

 cryst.   s(11) = (     0          0         -1      )
                  (     0          1          0      )
                  (     1          0          0      )

 cart.    s(11) = (  0.0000000  0.0000000  1.0000000 )
                  (  0.0000000  1.0000000  0.0000000 )
                  ( -1.0000000  0.0000000  0.0000000 )


      isym = 12      90 deg rotation - cart. axis [0,-1,0]       

 cryst.   s(12) = (     0          0          1      )
                  (     0          1          0      )
                  (    -1          0          0      )

 cart.    s(12) = (  0.0000000  0.0000000 -1.0000000 )
                  (  0.0000000  1.0000000  0.0000000 )
                  (  1.0000000  0.0000000  0.0000000 )


      isym = 13     180 deg rotation - cart. axis [0,1,1]        

 cryst.   s(13) = (    -1          0          0      )
                  (     0          0          1      )
                  (     0          1          0      )

 cart.    s(13) = ( -1.0000000  0.0000000  0.0000000 )
                  (  0.0000000  0.0000000  1.0000000 )
                  (  0.0000000  1.0000000  0.0000000 )


      isym = 14     180 deg rotation - cart. axis [0,1,-1]       

 cryst.   s(14) = (    -1          0          0      )
                  (     0          0         -1      )
                  (     0         -1          0      )

 cart.    s(14) = ( -1.0000000  0.0000000  0.0000000 )
                  (  0.0000000  0.0000000 -1.0000000 )
                  (  0.0000000 -1.0000000  0.0000000 )


      isym = 15      90 deg rotation - cart. axis [-1,0,0]       

 cryst.   s(15) = (     1          0          0      )
                  (     0          0         -1      )
                  (     0          1          0      )

 cart.    s(15) = (  1.0000000  0.0000000  0.0000000 )
                  (  0.0000000  0.0000000  1.0000000 )
                  (  0.0000000 -1.0000000  0.0000000 )


      isym = 16      90 deg rotation - cart. axis [1,0,0]        

 cryst.   s(16) = (     1          0          0      )
                  (     0          0          1      )
                  (     0         -1          0      )

 cart.    s(16) = (  1.0000000  0.0000000  0.0000000 )
                  (  0.0000000  0.0000000 -1.0000000 )
                  (  0.0000000  1.0000000  0.0000000 )


      isym = 17     120 deg rotation - cart. axis [-1,-1,-1]     

 cryst.   s(17) = (     0          0          1      )
                  (     1          0          0      )
                  (     0          1          0      )

 cart.    s(17) = (  0.0000000  1.0000000  0.0000000 )
                  (  0.0000000  0.0000000  1.0000000 )
                  (  1.0000000  0.0000000  0.0000000 )


      isym = 18     120 deg rotation - cart. axis [-1,1,1]       

 cryst.   s(18) = (     0          0         -1      )
                  (    -1          0          0      )
                  (     0          1          0      )

 cart.    s(18) = (  0.0000000 -1.0000000  0.0000000 )
                  (  0.0000000  0.0000000  1.0000000 )
                  ( -1.0000000  0.0000000  0.0000000 )


      isym = 19     120 deg rotation - cart. axis [1,1,-1]       

 cryst.   s(19) = (     0          0         -1      )
                  (     1          0          0      )
                  (     0         -1          0      )

 cart.    s(19) = (  0.0000000  1.0000000  0.0000000 )
                  (  0.0000000  0.0000000 -1.0000000 )
                  ( -1.0000000  0.0000000  0.0000000 )


      isym = 20     120 deg rotation - cart. axis [1,-1,1]       

 cryst.   s(20) = (     0          0          1      )
                  (    -1          0          0      )
                  (     0         -1          0      )

 cart.    s(20) = (  0.0000000 -1.0000000  0.0000000 )
                  (  0.0000000  0.0000000 -1.0000000 )
                  (  1.0000000  0.0000000  0.0000000 )


      isym = 21     120 deg rotation - cart. axis [1,1,1]        

 cryst.   s(21) = (     0          1          0      )
                  (     0          0          1      )
                  (     1          0          0      )

 cart.    s(21) = (  0.0000000  0.0000000  1.0000000 )
                  (  1.0000000  0.0000000  0.0000000 )
                  (  0.0000000  1.0000000  0.0000000 )


      isym = 22     120 deg rotation - cart. axis [-1,1,-1]      

 cryst.   s(22) = (     0         -1          0      )
                  (     0          0         -1      )
                  (     1          0          0      )

 cart.    s(22) = (  0.0000000  0.0000000  1.0000000 )
                  ( -1.0000000  0.0000000  0.0000000 )
                  (  0.0000000 -1.0000000  0.0000000 )


      isym = 23     120 deg rotation - cart. axis [1,-1,-1]      

 cryst.   s(23) = (     0         -1          0      )
                  (     0          0          1      )
                  (    -1          0          0      )

 cart.    s(23) = (  0.0000000  0.0000000 -1.0000000 )
                  ( -1.0000000  0.0000000  0.0000000 )
                  (  0.0000000  1.0000000  0.0000000 )


      isym = 24     120 deg rotation - cart. axis [-1,-1,1]      

 cryst.   s(24) = (     0          1          0      )
                  (     0          0         -1      )
                  (    -1          0          0      )

 cart.    s(24) = (  0.0000000  0.0000000 -1.0000000 )
                  (  1.0000000  0.0000000  0.0000000 )
                  (  0.0000000 -1.0000000  0.0000000 )


      isym = 25     inversion                                    

 cryst.   s(25) = (    -1          0          0      )
                  (     0         -1          0      )
                  (     0          0         -1      )

 cart.    s(25) = ( -1.0000000  0.0000000  0.0000000 )
                  (  0.0000000 -1.0000000  0.0000000 )
                  (  0.0000000  0.0000000 -1.0000000 )


      isym = 26     inv. 180 deg rotation - cart. axis [0,0,1]   

 cryst.   s(26) = (     1          0          0      )
                  (     0          1          0      )
                  (     0          0         -1      )

 cart.    s(26) = (  1.0000000  0.0000000  0.0000000 )
                  (  0.0000000  1.0000000  0.0000000 )
                  (  0.0000000  0.0000000 -1.0000000 )


      isym = 27     inv. 180 deg rotation - cart. axis [0,1,0]   

 cryst.   s(27) = (     1          0          0      )
                  (     0         -1          0      )
                  (     0          0          1      )

 cart.    s(27) = (  1.0000000  0.0000000  0.0000000 )
                  (  0.0000000 -1.0000000  0.0000000 )
                  (  0.0000000  0.0000000  1.0000000 )


      isym = 28     inv. 180 deg rotation - cart. axis [1,0,0]   

 cryst.   s(28) = (    -1          0          0      )
                  (     0          1          0      )
                  (     0          0          1      )

 cart.    s(28) = ( -1.0000000  0.0000000  0.0000000 )
                  (  0.0000000  1.0000000  0.0000000 )
                  (  0.0000000  0.0000000  1.0000000 )


      isym = 29     inv. 180 deg rotation - cart. axis [1,1,0]   

 cryst.   s(29) = (     0         -1          0      )
                  (    -1          0          0      )
                  (     0          0          1      )

 cart.    s(29) = (  0.0000000 -1.0000000  0.0000000 )
                  ( -1.0000000  0.0000000  0.0000000 )
                  (  0.0000000  0.0000000  1.0000000 )


      isym = 30     inv. 180 deg rotation - cart. axis [1,-1,0]  

 cryst.   s(30) = (     0          1          0      )
                  (     1          0          0      )
                  (     0          0          1      )

 cart.    s(30) = (  0.0000000  1.0000000  0.0000000 )
                  (  1.0000000  0.0000000  0.0000000 )
                  (  0.0000000  0.0000000  1.0000000 )


      isym = 31     inv.  90 deg rotation - cart. axis [0,0,-1]  

 cryst.   s(31) = (     0          1          0      )
                  (    -1          0          0      )
                  (     0          0         -1      )

 cart.    s(31) = (  0.0000000 -1.0000000  0.0000000 )
                  (  1.0000000  0.0000000  0.0000000 )
                  (  0.0000000  0.0000000 -1.0000000 )


      isym = 32     inv.  90 deg rotation - cart. axis [0,0,1]   

 cryst.   s(32) = (     0         -1          0      )
                  (     1          0          0      )
                  (     0          0         -1      )

 cart.    s(32) = (  0.0000000  1.0000000  0.0000000 )
                  ( -1.0000000  0.0000000  0.0000000 )
                  (  0.0000000  0.0000000 -1.0000000 )


      isym = 33     inv. 180 deg rotation - cart. axis [1,0,1]   

 cryst.   s(33) = (     0          0         -1      )
                  (     0          1          0      )
                  (    -1          0          0      )

 cart.    s(33) = (  0.0000000  0.0000000 -1.0000000 )
                  (  0.0000000  1.0000000  0.0000000 )
                  ( -1.0000000  0.0000000  0.0000000 )


      isym = 34     inv. 180 deg rotation - cart. axis [-1,0,1]  

 cryst.   s(34) = (     0          0          1      )
                  (     0          1          0      )
                  (     1          0          0      )

 cart.    s(34) = (  0.0000000  0.0000000  1.0000000 )
                  (  0.0000000  1.0000000  0.0000000 )
                  (  1.0000000  0.0000000  0.0000000 )


      isym = 35     inv.  90 deg rotation - cart. axis [0,1,0]   

 cryst.   s(35) = (     0          0          1      )
                  (     0         -1          0      )
                  (    -1          0          0      )

 cart.    s(35) = (  0.0000000  0.0000000 -1.0000000 )
                  (  0.0000000 -1.0000000  0.0000000 )
                  (  1.0000000  0.0000000  0.0000000 )


      isym = 36     inv.  90 deg rotation - cart. axis [0,-1,0]  

 cryst.   s(36) = (     0          0         -1      )
                  (     0         -1          0      )
                  (     1          0          0      )

 cart.    s(36) = (  0.0000000  0.0000000  1.0000000 )
                  (  0.0000000 -1.0000000  0.0000000 )
                  ( -1.0000000  0.0000000  0.0000000 )


      isym = 37     inv. 180 deg rotation - cart. axis [0,1,1]   

 cryst.   s(37) = (     1          0          0      )
                  (     0          0         -1      )
                  (     0         -1          0      )

 cart.    s(37) = (  1.0000000  0.0000000  0.0000000 )
                  (  0.0000000  0.0000000 -1.0000000 )
                  (  0.0000000 -1.0000000  0.0000000 )


      isym = 38     inv. 180 deg rotation - cart. axis [0,1,-1]  

 cryst.   s(38) = (     1          0          0      )
                  (     0          0          1      )
                  (     0          1          0      )

 cart.    s(38) = (  1.0000000  0.0000000  0.0000000 )
                  (  0.0000000  0.0000000  1.0000000 )
                  (  0.0000000  1.0000000  0.0000000 )


      isym = 39     inv.  90 deg rotation - cart. axis [-1,0,0]  

 cryst.   s(39) = (    -1          0          0      )
                  (     0          0          1      )
                  (     0         -1          0      )

 cart.    s(39) = ( -1.0000000  0.0000000  0.0000000 )
                  (  0.0000000  0.0000000 -1.0000000 )
                  (  0.0000000  1.0000000  0.0000000 )


      isym = 40     inv.  90 deg rotation - cart. axis [1,0,0]   

 cryst.   s(40) = (    -1          0          0      )
                  (     0          0         -1      )
                  (     0          1          0      )

 cart.    s(40) = ( -1.0000000  0.0000000  0.0000000 )
                  (  0.0000000  0.0000000  1.0000000 )
                  (  0.0000000 -1.0000000  0.0000000 )


      isym = 41     inv. 120 deg rotation - cart. axis [-1,-1,-1]

 cryst.   s(41) = (     0          0         -1      )
                  (    -1          0          0      )
                  (     0         -1          0      )

 cart.    s(41) = (  0.0000000 -1.0000000  0.0000000 )
                  (  0.0000000  0.0000000 -1.0000000 )
                  ( -1.0000000  0.0000000  0.0000000 )


      isym = 42     inv. 120 deg rotation - cart. axis [-1,1,1]  

 cryst.   s(42) = (     0          0          1      )
                  (     1          0          0      )
                  (     0         -1          0      )

 cart.    s(42) = (  0.0000000  1.0000000  0.0000000 )
                  (  0.0000000  0.0000000 -1.0000000 )
                  (  1.0000000  0.0000000  0.0000000 )


      isym = 43     inv. 120 deg rotation - cart. axis [1,1,-1]  

 cryst.   s(43) = (     0          0          1      )
                  (    -1          0          0      )
                  (     0          1          0      )

 cart.    s(43) = (  0.0000000 -1.0000000  0.0000000 )
                  (  0.0000000  0.0000000  1.0000000 )
                  (  1.0000000  0.0000000  0.0000000 )


      isym = 44     inv. 120 deg rotation - cart. axis [1,-1,1]  

 cryst.   s(44) = (     0          0         -1      )
                  (     1          0          0      )
                  (     0          1          0      )

 cart.    s(44) = (  0.0000000  1.0000000  0.0000000 )
                  (  0.0000000  0.0000000  1.0000000 )
                  ( -1.0000000  0.0000000  0.0000000 )


      isym = 45     inv. 120 deg rotation - cart. axis [1,1,1]   

 cryst.   s(45) = (     0         -1          0      )
                  (     0          0         -1      )
                  (    -1          0          0      )

 cart.    s(45) = (  0.0000000  0.0000000 -1.0000000 )
                  ( -1.0000000  0.0000000  0.0000000 )
                  (  0.0000000 -1.0000000  0.0000000 )


      isym = 46     inv. 120 deg rotation - cart. axis [-1,1,-1] 

 cryst.   s(46) = (     0          1          0      )
                  (     0          0          1      )
                  (    -1          0          0      )

 cart.    s(46) = (  0.0000000  0.0000000 -1.0000000 )
                  (  1.0000000  0.0000000  0.0000000 )
                  (  0.0000000  1.0000000  0.0000000 )


      isym = 47     inv. 120 deg rotation - cart. axis [1,-1,-1] 

 cryst.   s(47) = (     0          1          0      )
                  (     0          0         -1      )
                  (     1          0          0      )

 cart.    s(47) = (  0.0000000  0.0000000  1.0000000 )
                  (  1.0000000  0.0000000  0.0000000 )
                  (  0.0000000 -1.0000000  0.0000000 )


      isym = 48     inv. 120 deg rotation - cart. axis [-1,-1,1] 

 cryst.   s(48) = (     0         -1          0      )
                  (     0          0          1      )
                  (     1          0          0      )

 cart.    s(48) = (  0.0000000  0.0000000  1.0000000 )
                  ( -1.0000000  0.0000000  0.0000000 )
                  (  0.0000000  1.0000000  0.0000000 )


   Cartesian axes

     site n.     atom                  positions (alat units)
         1           O   tau(   1) = (   0.5000000   0.0000000   0.5000000  )
         2           O   tau(   2) = (   0.5000000   0.5000000   0.0000000  )
         3           O   tau(   3) = (   0.0000000   0.5000000   0.5000000  )
         4           Ti  tau(   4) = (   0.5000000   0.5000000   0.5000000  )
         5           Sr  tau(   5) = (   0.0000000   0.0000000   0.0000000  )

   Crystallographic axes

     site n.     atom                  positions (cryst. coord.)
         1           O   tau(   1) = (  0.5000000  0.0000000  0.5000000  )
         2           O   tau(   2) = (  0.5000000  0.5000000  0.0000000  )
         3           O   tau(   3) = (  0.0000000  0.5000000  0.5000000  )
         4           Ti  tau(   4) = (  0.5000000  0.5000000  0.5000000  )
         5           Sr  tau(   5) = (  0.0000000  0.0000000  0.0000000  )

     number of k points=   560  Marzari-Vanderbilt smearing, width (Ry)=  0.0010
                       cart. coord. in units 2pi/alat
        k(    1) = (   0.0000000   0.0000000   0.0000000), wk =   0.0001138
        k(    2) = (   0.0000000   0.0000000   0.0384615), wk =   0.0006827
        k(    3) = (   0.0000000   0.0000000   0.0769231), wk =   0.0006827
        k(    4) = (   0.0000000   0.0000000   0.1153846), wk =   0.0006827
        k(    5) = (   0.0000000   0.0000000   0.1538462), wk =   0.0006827
        k(    6) = (   0.0000000   0.0000000   0.1923077), wk =   0.0006827
        k(    7) = (   0.0000000   0.0000000   0.2307692), wk =   0.0006827
        k(    8) = (   0.0000000   0.0000000   0.2692308), wk =   0.0006827
        k(    9) = (   0.0000000   0.0000000   0.3076923), wk =   0.0006827
        k(   10) = (   0.0000000   0.0000000   0.3461538), wk =   0.0006827
        k(   11) = (   0.0000000   0.0000000   0.3846154), wk =   0.0006827
        k(   12) = (   0.0000000   0.0000000   0.4230769), wk =   0.0006827
        k(   13) = (   0.0000000   0.0000000   0.4615385), wk =   0.0006827
        k(   14) = (   0.0000000   0.0000000  -0.5000000), wk =   0.0003414
        k(   15) = (   0.0000000   0.0384615   0.0384615), wk =   0.0013655
        k(   16) = (   0.0000000   0.0384615   0.0769231), wk =   0.0027310
        k(   17) = (   0.0000000   0.0384615   0.1153846), wk =   0.0027310
        k(   18) = (   0.0000000   0.0384615   0.1538462), wk =   0.0027310
        k(   19) = (   0.0000000   0.0384615   0.1923077), wk =   0.0027310
        k(   20) = (   0.0000000   0.0384615   0.2307692), wk =   0.0027310
        k(   21) = (   0.0000000   0.0384615   0.2692308), wk =   0.0027310
        k(   22) = (   0.0000000   0.0384615   0.3076923), wk =   0.0027310
        k(   23) = (   0.0000000   0.0384615   0.3461538), wk =   0.0027310
        k(   24) = (   0.0000000   0.0384615   0.3846154), wk =   0.0027310
        k(   25) = (   0.0000000   0.0384615   0.4230769), wk =   0.0027310
        k(   26) = (   0.0000000   0.0384615   0.4615385), wk =   0.0027310
        k(   27) = (   0.0000000   0.0384615  -0.5000000), wk =   0.0013655
        k(   28) = (   0.0000000   0.0769231   0.0769231), wk =   0.0013655
        k(   29) = (   0.0000000   0.0769231   0.1153846), wk =   0.0027310
        k(   30) = (   0.0000000   0.0769231   0.1538462), wk =   0.0027310
        k(   31) = (   0.0000000   0.0769231   0.1923077), wk =   0.0027310
        k(   32) = (   0.0000000   0.0769231   0.2307692), wk =   0.0027310
        k(   33) = (   0.0000000   0.0769231   0.2692308), wk =   0.0027310
        k(   34) = (   0.0000000   0.0769231   0.3076923), wk =   0.0027310
        k(   35) = (   0.0000000   0.0769231   0.3461538), wk =   0.0027310
        k(   36) = (   0.0000000   0.0769231   0.3846154), wk =   0.0027310
        k(   37) = (   0.0000000   0.0769231   0.4230769), wk =   0.0027310
        k(   38) = (   0.0000000   0.0769231   0.4615385), wk =   0.0027310
        k(   39) = (   0.0000000   0.0769231  -0.5000000), wk =   0.0013655
        k(   40) = (   0.0000000   0.1153846   0.1153846), wk =   0.0013655
        k(   41) = (   0.0000000   0.1153846   0.1538462), wk =   0.0027310
        k(   42) = (   0.0000000   0.1153846   0.1923077), wk =   0.0027310
        k(   43) = (   0.0000000   0.1153846   0.2307692), wk =   0.0027310
        k(   44) = (   0.0000000   0.1153846   0.2692308), wk =   0.0027310
        k(   45) = (   0.0000000   0.1153846   0.3076923), wk =   0.0027310
        k(   46) = (   0.0000000   0.1153846   0.3461538), wk =   0.0027310
        k(   47) = (   0.0000000   0.1153846   0.3846154), wk =   0.0027310
        k(   48) = (   0.0000000   0.1153846   0.4230769), wk =   0.0027310
        k(   49) = (   0.0000000   0.1153846   0.4615385), wk =   0.0027310
        k(   50) = (   0.0000000   0.1153846  -0.5000000), wk =   0.0013655
        k(   51) = (   0.0000000   0.1538462   0.1538462), wk =   0.0013655
        k(   52) = (   0.0000000   0.1538462   0.1923077), wk =   0.0027310
        k(   53) = (   0.0000000   0.1538462   0.2307692), wk =   0.0027310
        k(   54) = (   0.0000000   0.1538462   0.2692308), wk =   0.0027310
        k(   55) = (   0.0000000   0.1538462   0.3076923), wk =   0.0027310
        k(   56) = (   0.0000000   0.1538462   0.3461538), wk =   0.0027310
        k(   57) = (   0.0000000   0.1538462   0.3846154), wk =   0.0027310
        k(   58) = (   0.0000000   0.1538462   0.4230769), wk =   0.0027310
        k(   59) = (   0.0000000   0.1538462   0.4615385), wk =   0.0027310
        k(   60) = (   0.0000000   0.1538462  -0.5000000), wk =   0.0013655
        k(   61) = (   0.0000000   0.1923077   0.1923077), wk =   0.0013655
        k(   62) = (   0.0000000   0.1923077   0.2307692), wk =   0.0027310
        k(   63) = (   0.0000000   0.1923077   0.2692308), wk =   0.0027310
        k(   64) = (   0.0000000   0.1923077   0.3076923), wk =   0.0027310
        k(   65) = (   0.0000000   0.1923077   0.3461538), wk =   0.0027310
        k(   66) = (   0.0000000   0.1923077   0.3846154), wk =   0.0027310
        k(   67) = (   0.0000000   0.1923077   0.4230769), wk =   0.0027310
        k(   68) = (   0.0000000   0.1923077   0.4615385), wk =   0.0027310
        k(   69) = (   0.0000000   0.1923077  -0.5000000), wk =   0.0013655
        k(   70) = (   0.0000000   0.2307692   0.2307692), wk =   0.0013655
        k(   71) = (   0.0000000   0.2307692   0.2692308), wk =   0.0027310
        k(   72) = (   0.0000000   0.2307692   0.3076923), wk =   0.0027310
        k(   73) = (   0.0000000   0.2307692   0.3461538), wk =   0.0027310
        k(   74) = (   0.0000000   0.2307692   0.3846154), wk =   0.0027310
        k(   75) = (   0.0000000   0.2307692   0.4230769), wk =   0.0027310
        k(   76) = (   0.0000000   0.2307692   0.4615385), wk =   0.0027310
        k(   77) = (   0.0000000   0.2307692  -0.5000000), wk =   0.0013655
        k(   78) = (   0.0000000   0.2692308   0.2692308), wk =   0.0013655
        k(   79) = (   0.0000000   0.2692308   0.3076923), wk =   0.0027310
        k(   80) = (   0.0000000   0.2692308   0.3461538), wk =   0.0027310
        k(   81) = (   0.0000000   0.2692308   0.3846154), wk =   0.0027310
        k(   82) = (   0.0000000   0.2692308   0.4230769), wk =   0.0027310
        k(   83) = (   0.0000000   0.2692308   0.4615385), wk =   0.0027310
        k(   84) = (   0.0000000   0.2692308  -0.5000000), wk =   0.0013655
        k(   85) = (   0.0000000   0.3076923   0.3076923), wk =   0.0013655
        k(   86) = (   0.0000000   0.3076923   0.3461538), wk =   0.0027310
        k(   87) = (   0.0000000   0.3076923   0.3846154), wk =   0.0027310
        k(   88) = (   0.0000000   0.3076923   0.4230769), wk =   0.0027310
        k(   89) = (   0.0000000   0.3076923   0.4615385), wk =   0.0027310
        k(   90) = (   0.0000000   0.3076923  -0.5000000), wk =   0.0013655
        k(   91) = (   0.0000000   0.3461538   0.3461538), wk =   0.0013655
        k(   92) = (   0.0000000   0.3461538   0.3846154), wk =   0.0027310
        k(   93) = (   0.0000000   0.3461538   0.4230769), wk =   0.0027310
        k(   94) = (   0.0000000   0.3461538   0.4615385), wk =   0.0027310
        k(   95) = (   0.0000000   0.3461538  -0.5000000), wk =   0.0013655
        k(   96) = (   0.0000000   0.3846154   0.3846154), wk =   0.0013655
        k(   97) = (   0.0000000   0.3846154   0.4230769), wk =   0.0027310
        k(   98) = (   0.0000000   0.3846154   0.4615385), wk =   0.0027310
        k(   99) = (   0.0000000   0.3846154  -0.5000000), wk =   0.0013655
        k(  100) = (   0.0000000   0.4230769   0.4230769), wk =   0.0013655
        k(  101) = (   0.0000000   0.4230769   0.4615385), wk =   0.0027310
        k(  102) = (   0.0000000   0.4230769  -0.5000000), wk =   0.0013655
        k(  103) = (   0.0000000   0.4615385   0.4615385), wk =   0.0013655
        k(  104) = (   0.0000000   0.4615385  -0.5000000), wk =   0.0013655
        k(  105) = (   0.0000000  -0.5000000  -0.5000000), wk =   0.0003414
        k(  106) = (   0.0384615   0.0384615   0.0384615), wk =   0.0009103
        k(  107) = (   0.0384615   0.0384615   0.0769231), wk =   0.0027310
        k(  108) = (   0.0384615   0.0384615   0.1153846), wk =   0.0027310
        k(  109) = (   0.0384615   0.0384615   0.1538462), wk =   0.0027310
        k(  110) = (   0.0384615   0.0384615   0.1923077), wk =   0.0027310
        k(  111) = (   0.0384615   0.0384615   0.2307692), wk =   0.0027310
        k(  112) = (   0.0384615   0.0384615   0.2692308), wk =   0.0027310
        k(  113) = (   0.0384615   0.0384615   0.3076923), wk =   0.0027310
        k(  114) = (   0.0384615   0.0384615   0.3461538), wk =   0.0027310
        k(  115) = (   0.0384615   0.0384615   0.3846154), wk =   0.0027310
        k(  116) = (   0.0384615   0.0384615   0.4230769), wk =   0.0027310
        k(  117) = (   0.0384615   0.0384615   0.4615385), wk =   0.0027310
        k(  118) = (   0.0384615   0.0384615  -0.5000000), wk =   0.0013655
        k(  119) = (   0.0384615   0.0769231   0.0769231), wk =   0.0027310
        k(  120) = (   0.0384615   0.0769231   0.1153846), wk =   0.0054620
        k(  121) = (   0.0384615   0.0769231   0.1538462), wk =   0.0054620
        k(  122) = (   0.0384615   0.0769231   0.1923077), wk =   0.0054620
        k(  123) = (   0.0384615   0.0769231   0.2307692), wk =   0.0054620
        k(  124) = (   0.0384615   0.0769231   0.2692308), wk =   0.0054620
        k(  125) = (   0.0384615   0.0769231   0.3076923), wk =   0.0054620
        k(  126) = (   0.0384615   0.0769231   0.3461538), wk =   0.0054620
        k(  127) = (   0.0384615   0.0769231   0.3846154), wk =   0.0054620
        k(  128) = (   0.0384615   0.0769231   0.4230769), wk =   0.0054620
        k(  129) = (   0.0384615   0.0769231   0.4615385), wk =   0.0054620
        k(  130) = (   0.0384615   0.0769231  -0.5000000), wk =   0.0027310
        k(  131) = (   0.0384615   0.1153846   0.1153846), wk =   0.0027310
        k(  132) = (   0.0384615   0.1153846   0.1538462), wk =   0.0054620
        k(  133) = (   0.0384615   0.1153846   0.1923077), wk =   0.0054620
        k(  134) = (   0.0384615   0.1153846   0.2307692), wk =   0.0054620
        k(  135) = (   0.0384615   0.1153846   0.2692308), wk =   0.0054620
        k(  136) = (   0.0384615   0.1153846   0.3076923), wk =   0.0054620
        k(  137) = (   0.0384615   0.1153846   0.3461538), wk =   0.0054620
        k(  138) = (   0.0384615   0.1153846   0.3846154), wk =   0.0054620
        k(  139) = (   0.0384615   0.1153846   0.4230769), wk =   0.0054620
        k(  140) = (   0.0384615   0.1153846   0.4615385), wk =   0.0054620
        k(  141) = (   0.0384615   0.1153846  -0.5000000), wk =   0.0027310
        k(  142) = (   0.0384615   0.1538462   0.1538462), wk =   0.0027310
        k(  143) = (   0.0384615   0.1538462   0.1923077), wk =   0.0054620
        k(  144) = (   0.0384615   0.1538462   0.2307692), wk =   0.0054620
        k(  145) = (   0.0384615   0.1538462   0.2692308), wk =   0.0054620
        k(  146) = (   0.0384615   0.1538462   0.3076923), wk =   0.0054620
        k(  147) = (   0.0384615   0.1538462   0.3461538), wk =   0.0054620
        k(  148) = (   0.0384615   0.1538462   0.3846154), wk =   0.0054620
        k(  149) = (   0.0384615   0.1538462   0.4230769), wk =   0.0054620
        k(  150) = (   0.0384615   0.1538462   0.4615385), wk =   0.0054620
        k(  151) = (   0.0384615   0.1538462  -0.5000000), wk =   0.0027310
        k(  152) = (   0.0384615   0.1923077   0.1923077), wk =   0.0027310
        k(  153) = (   0.0384615   0.1923077   0.2307692), wk =   0.0054620
        k(  154) = (   0.0384615   0.1923077   0.2692308), wk =   0.0054620
        k(  155) = (   0.0384615   0.1923077   0.3076923), wk =   0.0054620
        k(  156) = (   0.0384615   0.1923077   0.3461538), wk =   0.0054620
        k(  157) = (   0.0384615   0.1923077   0.3846154), wk =   0.0054620
        k(  158) = (   0.0384615   0.1923077   0.4230769), wk =   0.0054620
        k(  159) = (   0.0384615   0.1923077   0.4615385), wk =   0.0054620
        k(  160) = (   0.0384615   0.1923077  -0.5000000), wk =   0.0027310
        k(  161) = (   0.0384615   0.2307692   0.2307692), wk =   0.0027310
        k(  162) = (   0.0384615   0.2307692   0.2692308), wk =   0.0054620
        k(  163) = (   0.0384615   0.2307692   0.3076923), wk =   0.0054620
        k(  164) = (   0.0384615   0.2307692   0.3461538), wk =   0.0054620
        k(  165) = (   0.0384615   0.2307692   0.3846154), wk =   0.0054620
        k(  166) = (   0.0384615   0.2307692   0.4230769), wk =   0.0054620
        k(  167) = (   0.0384615   0.2307692   0.4615385), wk =   0.0054620
        k(  168) = (   0.0384615   0.2307692  -0.5000000), wk =   0.0027310
        k(  169) = (   0.0384615   0.2692308   0.2692308), wk =   0.0027310
        k(  170) = (   0.0384615   0.2692308   0.3076923), wk =   0.0054620
        k(  171) = (   0.0384615   0.2692308   0.3461538), wk =   0.0054620
        k(  172) = (   0.0384615   0.2692308   0.3846154), wk =   0.0054620
        k(  173) = (   0.0384615   0.2692308   0.4230769), wk =   0.0054620
        k(  174) = (   0.0384615   0.2692308   0.4615385), wk =   0.0054620
        k(  175) = (   0.0384615   0.2692308  -0.5000000), wk =   0.0027310
        k(  176) = (   0.0384615   0.3076923   0.3076923), wk =   0.0027310
        k(  177) = (   0.0384615   0.3076923   0.3461538), wk =   0.0054620
        k(  178) = (   0.0384615   0.3076923   0.3846154), wk =   0.0054620
        k(  179) = (   0.0384615   0.3076923   0.4230769), wk =   0.0054620
        k(  180) = (   0.0384615   0.3076923   0.4615385), wk =   0.0054620
        k(  181) = (   0.0384615   0.3076923  -0.5000000), wk =   0.0027310
        k(  182) = (   0.0384615   0.3461538   0.3461538), wk =   0.0027310
        k(  183) = (   0.0384615   0.3461538   0.3846154), wk =   0.0054620
        k(  184) = (   0.0384615   0.3461538   0.4230769), wk =   0.0054620
        k(  185) = (   0.0384615   0.3461538   0.4615385), wk =   0.0054620
        k(  186) = (   0.0384615   0.3461538  -0.5000000), wk =   0.0027310
        k(  187) = (   0.0384615   0.3846154   0.3846154), wk =   0.0027310
        k(  188) = (   0.0384615   0.3846154   0.4230769), wk =   0.0054620
        k(  189) = (   0.0384615   0.3846154   0.4615385), wk =   0.0054620
        k(  190) = (   0.0384615   0.3846154  -0.5000000), wk =   0.0027310
        k(  191) = (   0.0384615   0.4230769   0.4230769), wk =   0.0027310
        k(  192) = (   0.0384615   0.4230769   0.4615385), wk =   0.0054620
        k(  193) = (   0.0384615   0.4230769  -0.5000000), wk =   0.0027310
        k(  194) = (   0.0384615   0.4615385   0.4615385), wk =   0.0027310
        k(  195) = (   0.0384615   0.4615385  -0.5000000), wk =   0.0027310
        k(  196) = (   0.0384615  -0.5000000  -0.5000000), wk =   0.0006827
        k(  197) = (   0.0769231   0.0769231   0.0769231), wk =   0.0009103
        k(  198) = (   0.0769231   0.0769231   0.1153846), wk =   0.0027310
        k(  199) = (   0.0769231   0.0769231   0.1538462), wk =   0.0027310
        k(  200) = (   0.0769231   0.0769231   0.1923077), wk =   0.0027310
        k(  201) = (   0.0769231   0.0769231   0.2307692), wk =   0.0027310
        k(  202) = (   0.0769231   0.0769231   0.2692308), wk =   0.0027310
        k(  203) = (   0.0769231   0.0769231   0.3076923), wk =   0.0027310
        k(  204) = (   0.0769231   0.0769231   0.3461538), wk =   0.0027310
        k(  205) = (   0.0769231   0.0769231   0.3846154), wk =   0.0027310
        k(  206) = (   0.0769231   0.0769231   0.4230769), wk =   0.0027310
        k(  207) = (   0.0769231   0.0769231   0.4615385), wk =   0.0027310
        k(  208) = (   0.0769231   0.0769231  -0.5000000), wk =   0.0013655
        k(  209) = (   0.0769231   0.1153846   0.1153846), wk =   0.0027310
        k(  210) = (   0.0769231   0.1153846   0.1538462), wk =   0.0054620
        k(  211) = (   0.0769231   0.1153846   0.1923077), wk =   0.0054620
        k(  212) = (   0.0769231   0.1153846   0.2307692), wk =   0.0054620
        k(  213) = (   0.0769231   0.1153846   0.2692308), wk =   0.0054620
        k(  214) = (   0.0769231   0.1153846   0.3076923), wk =   0.0054620
        k(  215) = (   0.0769231   0.1153846   0.3461538), wk =   0.0054620
        k(  216) = (   0.0769231   0.1153846   0.3846154), wk =   0.0054620
        k(  217) = (   0.0769231   0.1153846   0.4230769), wk =   0.0054620
        k(  218) = (   0.0769231   0.1153846   0.4615385), wk =   0.0054620
        k(  219) = (   0.0769231   0.1153846  -0.5000000), wk =   0.0027310
        k(  220) = (   0.0769231   0.1538462   0.1538462), wk =   0.0027310
        k(  221) = (   0.0769231   0.1538462   0.1923077), wk =   0.0054620
        k(  222) = (   0.0769231   0.1538462   0.2307692), wk =   0.0054620
        k(  223) = (   0.0769231   0.1538462   0.2692308), wk =   0.0054620
        k(  224) = (   0.0769231   0.1538462   0.3076923), wk =   0.0054620
        k(  225) = (   0.0769231   0.1538462   0.3461538), wk =   0.0054620
        k(  226) = (   0.0769231   0.1538462   0.3846154), wk =   0.0054620
        k(  227) = (   0.0769231   0.1538462   0.4230769), wk =   0.0054620
        k(  228) = (   0.0769231   0.1538462   0.4615385), wk =   0.0054620
        k(  229) = (   0.0769231   0.1538462  -0.5000000), wk =   0.0027310
        k(  230) = (   0.0769231   0.1923077   0.1923077), wk =   0.0027310
        k(  231) = (   0.0769231   0.1923077   0.2307692), wk =   0.0054620
        k(  232) = (   0.0769231   0.1923077   0.2692308), wk =   0.0054620
        k(  233) = (   0.0769231   0.1923077   0.3076923), wk =   0.0054620
        k(  234) = (   0.0769231   0.1923077   0.3461538), wk =   0.0054620
        k(  235) = (   0.0769231   0.1923077   0.3846154), wk =   0.0054620
        k(  236) = (   0.0769231   0.1923077   0.4230769), wk =   0.0054620
        k(  237) = (   0.0769231   0.1923077   0.4615385), wk =   0.0054620
        k(  238) = (   0.0769231   0.1923077  -0.5000000), wk =   0.0027310
        k(  239) = (   0.0769231   0.2307692   0.2307692), wk =   0.0027310
        k(  240) = (   0.0769231   0.2307692   0.2692308), wk =   0.0054620
        k(  241) = (   0.0769231   0.2307692   0.3076923), wk =   0.0054620
        k(  242) = (   0.0769231   0.2307692   0.3461538), wk =   0.0054620
        k(  243) = (   0.0769231   0.2307692   0.3846154), wk =   0.0054620
        k(  244) = (   0.0769231   0.2307692   0.4230769), wk =   0.0054620
        k(  245) = (   0.0769231   0.2307692   0.4615385), wk =   0.0054620
        k(  246) = (   0.0769231   0.2307692  -0.5000000), wk =   0.0027310
        k(  247) = (   0.0769231   0.2692308   0.2692308), wk =   0.0027310
        k(  248) = (   0.0769231   0.2692308   0.3076923), wk =   0.0054620
        k(  249) = (   0.0769231   0.2692308   0.3461538), wk =   0.0054620
        k(  250) = (   0.0769231   0.2692308   0.3846154), wk =   0.0054620
        k(  251) = (   0.0769231   0.2692308   0.4230769), wk =   0.0054620
        k(  252) = (   0.0769231   0.2692308   0.4615385), wk =   0.0054620
        k(  253) = (   0.0769231   0.2692308  -0.5000000), wk =   0.0027310
        k(  254) = (   0.0769231   0.3076923   0.3076923), wk =   0.0027310
        k(  255) = (   0.0769231   0.3076923   0.3461538), wk =   0.0054620
        k(  256) = (   0.0769231   0.3076923   0.3846154), wk =   0.0054620
        k(  257) = (   0.0769231   0.3076923   0.4230769), wk =   0.0054620
        k(  258) = (   0.0769231   0.3076923   0.4615385), wk =   0.0054620
        k(  259) = (   0.0769231   0.3076923  -0.5000000), wk =   0.0027310
        k(  260) = (   0.0769231   0.3461538   0.3461538), wk =   0.0027310
        k(  261) = (   0.0769231   0.3461538   0.3846154), wk =   0.0054620
        k(  262) = (   0.0769231   0.3461538   0.4230769), wk =   0.0054620
        k(  263) = (   0.0769231   0.3461538   0.4615385), wk =   0.0054620
        k(  264) = (   0.0769231   0.3461538  -0.5000000), wk =   0.0027310
        k(  265) = (   0.0769231   0.3846154   0.3846154), wk =   0.0027310
        k(  266) = (   0.0769231   0.3846154   0.4230769), wk =   0.0054620
        k(  267) = (   0.0769231   0.3846154   0.4615385), wk =   0.0054620
        k(  268) = (   0.0769231   0.3846154  -0.5000000), wk =   0.0027310
        k(  269) = (   0.0769231   0.4230769   0.4230769), wk =   0.0027310
        k(  270) = (   0.0769231   0.4230769   0.4615385), wk =   0.0054620
        k(  271) = (   0.0769231   0.4230769  -0.5000000), wk =   0.0027310
        k(  272) = (   0.0769231   0.4615385   0.4615385), wk =   0.0027310
        k(  273) = (   0.0769231   0.4615385  -0.5000000), wk =   0.0027310
        k(  274) = (   0.0769231  -0.5000000  -0.5000000), wk =   0.0006827
        k(  275) = (   0.1153846   0.1153846   0.1153846), wk =   0.0009103
        k(  276) = (   0.1153846   0.1153846   0.1538462), wk =   0.0027310
        k(  277) = (   0.1153846   0.1153846   0.1923077), wk =   0.0027310
        k(  278) = (   0.1153846   0.1153846   0.2307692), wk =   0.0027310
        k(  279) = (   0.1153846   0.1153846   0.2692308), wk =   0.0027310
        k(  280) = (   0.1153846   0.1153846   0.3076923), wk =   0.0027310
        k(  281) = (   0.1153846   0.1153846   0.3461538), wk =   0.0027310
        k(  282) = (   0.1153846   0.1153846   0.3846154), wk =   0.0027310
        k(  283) = (   0.1153846   0.1153846   0.4230769), wk =   0.0027310
        k(  284) = (   0.1153846   0.1153846   0.4615385), wk =   0.0027310
        k(  285) = (   0.1153846   0.1153846  -0.5000000), wk =   0.0013655
        k(  286) = (   0.1153846   0.1538462   0.1538462), wk =   0.0027310
        k(  287) = (   0.1153846   0.1538462   0.1923077), wk =   0.0054620
        k(  288) = (   0.1153846   0.1538462   0.2307692), wk =   0.0054620
        k(  289) = (   0.1153846   0.1538462   0.2692308), wk =   0.0054620
        k(  290) = (   0.1153846   0.1538462   0.3076923), wk =   0.0054620
        k(  291) = (   0.1153846   0.1538462   0.3461538), wk =   0.0054620
        k(  292) = (   0.1153846   0.1538462   0.3846154), wk =   0.0054620
        k(  293) = (   0.1153846   0.1538462   0.4230769), wk =   0.0054620
        k(  294) = (   0.1153846   0.1538462   0.4615385), wk =   0.0054620
        k(  295) = (   0.1153846   0.1538462  -0.5000000), wk =   0.0027310
        k(  296) = (   0.1153846   0.1923077   0.1923077), wk =   0.0027310
        k(  297) = (   0.1153846   0.1923077   0.2307692), wk =   0.0054620
        k(  298) = (   0.1153846   0.1923077   0.2692308), wk =   0.0054620
        k(  299) = (   0.1153846   0.1923077   0.3076923), wk =   0.0054620
        k(  300) = (   0.1153846   0.1923077   0.3461538), wk =   0.0054620
        k(  301) = (   0.1153846   0.1923077   0.3846154), wk =   0.0054620
        k(  302) = (   0.1153846   0.1923077   0.4230769), wk =   0.0054620
        k(  303) = (   0.1153846   0.1923077   0.4615385), wk =   0.0054620
        k(  304) = (   0.1153846   0.1923077  -0.5000000), wk =   0.0027310
        k(  305) = (   0.1153846   0.2307692   0.2307692), wk =   0.0027310
        k(  306) = (   0.1153846   0.2307692   0.2692308), wk =   0.0054620
        k(  307) = (   0.1153846   0.2307692   0.3076923), wk =   0.0054620
        k(  308) = (   0.1153846   0.2307692   0.3461538), wk =   0.0054620
        k(  309) = (   0.1153846   0.2307692   0.3846154), wk =   0.0054620
        k(  310) = (   0.1153846   0.2307692   0.4230769), wk =   0.0054620
        k(  311) = (   0.1153846   0.2307692   0.4615385), wk =   0.0054620
        k(  312) = (   0.1153846   0.2307692  -0.5000000), wk =   0.0027310
        k(  313) = (   0.1153846   0.2692308   0.2692308), wk =   0.0027310
        k(  314) = (   0.1153846   0.2692308   0.3076923), wk =   0.0054620
        k(  315) = (   0.1153846   0.2692308   0.3461538), wk =   0.0054620
        k(  316) = (   0.1153846   0.2692308   0.3846154), wk =   0.0054620
        k(  317) = (   0.1153846   0.2692308   0.4230769), wk =   0.0054620
        k(  318) = (   0.1153846   0.2692308   0.4615385), wk =   0.0054620
        k(  319) = (   0.1153846   0.2692308  -0.5000000), wk =   0.0027310
        k(  320) = (   0.1153846   0.3076923   0.3076923), wk =   0.0027310
        k(  321) = (   0.1153846   0.3076923   0.3461538), wk =   0.0054620
        k(  322) = (   0.1153846   0.3076923   0.3846154), wk =   0.0054620
        k(  323) = (   0.1153846   0.3076923   0.4230769), wk =   0.0054620
        k(  324) = (   0.1153846   0.3076923   0.4615385), wk =   0.0054620
        k(  325) = (   0.1153846   0.3076923  -0.5000000), wk =   0.0027310
        k(  326) = (   0.1153846   0.3461538   0.3461538), wk =   0.0027310
        k(  327) = (   0.1153846   0.3461538   0.3846154), wk =   0.0054620
        k(  328) = (   0.1153846   0.3461538   0.4230769), wk =   0.0054620
        k(  329) = (   0.1153846   0.3461538   0.4615385), wk =   0.0054620
        k(  330) = (   0.1153846   0.3461538  -0.5000000), wk =   0.0027310
        k(  331) = (   0.1153846   0.3846154   0.3846154), wk =   0.0027310
        k(  332) = (   0.1153846   0.3846154   0.4230769), wk =   0.0054620
        k(  333) = (   0.1153846   0.3846154   0.4615385), wk =   0.0054620
        k(  334) = (   0.1153846   0.3846154  -0.5000000), wk =   0.0027310
        k(  335) = (   0.1153846   0.4230769   0.4230769), wk =   0.0027310
        k(  336) = (   0.1153846   0.4230769   0.4615385), wk =   0.0054620
        k(  337) = (   0.1153846   0.4230769  -0.5000000), wk =   0.0027310
        k(  338) = (   0.1153846   0.4615385   0.4615385), wk =   0.0027310
        k(  339) = (   0.1153846   0.4615385  -0.5000000), wk =   0.0027310
        k(  340) = (   0.1153846  -0.5000000  -0.5000000), wk =   0.0006827
        k(  341) = (   0.1538462   0.1538462   0.1538462), wk =   0.0009103
        k(  342) = (   0.1538462   0.1538462   0.1923077), wk =   0.0027310
        k(  343) = (   0.1538462   0.1538462   0.2307692), wk =   0.0027310
        k(  344) = (   0.1538462   0.1538462   0.2692308), wk =   0.0027310
        k(  345) = (   0.1538462   0.1538462   0.3076923), wk =   0.0027310
        k(  346) = (   0.1538462   0.1538462   0.3461538), wk =   0.0027310
        k(  347) = (   0.1538462   0.1538462   0.3846154), wk =   0.0027310
        k(  348) = (   0.1538462   0.1538462   0.4230769), wk =   0.0027310
        k(  349) = (   0.1538462   0.1538462   0.4615385), wk =   0.0027310
        k(  350) = (   0.1538462   0.1538462  -0.5000000), wk =   0.0013655
        k(  351) = (   0.1538462   0.1923077   0.1923077), wk =   0.0027310
        k(  352) = (   0.1538462   0.1923077   0.2307692), wk =   0.0054620
        k(  353) = (   0.1538462   0.1923077   0.2692308), wk =   0.0054620
        k(  354) = (   0.1538462   0.1923077   0.3076923), wk =   0.0054620
        k(  355) = (   0.1538462   0.1923077   0.3461538), wk =   0.0054620
        k(  356) = (   0.1538462   0.1923077   0.3846154), wk =   0.0054620
        k(  357) = (   0.1538462   0.1923077   0.4230769), wk =   0.0054620
        k(  358) = (   0.1538462   0.1923077   0.4615385), wk =   0.0054620
        k(  359) = (   0.1538462   0.1923077  -0.5000000), wk =   0.0027310
        k(  360) = (   0.1538462   0.2307692   0.2307692), wk =   0.0027310
        k(  361) = (   0.1538462   0.2307692   0.2692308), wk =   0.0054620
        k(  362) = (   0.1538462   0.2307692   0.3076923), wk =   0.0054620
        k(  363) = (   0.1538462   0.2307692   0.3461538), wk =   0.0054620
        k(  364) = (   0.1538462   0.2307692   0.3846154), wk =   0.0054620
        k(  365) = (   0.1538462   0.2307692   0.4230769), wk =   0.0054620
        k(  366) = (   0.1538462   0.2307692   0.4615385), wk =   0.0054620
        k(  367) = (   0.1538462   0.2307692  -0.5000000), wk =   0.0027310
        k(  368) = (   0.1538462   0.2692308   0.2692308), wk =   0.0027310
        k(  369) = (   0.1538462   0.2692308   0.3076923), wk =   0.0054620
        k(  370) = (   0.1538462   0.2692308   0.3461538), wk =   0.0054620
        k(  371) = (   0.1538462   0.2692308   0.3846154), wk =   0.0054620
        k(  372) = (   0.1538462   0.2692308   0.4230769), wk =   0.0054620
        k(  373) = (   0.1538462   0.2692308   0.4615385), wk =   0.0054620
        k(  374) = (   0.1538462   0.2692308  -0.5000000), wk =   0.0027310
        k(  375) = (   0.1538462   0.3076923   0.3076923), wk =   0.0027310
        k(  376) = (   0.1538462   0.3076923   0.3461538), wk =   0.0054620
        k(  377) = (   0.1538462   0.3076923   0.3846154), wk =   0.0054620
        k(  378) = (   0.1538462   0.3076923   0.4230769), wk =   0.0054620
        k(  379) = (   0.1538462   0.3076923   0.4615385), wk =   0.0054620
        k(  380) = (   0.1538462   0.3076923  -0.5000000), wk =   0.0027310
        k(  381) = (   0.1538462   0.3461538   0.3461538), wk =   0.0027310
        k(  382) = (   0.1538462   0.3461538   0.3846154), wk =   0.0054620
        k(  383) = (   0.1538462   0.3461538   0.4230769), wk =   0.0054620
        k(  384) = (   0.1538462   0.3461538   0.4615385), wk =   0.0054620
        k(  385) = (   0.1538462   0.3461538  -0.5000000), wk =   0.0027310
        k(  386) = (   0.1538462   0.3846154   0.3846154), wk =   0.0027310
        k(  387) = (   0.1538462   0.3846154   0.4230769), wk =   0.0054620
        k(  388) = (   0.1538462   0.3846154   0.4615385), wk =   0.0054620
        k(  389) = (   0.1538462   0.3846154  -0.5000000), wk =   0.0027310
        k(  390) = (   0.1538462   0.4230769   0.4230769), wk =   0.0027310
        k(  391) = (   0.1538462   0.4230769   0.4615385), wk =   0.0054620
        k(  392) = (   0.1538462   0.4230769  -0.5000000), wk =   0.0027310
        k(  393) = (   0.1538462   0.4615385   0.4615385), wk =   0.0027310
        k(  394) = (   0.1538462   0.4615385  -0.5000000), wk =   0.0027310
        k(  395) = (   0.1538462  -0.5000000  -0.5000000), wk =   0.0006827
        k(  396) = (   0.1923077   0.1923077   0.1923077), wk =   0.0009103
        k(  397) = (   0.1923077   0.1923077   0.2307692), wk =   0.0027310
        k(  398) = (   0.1923077   0.1923077   0.2692308), wk =   0.0027310
        k(  399) = (   0.1923077   0.1923077   0.3076923), wk =   0.0027310
        k(  400) = (   0.1923077   0.1923077   0.3461538), wk =   0.0027310
        k(  401) = (   0.1923077   0.1923077   0.3846154), wk =   0.0027310
        k(  402) = (   0.1923077   0.1923077   0.4230769), wk =   0.0027310
        k(  403) = (   0.1923077   0.1923077   0.4615385), wk =   0.0027310
        k(  404) = (   0.1923077   0.1923077  -0.5000000), wk =   0.0013655
        k(  405) = (   0.1923077   0.2307692   0.2307692), wk =   0.0027310
        k(  406) = (   0.1923077   0.2307692   0.2692308), wk =   0.0054620
        k(  407) = (   0.1923077   0.2307692   0.3076923), wk =   0.0054620
        k(  408) = (   0.1923077   0.2307692   0.3461538), wk =   0.0054620
        k(  409) = (   0.1923077   0.2307692   0.3846154), wk =   0.0054620
        k(  410) = (   0.1923077   0.2307692   0.4230769), wk =   0.0054620
        k(  411) = (   0.1923077   0.2307692   0.4615385), wk =   0.0054620
        k(  412) = (   0.1923077   0.2307692  -0.5000000), wk =   0.0027310
        k(  413) = (   0.1923077   0.2692308   0.2692308), wk =   0.0027310
        k(  414) = (   0.1923077   0.2692308   0.3076923), wk =   0.0054620
        k(  415) = (   0.1923077   0.2692308   0.3461538), wk =   0.0054620
        k(  416) = (   0.1923077   0.2692308   0.3846154), wk =   0.0054620
        k(  417) = (   0.1923077   0.2692308   0.4230769), wk =   0.0054620
        k(  418) = (   0.1923077   0.2692308   0.4615385), wk =   0.0054620
        k(  419) = (   0.1923077   0.2692308  -0.5000000), wk =   0.0027310
        k(  420) = (   0.1923077   0.3076923   0.3076923), wk =   0.0027310
        k(  421) = (   0.1923077   0.3076923   0.3461538), wk =   0.0054620
        k(  422) = (   0.1923077   0.3076923   0.3846154), wk =   0.0054620
        k(  423) = (   0.1923077   0.3076923   0.4230769), wk =   0.0054620
        k(  424) = (   0.1923077   0.3076923   0.4615385), wk =   0.0054620
        k(  425) = (   0.1923077   0.3076923  -0.5000000), wk =   0.0027310
        k(  426) = (   0.1923077   0.3461538   0.3461538), wk =   0.0027310
        k(  427) = (   0.1923077   0.3461538   0.3846154), wk =   0.0054620
        k(  428) = (   0.1923077   0.3461538   0.4230769), wk =   0.0054620
        k(  429) = (   0.1923077   0.3461538   0.4615385), wk =   0.0054620
        k(  430) = (   0.1923077   0.3461538  -0.5000000), wk =   0.0027310
        k(  431) = (   0.1923077   0.3846154   0.3846154), wk =   0.0027310
        k(  432) = (   0.1923077   0.3846154   0.4230769), wk =   0.0054620
        k(  433) = (   0.1923077   0.3846154   0.4615385), wk =   0.0054620
        k(  434) = (   0.1923077   0.3846154  -0.5000000), wk =   0.0027310
        k(  435) = (   0.1923077   0.4230769   0.4230769), wk =   0.0027310
        k(  436) = (   0.1923077   0.4230769   0.4615385), wk =   0.0054620
        k(  437) = (   0.1923077   0.4230769  -0.5000000), wk =   0.0027310
        k(  438) = (   0.1923077   0.4615385   0.4615385), wk =   0.0027310
        k(  439) = (   0.1923077   0.4615385  -0.5000000), wk =   0.0027310
        k(  440) = (   0.1923077  -0.5000000  -0.5000000), wk =   0.0006827
        k(  441) = (   0.2307692   0.2307692   0.2307692), wk =   0.0009103
        k(  442) = (   0.2307692   0.2307692   0.2692308), wk =   0.0027310
        k(  443) = (   0.2307692   0.2307692   0.3076923), wk =   0.0027310
        k(  444) = (   0.2307692   0.2307692   0.3461538), wk =   0.0027310
        k(  445) = (   0.2307692   0.2307692   0.3846154), wk =   0.0027310
        k(  446) = (   0.2307692   0.2307692   0.4230769), wk =   0.0027310
        k(  447) = (   0.2307692   0.2307692   0.4615385), wk =   0.0027310
        k(  448) = (   0.2307692   0.2307692  -0.5000000), wk =   0.0013655
        k(  449) = (   0.2307692   0.2692308   0.2692308), wk =   0.0027310
        k(  450) = (   0.2307692   0.2692308   0.3076923), wk =   0.0054620
        k(  451) = (   0.2307692   0.2692308   0.3461538), wk =   0.0054620
        k(  452) = (   0.2307692   0.2692308   0.3846154), wk =   0.0054620
        k(  453) = (   0.2307692   0.2692308   0.4230769), wk =   0.0054620
        k(  454) = (   0.2307692   0.2692308   0.4615385), wk =   0.0054620
        k(  455) = (   0.2307692   0.2692308  -0.5000000), wk =   0.0027310
        k(  456) = (   0.2307692   0.3076923   0.3076923), wk =   0.0027310
        k(  457) = (   0.2307692   0.3076923   0.3461538), wk =   0.0054620
        k(  458) = (   0.2307692   0.3076923   0.3846154), wk =   0.0054620
        k(  459) = (   0.2307692   0.3076923   0.4230769), wk =   0.0054620
        k(  460) = (   0.2307692   0.3076923   0.4615385), wk =   0.0054620
        k(  461) = (   0.2307692   0.3076923  -0.5000000), wk =   0.0027310
        k(  462) = (   0.2307692   0.3461538   0.3461538), wk =   0.0027310
        k(  463) = (   0.2307692   0.3461538   0.3846154), wk =   0.0054620
        k(  464) = (   0.2307692   0.3461538   0.4230769), wk =   0.0054620
        k(  465) = (   0.2307692   0.3461538   0.4615385), wk =   0.0054620
        k(  466) = (   0.2307692   0.3461538  -0.5000000), wk =   0.0027310
        k(  467) = (   0.2307692   0.3846154   0.3846154), wk =   0.0027310
        k(  468) = (   0.2307692   0.3846154   0.4230769), wk =   0.0054620
        k(  469) = (   0.2307692   0.3846154   0.4615385), wk =   0.0054620
        k(  470) = (   0.2307692   0.3846154  -0.5000000), wk =   0.0027310
        k(  471) = (   0.2307692   0.4230769   0.4230769), wk =   0.0027310
        k(  472) = (   0.2307692   0.4230769   0.4615385), wk =   0.0054620
        k(  473) = (   0.2307692   0.4230769  -0.5000000), wk =   0.0027310
        k(  474) = (   0.2307692   0.4615385   0.4615385), wk =   0.0027310
        k(  475) = (   0.2307692   0.4615385  -0.5000000), wk =   0.0027310
        k(  476) = (   0.2307692  -0.5000000  -0.5000000), wk =   0.0006827
        k(  477) = (   0.2692308   0.2692308   0.2692308), wk =   0.0009103
        k(  478) = (   0.2692308   0.2692308   0.3076923), wk =   0.0027310
        k(  479) = (   0.2692308   0.2692308   0.3461538), wk =   0.0027310
        k(  480) = (   0.2692308   0.2692308   0.3846154), wk =   0.0027310
        k(  481) = (   0.2692308   0.2692308   0.4230769), wk =   0.0027310
        k(  482) = (   0.2692308   0.2692308   0.4615385), wk =   0.0027310
        k(  483) = (   0.2692308   0.2692308  -0.5000000), wk =   0.0013655
        k(  484) = (   0.2692308   0.3076923   0.3076923), wk =   0.0027310
        k(  485) = (   0.2692308   0.3076923   0.3461538), wk =   0.0054620
        k(  486) = (   0.2692308   0.3076923   0.3846154), wk =   0.0054620
        k(  487) = (   0.2692308   0.3076923   0.4230769), wk =   0.0054620
        k(  488) = (   0.2692308   0.3076923   0.4615385), wk =   0.0054620
        k(  489) = (   0.2692308   0.3076923  -0.5000000), wk =   0.0027310
        k(  490) = (   0.2692308   0.3461538   0.3461538), wk =   0.0027310
        k(  491) = (   0.2692308   0.3461538   0.3846154), wk =   0.0054620
        k(  492) = (   0.2692308   0.3461538   0.4230769), wk =   0.0054620
        k(  493) = (   0.2692308   0.3461538   0.4615385), wk =   0.0054620
        k(  494) = (   0.2692308   0.3461538  -0.5000000), wk =   0.0027310
        k(  495) = (   0.2692308   0.3846154   0.3846154), wk =   0.0027310
        k(  496) = (   0.2692308   0.3846154   0.4230769), wk =   0.0054620
        k(  497) = (   0.2692308   0.3846154   0.4615385), wk =   0.0054620
        k(  498) = (   0.2692308   0.3846154  -0.5000000), wk =   0.0027310
        k(  499) = (   0.2692308   0.4230769   0.4230769), wk =   0.0027310
        k(  500) = (   0.2692308   0.4230769   0.4615385), wk =   0.0054620
        k(  501) = (   0.2692308   0.4230769  -0.5000000), wk =   0.0027310
        k(  502) = (   0.2692308   0.4615385   0.4615385), wk =   0.0027310
        k(  503) = (   0.2692308   0.4615385  -0.5000000), wk =   0.0027310
        k(  504) = (   0.2692308  -0.5000000  -0.5000000), wk =   0.0006827
        k(  505) = (   0.3076923   0.3076923   0.3076923), wk =   0.0009103
        k(  506) = (   0.3076923   0.3076923   0.3461538), wk =   0.0027310
        k(  507) = (   0.3076923   0.3076923   0.3846154), wk =   0.0027310
        k(  508) = (   0.3076923   0.3076923   0.4230769), wk =   0.0027310
        k(  509) = (   0.3076923   0.3076923   0.4615385), wk =   0.0027310
        k(  510) = (   0.3076923   0.3076923  -0.5000000), wk =   0.0013655
        k(  511) = (   0.3076923   0.3461538   0.3461538), wk =   0.0027310
        k(  512) = (   0.3076923   0.3461538   0.3846154), wk =   0.0054620
        k(  513) = (   0.3076923   0.3461538   0.4230769), wk =   0.0054620
        k(  514) = (   0.3076923   0.3461538   0.4615385), wk =   0.0054620
        k(  515) = (   0.3076923   0.3461538  -0.5000000), wk =   0.0027310
        k(  516) = (   0.3076923   0.3846154   0.3846154), wk =   0.0027310
        k(  517) = (   0.3076923   0.3846154   0.4230769), wk =   0.0054620
        k(  518) = (   0.3076923   0.3846154   0.4615385), wk =   0.0054620
        k(  519) = (   0.3076923   0.3846154  -0.5000000), wk =   0.0027310
        k(  520) = (   0.3076923   0.4230769   0.4230769), wk =   0.0027310
        k(  521) = (   0.3076923   0.4230769   0.4615385), wk =   0.0054620
        k(  522) = (   0.3076923   0.4230769  -0.5000000), wk =   0.0027310
        k(  523) = (   0.3076923   0.4615385   0.4615385), wk =   0.0027310
        k(  524) = (   0.3076923   0.4615385  -0.5000000), wk =   0.0027310
        k(  525) = (   0.3076923  -0.5000000  -0.5000000), wk =   0.0006827
        k(  526) = (   0.3461538   0.3461538   0.3461538), wk =   0.0009103
        k(  527) = (   0.3461538   0.3461538   0.3846154), wk =   0.0027310
        k(  528) = (   0.3461538   0.3461538   0.4230769), wk =   0.0027310
        k(  529) = (   0.3461538   0.3461538   0.4615385), wk =   0.0027310
        k(  530) = (   0.3461538   0.3461538  -0.5000000), wk =   0.0013655
        k(  531) = (   0.3461538   0.3846154   0.3846154), wk =   0.0027310
        k(  532) = (   0.3461538   0.3846154   0.4230769), wk =   0.0054620
        k(  533) = (   0.3461538   0.3846154   0.4615385), wk =   0.0054620
        k(  534) = (   0.3461538   0.3846154  -0.5000000), wk =   0.0027310
        k(  535) = (   0.3461538   0.4230769   0.4230769), wk =   0.0027310
        k(  536) = (   0.3461538   0.4230769   0.4615385), wk =   0.0054620
        k(  537) = (   0.3461538   0.4230769  -0.5000000), wk =   0.0027310
        k(  538) = (   0.3461538   0.4615385   0.4615385), wk =   0.0027310
        k(  539) = (   0.3461538   0.4615385  -0.5000000), wk =   0.0027310
        k(  540) = (   0.3461538  -0.5000000  -0.5000000), wk =   0.0006827
        k(  541) = (   0.3846154   0.3846154   0.3846154), wk =   0.0009103
        k(  542) = (   0.3846154   0.3846154   0.4230769), wk =   0.0027310
        k(  543) = (   0.3846154   0.3846154   0.4615385), wk =   0.0027310
        k(  544) = (   0.3846154   0.3846154  -0.5000000), wk =   0.0013655
        k(  545) = (   0.3846154   0.4230769   0.4230769), wk =   0.0027310
        k(  546) = (   0.3846154   0.4230769   0.4615385), wk =   0.0054620
        k(  547) = (   0.3846154   0.4230769  -0.5000000), wk =   0.0027310
        k(  548) = (   0.3846154   0.4615385   0.4615385), wk =   0.0027310
        k(  549) = (   0.3846154   0.4615385  -0.5000000), wk =   0.0027310
        k(  550) = (   0.3846154  -0.5000000  -0.5000000), wk =   0.0006827
        k(  551) = (   0.4230769   0.4230769   0.4230769), wk =   0.0009103
        k(  552) = (   0.4230769   0.4230769   0.4615385), wk =   0.0027310
        k(  553) = (   0.4230769   0.4230769  -0.5000000), wk =   0.0013655
        k(  554) = (   0.4230769   0.4615385   0.4615385), wk =   0.0027310
        k(  555) = (   0.4230769   0.4615385  -0.5000000), wk =   0.0027310
        k(  556) = (   0.4230769  -0.5000000  -0.5000000), wk =   0.0006827
        k(  557) = (   0.4615385   0.4615385   0.4615385), wk =   0.0009103
        k(  558) = (   0.4615385   0.4615385  -0.5000000), wk =   0.0013655
        k(  559) = (   0.4615385  -0.5000000  -0.5000000), wk =   0.0006827
        k(  560) = (  -0.5000000  -0.5000000  -0.5000000), wk =   0.0001138

                       cryst. coord.
        k(    1) = (   0.0000000   0.0000000   0.0000000), wk =   0.0001138
        k(    2) = (   0.0000000   0.0000000   0.0384615), wk =   0.0006827
        k(    3) = (   0.0000000   0.0000000   0.0769231), wk =   0.0006827
        k(    4) = (   0.0000000   0.0000000   0.1153846), wk =   0.0006827
        k(    5) = (   0.0000000   0.0000000   0.1538462), wk =   0.0006827
        k(    6) = (   0.0000000   0.0000000   0.1923077), wk =   0.0006827
        k(    7) = (   0.0000000   0.0000000   0.2307692), wk =   0.0006827
        k(    8) = (   0.0000000   0.0000000   0.2692308), wk =   0.0006827
        k(    9) = (   0.0000000   0.0000000   0.3076923), wk =   0.0006827
        k(   10) = (   0.0000000   0.0000000   0.3461538), wk =   0.0006827
        k(   11) = (   0.0000000   0.0000000   0.3846154), wk =   0.0006827
        k(   12) = (   0.0000000   0.0000000   0.4230769), wk =   0.0006827
        k(   13) = (   0.0000000   0.0000000   0.4615385), wk =   0.0006827
        k(   14) = (   0.0000000   0.0000000  -0.5000000), wk =   0.0003414
        k(   15) = (   0.0000000   0.0384615   0.0384615), wk =   0.0013655
        k(   16) = (   0.0000000   0.0384615   0.0769231), wk =   0.0027310
        k(   17) = (   0.0000000   0.0384615   0.1153846), wk =   0.0027310
        k(   18) = (   0.0000000   0.0384615   0.1538462), wk =   0.0027310
        k(   19) = (   0.0000000   0.0384615   0.1923077), wk =   0.0027310
        k(   20) = (   0.0000000   0.0384615   0.2307692), wk =   0.0027310
        k(   21) = (   0.0000000   0.0384615   0.2692308), wk =   0.0027310
        k(   22) = (   0.0000000   0.0384615   0.3076923), wk =   0.0027310
        k(   23) = (   0.0000000   0.0384615   0.3461538), wk =   0.0027310
        k(   24) = (   0.0000000   0.0384615   0.3846154), wk =   0.0027310
        k(   25) = (   0.0000000   0.0384615   0.4230769), wk =   0.0027310
        k(   26) = (   0.0000000   0.0384615   0.4615385), wk =   0.0027310
        k(   27) = (   0.0000000   0.0384615  -0.5000000), wk =   0.0013655
        k(   28) = (   0.0000000   0.0769231   0.0769231), wk =   0.0013655
        k(   29) = (   0.0000000   0.0769231   0.1153846), wk =   0.0027310
        k(   30) = (   0.0000000   0.0769231   0.1538462), wk =   0.0027310
        k(   31) = (   0.0000000   0.0769231   0.1923077), wk =   0.0027310
        k(   32) = (   0.0000000   0.0769231   0.2307692), wk =   0.0027310
        k(   33) = (   0.0000000   0.0769231   0.2692308), wk =   0.0027310
        k(   34) = (   0.0000000   0.0769231   0.3076923), wk =   0.0027310
        k(   35) = (   0.0000000   0.0769231   0.3461538), wk =   0.0027310
        k(   36) = (   0.0000000   0.0769231   0.3846154), wk =   0.0027310
        k(   37) = (   0.0000000   0.0769231   0.4230769), wk =   0.0027310
        k(   38) = (   0.0000000   0.0769231   0.4615385), wk =   0.0027310
        k(   39) = (   0.0000000   0.0769231  -0.5000000), wk =   0.0013655
        k(   40) = (   0.0000000   0.1153846   0.1153846), wk =   0.0013655
        k(   41) = (   0.0000000   0.1153846   0.1538462), wk =   0.0027310
        k(   42) = (   0.0000000   0.1153846   0.1923077), wk =   0.0027310
        k(   43) = (   0.0000000   0.1153846   0.2307692), wk =   0.0027310
        k(   44) = (   0.0000000   0.1153846   0.2692308), wk =   0.0027310
        k(   45) = (   0.0000000   0.1153846   0.3076923), wk =   0.0027310
        k(   46) = (   0.0000000   0.1153846   0.3461538), wk =   0.0027310
        k(   47) = (   0.0000000   0.1153846   0.3846154), wk =   0.0027310
        k(   48) = (   0.0000000   0.1153846   0.4230769), wk =   0.0027310
        k(   49) = (   0.0000000   0.1153846   0.4615385), wk =   0.0027310
        k(   50) = (   0.0000000   0.1153846  -0.5000000), wk =   0.0013655
        k(   51) = (   0.0000000   0.1538462   0.1538462), wk =   0.0013655
        k(   52) = (   0.0000000   0.1538462   0.1923077), wk =   0.0027310
        k(   53) = (   0.0000000   0.1538462   0.2307692), wk =   0.0027310
        k(   54) = (   0.0000000   0.1538462   0.2692308), wk =   0.0027310
        k(   55) = (   0.0000000   0.1538462   0.3076923), wk =   0.0027310
        k(   56) = (   0.0000000   0.1538462   0.3461538), wk =   0.0027310
        k(   57) = (   0.0000000   0.1538462   0.3846154), wk =   0.0027310
        k(   58) = (   0.0000000   0.1538462   0.4230769), wk =   0.0027310
        k(   59) = (   0.0000000   0.1538462   0.4615385), wk =   0.0027310
        k(   60) = (   0.0000000   0.1538462  -0.5000000), wk =   0.0013655
        k(   61) = (   0.0000000   0.1923077   0.1923077), wk =   0.0013655
        k(   62) = (   0.0000000   0.1923077   0.2307692), wk =   0.0027310
        k(   63) = (   0.0000000   0.1923077   0.2692308), wk =   0.0027310
        k(   64) = (   0.0000000   0.1923077   0.3076923), wk =   0.0027310
        k(   65) = (   0.0000000   0.1923077   0.3461538), wk =   0.0027310
        k(   66) = (   0.0000000   0.1923077   0.3846154), wk =   0.0027310
        k(   67) = (   0.0000000   0.1923077   0.4230769), wk =   0.0027310
        k(   68) = (   0.0000000   0.1923077   0.4615385), wk =   0.0027310
        k(   69) = (   0.0000000   0.1923077  -0.5000000), wk =   0.0013655
        k(   70) = (   0.0000000   0.2307692   0.2307692), wk =   0.0013655
        k(   71) = (   0.0000000   0.2307692   0.2692308), wk =   0.0027310
        k(   72) = (   0.0000000   0.2307692   0.3076923), wk =   0.0027310
        k(   73) = (   0.0000000   0.2307692   0.3461538), wk =   0.0027310
        k(   74) = (   0.0000000   0.2307692   0.3846154), wk =   0.0027310
        k(   75) = (   0.0000000   0.2307692   0.4230769), wk =   0.0027310
        k(   76) = (   0.0000000   0.2307692   0.4615385), wk =   0.0027310
        k(   77) = (   0.0000000   0.2307692  -0.5000000), wk =   0.0013655
        k(   78) = (   0.0000000   0.2692308   0.2692308), wk =   0.0013655
        k(   79) = (   0.0000000   0.2692308   0.3076923), wk =   0.0027310
        k(   80) = (   0.0000000   0.2692308   0.3461538), wk =   0.0027310
        k(   81) = (   0.0000000   0.2692308   0.3846154), wk =   0.0027310
        k(   82) = (   0.0000000   0.2692308   0.4230769), wk =   0.0027310
        k(   83) = (   0.0000000   0.2692308   0.4615385), wk =   0.0027310
        k(   84) = (   0.0000000   0.2692308  -0.5000000), wk =   0.0013655
        k(   85) = (   0.0000000   0.3076923   0.3076923), wk =   0.0013655
        k(   86) = (   0.0000000   0.3076923   0.3461538), wk =   0.0027310
        k(   87) = (   0.0000000   0.3076923   0.3846154), wk =   0.0027310
        k(   88) = (   0.0000000   0.3076923   0.4230769), wk =   0.0027310
        k(   89) = (   0.0000000   0.3076923   0.4615385), wk =   0.0027310
        k(   90) = (   0.0000000   0.3076923  -0.5000000), wk =   0.0013655
        k(   91) = (   0.0000000   0.3461538   0.3461538), wk =   0.0013655
        k(   92) = (   0.0000000   0.3461538   0.3846154), wk =   0.0027310
        k(   93) = (   0.0000000   0.3461538   0.4230769), wk =   0.0027310
        k(   94) = (   0.0000000   0.3461538   0.4615385), wk =   0.0027310
        k(   95) = (   0.0000000   0.3461538  -0.5000000), wk =   0.0013655
        k(   96) = (   0.0000000   0.3846154   0.3846154), wk =   0.0013655
        k(   97) = (   0.0000000   0.3846154   0.4230769), wk =   0.0027310
        k(   98) = (   0.0000000   0.3846154   0.4615385), wk =   0.0027310
        k(   99) = (   0.0000000   0.3846154  -0.5000000), wk =   0.0013655
        k(  100) = (   0.0000000   0.4230769   0.4230769), wk =   0.0013655
        k(  101) = (   0.0000000   0.4230769   0.4615385), wk =   0.0027310
        k(  102) = (   0.0000000   0.4230769  -0.5000000), wk =   0.0013655
        k(  103) = (   0.0000000   0.4615385   0.4615385), wk =   0.0013655
        k(  104) = (   0.0000000   0.4615385  -0.5000000), wk =   0.0013655
        k(  105) = (   0.0000000  -0.5000000  -0.5000000), wk =   0.0003414
        k(  106) = (   0.0384615   0.0384615   0.0384615), wk =   0.0009103
        k(  107) = (   0.0384615   0.0384615   0.0769231), wk =   0.0027310
        k(  108) = (   0.0384615   0.0384615   0.1153846), wk =   0.0027310
        k(  109) = (   0.0384615   0.0384615   0.1538462), wk =   0.0027310
        k(  110) = (   0.0384615   0.0384615   0.1923077), wk =   0.0027310
        k(  111) = (   0.0384615   0.0384615   0.2307692), wk =   0.0027310
        k(  112) = (   0.0384615   0.0384615   0.2692308), wk =   0.0027310
        k(  113) = (   0.0384615   0.0384615   0.3076923), wk =   0.0027310
        k(  114) = (   0.0384615   0.0384615   0.3461538), wk =   0.0027310
        k(  115) = (   0.0384615   0.0384615   0.3846154), wk =   0.0027310
        k(  116) = (   0.0384615   0.0384615   0.4230769), wk =   0.0027310
        k(  117) = (   0.0384615   0.0384615   0.4615385), wk =   0.0027310
        k(  118) = (   0.0384615   0.0384615  -0.5000000), wk =   0.0013655
        k(  119) = (   0.0384615   0.0769231   0.0769231), wk =   0.0027310
        k(  120) = (   0.0384615   0.0769231   0.1153846), wk =   0.0054620
        k(  121) = (   0.0384615   0.0769231   0.1538462), wk =   0.0054620
        k(  122) = (   0.0384615   0.0769231   0.1923077), wk =   0.0054620
        k(  123) = (   0.0384615   0.0769231   0.2307692), wk =   0.0054620
        k(  124) = (   0.0384615   0.0769231   0.2692308), wk =   0.0054620
        k(  125) = (   0.0384615   0.0769231   0.3076923), wk =   0.0054620
        k(  126) = (   0.0384615   0.0769231   0.3461538), wk =   0.0054620
        k(  127) = (   0.0384615   0.0769231   0.3846154), wk =   0.0054620
        k(  128) = (   0.0384615   0.0769231   0.4230769), wk =   0.0054620
        k(  129) = (   0.0384615   0.0769231   0.4615385), wk =   0.0054620
        k(  130) = (   0.0384615   0.0769231  -0.5000000), wk =   0.0027310
        k(  131) = (   0.0384615   0.1153846   0.1153846), wk =   0.0027310
        k(  132) = (   0.0384615   0.1153846   0.1538462), wk =   0.0054620
        k(  133) = (   0.0384615   0.1153846   0.1923077), wk =   0.0054620
        k(  134) = (   0.0384615   0.1153846   0.2307692), wk =   0.0054620
        k(  135) = (   0.0384615   0.1153846   0.2692308), wk =   0.0054620
        k(  136) = (   0.0384615   0.1153846   0.3076923), wk =   0.0054620
        k(  137) = (   0.0384615   0.1153846   0.3461538), wk =   0.0054620
        k(  138) = (   0.0384615   0.1153846   0.3846154), wk =   0.0054620
        k(  139) = (   0.0384615   0.1153846   0.4230769), wk =   0.0054620
        k(  140) = (   0.0384615   0.1153846   0.4615385), wk =   0.0054620
        k(  141) = (   0.0384615   0.1153846  -0.5000000), wk =   0.0027310
        k(  142) = (   0.0384615   0.1538462   0.1538462), wk =   0.0027310
        k(  143) = (   0.0384615   0.1538462   0.1923077), wk =   0.0054620
        k(  144) = (   0.0384615   0.1538462   0.2307692), wk =   0.0054620
        k(  145) = (   0.0384615   0.1538462   0.2692308), wk =   0.0054620
        k(  146) = (   0.0384615   0.1538462   0.3076923), wk =   0.0054620
        k(  147) = (   0.0384615   0.1538462   0.3461538), wk =   0.0054620
        k(  148) = (   0.0384615   0.1538462   0.3846154), wk =   0.0054620
        k(  149) = (   0.0384615   0.1538462   0.4230769), wk =   0.0054620
        k(  150) = (   0.0384615   0.1538462   0.4615385), wk =   0.0054620
        k(  151) = (   0.0384615   0.1538462  -0.5000000), wk =   0.0027310
        k(  152) = (   0.0384615   0.1923077   0.1923077), wk =   0.0027310
        k(  153) = (   0.0384615   0.1923077   0.2307692), wk =   0.0054620
[...]
     1.0000   1.0000   1.0000   1.0000   0.0000   0.0000   0.0000   0.0000

          k = 0.3462 0.3846 0.3846 (  1489 PWs)   bands (ev):

   -35.8546 -13.3547 -13.2789 -13.2336 -12.7751   1.2301   1.8885   2.0073
     3.6426   3.9424   4.7906  12.8929  13.0862  13.1602  14.0102  14.0166
    14.5150  17.7326  17.8277  18.1304  25.8382  25.8500  26.0300  28.8028

     occupation numbers 
     1.0000   1.0000   1.0000   1.0000   1.0000   1.0000   1.0000   1.0000
     1.0000   1.0000   1.0000   1.0000   1.0000   1.0000   1.0000   1.0000
     1.0000   1.0000   1.0000   1.0000   0.0000   0.0000   0.0000   0.0000

          k = 0.3462 0.3846 0.4231 (  1489 PWs)   bands (ev):

   -35.8536 -13.3587 -13.2856 -13.2289 -12.7877   1.3346   1.9412   2.1243
     3.4853   3.9954   4.6188  12.6629  13.0963  13.2063  14.0190  14.0241
    14.4441  17.7752  17.9190  18.2067  25.9490  26.0142  26.1496  28.6395

     occupation numbers 
     1.0000   1.0000   1.0000   1.0000   1.0000   1.0000   1.0000   1.0000
     1.0000   1.0000   1.0000   1.0000   1.0000   1.0000   1.0000   1.0000
     1.0000   1.0000   1.0000   1.0000   0.0000   0.0000   0.0000   0.0000

          k = 0.3462 0.3846 0.4615 (  1496 PWs)   bands (ev):

   -35.8530 -13.3718 -13.2796 -13.2246 -12.7965   1.3870   1.9893   2.2127
     3.3547   4.0728   4.4907  12.4819  13.0903  13.2652  14.0216  14.0272
    14.4185  17.7913  17.9822  18.2561  26.0099  26.1362  26.2377  28.5198

     occupation numbers 
     1.0000   1.0000   1.0000   1.0000   1.0000   1.0000   1.0000   1.0000
     1.0000   1.0000   1.0000   1.0000   1.0000   1.0000   1.0000   1.0000
     1.0000   1.0000   1.0000   1.0000   0.0000   0.0000   0.0000   0.0000

          k = 0.3462 0.3846-0.5000 (  1494 PWs)   bands (ev):

   -35.8528 -13.3773 -13.2765 -13.2228 -12.7996   1.4019   2.0097   2.2469
     3.3041   4.1110   4.4379  12.4165  13.0891  13.2853  14.0211  14.0285
    14.4130  17.7960  18.0039  18.2731  26.0296  26.1816  26.2702  28.4750

     occupation numbers 
     1.0000   1.0000   1.0000   1.0000   1.0000   1.0000   1.0000   1.0000
     1.0000   1.0000   1.0000   1.0000   1.0000   1.0000   1.0000   1.0000
     1.0000   1.0000   1.0000   1.0000   0.0000   0.0000   0.0000   0.0000

          k = 0.3462 0.4231 0.4231 (  1486 PWs)   bands (ev):

   -35.8526 -13.3451 -13.3128 -13.2244 -12.7969   1.4951   1.9721   2.2055
     3.4164   3.9660   4.4342  12.5466  12.9431  13.3225  14.0308  14.0315
    14.3607  17.8777  17.9632  18.3029  26.1091  26.1213  26.2651  28.4434

     occupation numbers 
     1.0000   1.0000   1.0000   1.0000   1.0000   1.0000   1.0000   1.0000
     1.0000   1.0000   1.0000   1.0000   1.0000   1.0000   1.0000   1.0000
     1.0000   1.0000   1.0000   1.0000   0.0000   0.0000   0.0000   0.0000

          k = 0.3462 0.4231 0.4615 (  1487 PWs)   bands (ev):

   -35.8520 -13.3522 -13.3143 -13.2207 -12.8031   1.5951   2.0066   2.2460
     3.3478   4.0030   4.2928  12.4136  12.8886  13.3944  14.0325  14.0384
    14.3255  17.9199  18.0091  18.3660  26.1724  26.2321  26.3547  28.3047

     occupation numbers 
     1.0000   1.0000   1.0000   1.0000   1.0000   1.0000   1.0000   1.0000
     1.0000   1.0000   1.0000   1.0000   1.0000   1.0000   1.0000   1.0000
     1.0000   1.0000   1.0000   1.0000   0.0000   0.0000   0.0000   0.0000

          k = 0.3462 0.4231-0.5000 (  1488 PWs)   bands (ev):

   -35.8518 -13.3578 -13.3116 -13.2194 -12.8054   1.6274   2.0271   2.2540
     3.3204   4.0349   4.2301  12.3592  12.8765  13.4186  14.0317  14.0408
    14.3167  17.9294  18.0292  18.3876  26.1913  26.2745  26.3888  28.2541

     occupation numbers 
     1.0000   1.0000   1.0000   1.0000   1.0000   1.0000   1.0000   1.0000
     1.0000   1.0000   1.0000   1.0000   1.0000   1.0000   1.0000   1.0000
     1.0000   1.0000   1.0000   1.0000   0.0000   0.0000   0.0000   0.0000

          k = 0.3462 0.4615 0.4615 (  1490 PWs)   bands (ev):

   -35.8514 -13.3419 -13.3338 -13.2180 -12.8077   1.7648   2.0177   2.2141
     3.3597   3.9932   4.1409  12.3256  12.7892  13.4737  14.0415  14.0457
    14.2779  17.9976  18.0264  18.4375  26.2840  26.2875  26.4470  28.1546

     occupation numbers 
     1.0000   1.0000   1.0000   1.0000   1.0000   1.0000   1.0000   1.0000
     1.0000   1.0000   1.0000   1.0000   1.0000   1.0000   1.0000   1.0000
     1.0000   1.0000   1.0000   1.0000   0.0000   0.0000   0.0000   0.0000

          k = 0.3462 0.4615-0.5000 (  1488 PWs)   bands (ev):

   -35.8512 -13.3453 -13.3335 -13.2171 -12.8093   1.8387   2.0317   2.1735
     3.3689   4.0089   4.0700  12.2850  12.7633  13.5004  14.0448  14.0484
    14.2631  18.0153  18.0411  18.4621  26.3034  26.3270  26.4821  28.1004

     occupation numbers 
     1.0000   1.0000   1.0000   1.0000   1.0000   1.0000   1.0000   1.0000
     1.0000   1.0000   1.0000   1.0000   1.0000   1.0000   1.0000   1.0000
     1.0000   1.0000   1.0000   1.0000   0.0000   0.0000   0.0000   0.0000

          k = 0.3462-0.5000-0.5000 (  1488 PWs)   bands (ev):

   -35.8510 -13.3409 -13.3409 -13.2163 -12.8106   2.0213   2.0320   2.0320
     3.3977   4.0049   4.0049  12.2496  12.7321  13.5279  14.0510  14.0510
    14.2447  18.0449  18.0449  18.4875  26.3442  26.3442  26.5174  28.0451

     occupation numbers 
     1.0000   1.0000   1.0000   1.0000   1.0000   1.0000   1.0000   1.0000
     1.0000   1.0000   1.0000   1.0000   1.0000   1.0000   1.0000   1.0000
     1.0000   1.0000   1.0000   1.0000   0.0000   0.0000   0.0000   0.0000

          k = 0.3846 0.3846 0.3846 (  1487 PWs)   bands (ev):

   -35.8533 -13.3356 -13.2736 -13.2736 -12.7836   1.4117   2.0447   2.0447
     3.6893   3.6893   4.5785  12.8951  12.8951  13.2653  14.0299  14.0299
    14.3130  17.9069  17.9069  18.1941  26.0117  26.0117  26.1450  28.7108

     occupation numbers 
     1.0000   1.0000   1.0000   1.0000   1.0000   1.0000   1.0000   1.0000
     1.0000   1.0000   1.0000   1.0000   1.0000   1.0000   1.0000   1.0000
     1.0000   1.0000   1.0000   1.0000   0.0000   0.0000   0.0000   0.0000

          k = 0.3846 0.3846 0.4231 (  1489 PWs)   bands (ev):

   -35.8523 -13.3392 -13.2846 -13.2696 -12.7910   1.5415   2.0702   2.2009
     3.4614   3.7762   4.3938  12.6425  12.8972  13.3901  14.0337  14.0421
    14.2188  17.9486  18.0381  18.2606  26.1240  26.1710  26.2563  28.5177

     occupation numbers 
     1.0000   1.0000   1.0000   1.0000   1.0000   1.0000   1.0000   1.0000
     1.0000   1.0000   1.0000   1.0000   1.0000   1.0000   1.0000   1.0000
     1.0000   1.0000   1.0000   1.0000   0.0000   0.0000   0.0000   0.0000

          k = 0.3846 0.3846 0.4615 (  1490 PWs)   bands (ev):

   -35.8517 -13.3539 -13.2784 -13.2671 -12.7960   1.6147   2.0905   2.3330
     3.2851   3.8682   4.2523  12.4630  12.8986  13.4684  14.0122  14.0486
    14.2001  17.9687  18.1193  18.3080  26.1853  26.2889  26.3423  28.3794

     occupation numbers 
     1.0000   1.0000   1.0000   1.0000   1.0000   1.0000   1.0000   1.0000
     1.0000   1.0000   1.0000   1.0000   1.0000   1.0000   1.0000   1.0000
     1.0000   1.0000   1.0000   1.0000   0.0000   0.0000   0.0000   0.0000

          k = 0.3846 0.3846-0.5000 (  1496 PWs)   bands (ev):

   -35.8515 -13.3600 -13.2750 -13.2662 -12.7978   1.6373   2.0994   2.3903
     3.2130   3.9154   4.1902  12.3987  12.8991  13.4956  13.9985  14.0506
    14.2018  17.9747  18.1468  18.3248  26.2048  26.3335  26.3745  28.3273

     occupation numbers 
     1.0000   1.0000   1.0000   1.0000   1.0000   1.0000   1.0000   1.0000
     1.0000   1.0000   1.0000   1.0000   1.0000   1.0000   1.0000   1.0000
     1.0000   1.0000   1.0000   1.0000   0.0000   0.0000   0.0000   0.0000

          k = 0.3846 0.4231 0.4231 (  1488 PWs)   bands (ev):

   -35.8513 -13.3294 -13.3073 -13.2710 -12.7939   1.7092   2.1431   2.2945
     3.3871   3.6906   4.1963  12.5492  12.7573  13.5294  14.0316  14.0569
    14.1124  18.0665  18.1153  18.3315  26.2720  26.2883  26.3646  28.3369

     occupation numbers 
     1.0000   1.0000   1.0000   1.0000   1.0000   1.0000   1.0000   1.0000
     1.0000   1.0000   1.0000   1.0000   1.0000   1.0000   1.0000   1.0000
     1.0000   1.0000   1.0000   1.0000   0.0000   0.0000   0.0000   0.0000

          k = 0.3846 0.4231 0.4615 (  1491 PWs)   bands (ev):

   -35.8507 -13.3403 -13.3084 -13.2677 -12.7959   1.8214   2.1617   2.4001
     3.2518   3.7394   4.0408  12.4115  12.7251  13.6184  13.9827  14.0645
    14.1104  18.1077  18.1844  18.3883  26.3366  26.3922  26.4565  28.1898

     occupation numbers 
     1.0000   1.0000   1.0000   1.0000   1.0000   1.0000   1.0000   1.0000
     1.0000   1.0000   1.0000   1.0000   1.0000   1.0000   1.0000   1.0000
     1.0000   1.0000   1.0000   1.0000   0.0000   0.0000   0.0000   0.0000

          k = 0.3846 0.4231-0.5000 (  1500 PWs)   bands (ev):

   -35.8505 -13.3467 -13.3063 -13.2664 -12.7966   1.8611   2.1648   2.4489
     3.1880   3.7864   3.9658  12.3553  12.7198  13.6509  13.9580  14.0666
    14.1184  18.1168  18.2112  18.4091  26.3551  26.4328  26.4925  28.1351

     occupation numbers 
     1.0000   1.0000   1.0000   1.0000   1.0000   1.0000   1.0000   1.0000
     1.0000   1.0000   1.0000   1.0000   1.0000   1.0000   1.0000   1.0000
     1.0000   1.0000   1.0000   1.0000   0.0000   0.0000   0.0000   0.0000

          k = 0.3846 0.4615 0.4615 (  1502 PWs)   bands (ev):

   -35.8501 -13.3335 -13.3283 -13.2650 -12.7959   1.9906   2.1958   2.4131
     3.2265   3.7060   3.8746  12.3288  12.6416  13.7115  13.9462  14.0754
    14.0898  18.1916  18.2134  18.4550  26.4422  26.4466  26.5543  28.0361

     occupation numbers 
     1.0000   1.0000   1.0000   1.0000   1.0000   1.0000   1.0000   1.0000
     1.0000   1.0000   1.0000   1.0000   1.0000   1.0000   1.0000   1.0000
     1.0000   1.0000   1.0000   1.0000   0.0000   0.0000   0.0000   0.0000

          k = 0.3846 0.4615-0.5000 (  1492 PWs)   bands (ev):

   -35.8499 -13.3382 -13.3280 -13.2640 -12.7959   2.0685   2.2010   2.4032
     3.2156   3.7279   3.7892  12.2879  12.6222  13.7447  13.9295  14.0777
    14.0897  18.2083  18.2339  18.4795  26.4617  26.4842  26.5918  27.9789

     occupation numbers 
     1.0000   1.0000   1.0000   1.0000   1.0000   1.0000   1.0000   1.0000
     1.0000   1.0000   1.0000   1.0000   1.0000   1.0000   1.0000   1.0000
     1.0000   1.0000   1.0000   1.0000   0.0000   0.0000   0.0000   0.0000

          k = 0.3846-0.5000-0.5000 (  1496 PWs)   bands (ev):

   -35.8497 -13.3354 -13.3354 -13.2632 -12.7956   2.2120   2.2120   2.3099
     3.2418   3.7142   3.7142  12.2532  12.5968  13.7757  13.9206  14.0819
    14.0819  18.2399  18.2399  18.5051  26.5013  26.5013  26.6295  27.9209

     occupation numbers 
     1.0000   1.0000   1.0000   1.0000   1.0000   1.0000   1.0000   1.0000
     1.0000   1.0000   1.0000   1.0000   1.0000   1.0000   1.0000   1.0000
     1.0000   1.0000   1.0000   1.0000   0.0000   0.0000   0.0000   0.0000

          k = 0.4231 0.4231 0.4231 (  1490 PWs)   bands (ev):

   -35.8504 -13.3202 -13.3032 -13.3032 -12.7917   1.8892   2.3228   2.3228
     3.4337   3.4337   3.9862  12.5513  12.5513  13.6759  13.9459  14.0727
    14.0727  18.2129  18.2129  18.3747  26.4203  26.4203  26.4509  28.2495

     occupation numbers 
     1.0000   1.0000   1.0000   1.0000   1.0000   1.0000   1.0000   1.0000
     1.0000   1.0000   1.0000   1.0000   1.0000   1.0000   1.0000   1.0000
     1.0000   1.0000   1.0000   1.0000   0.0000   0.0000   0.0000   0.0000

          k = 0.4231 0.4231 0.4615 (  1500 PWs)   bands (ev):

   -35.8498 -13.3315 -13.3061 -13.3006 -12.7903   2.0238   2.3073   2.4921
     3.2170   3.5211   3.8162  12.3951  12.5526  13.7653  13.8725  14.0811
    14.0912  18.2552  18.3055  18.4218  26.4805  26.5313  26.5374  28.0845

     occupation numbers 
     1.0000   1.0000   1.0000   1.0000   1.0000   1.0000   1.0000   1.0000
     1.0000   1.0000   1.0000   1.0000   1.0000   1.0000   1.0000   1.0000
     1.0000   1.0000   1.0000   1.0000   0.0000   0.0000   0.0000   0.0000

          k = 0.4231 0.4231-0.5000 (  1512 PWs)   bands (ev):

   -35.8495 -13.3382 -13.3041 -13.2998 -12.7899   2.0810   2.2890   2.5786
     3.1146   3.5882   3.7241  12.3375  12.5531  13.8199  13.8229  14.0837
    14.1012  18.2659  18.3371  18.4416  26.4980  26.5722  26.5740  28.0238

     occupation numbers 
     1.0000   1.0000   1.0000   1.0000   1.0000   1.0000   1.0000   1.0000
     1.0000   1.0000   1.0000   1.0000   1.0000   1.0000   1.0000   1.0000
     1.0000   1.0000   1.0000   1.0000   0.0000   0.0000   0.0000   0.0000

          k = 0.4231 0.4615 0.4615 (  1498 PWs)   bands (ev):

   -35.8491 -13.3272 -13.3241 -13.3002 -12.7868   2.1924   2.3881   2.5516
     3.1642   3.4333   3.6341  12.3314  12.4698  13.7629  13.9015  14.0932
    14.0945  18.3451  18.3596  18.4706  26.5843  26.5851  26.6371  27.9485

     occupation numbers 
     1.0000   1.0000   1.0000   1.0000   1.0000   1.0000   1.0000   1.0000
     1.0000   1.0000   1.0000   1.0000   1.0000   1.0000   1.0000   1.0000
     1.0000   1.0000   1.0000   1.0000   0.0000   0.0000   0.0000   0.0000

          k = 0.4231 0.4615-0.5000 (  1496 PWs)   bands (ev):

   -35.8489 -13.3329 -13.3238 -13.2993 -12.7856   2.2823   2.3767   2.5964
     3.1074   3.4708   3.5271  12.2890  12.4576  13.7471  13.9267  14.0954
    14.1004  18.3621  18.3857  18.4938  26.6019  26.6239  26.6766  27.8886

     occupation numbers 
     1.0000   1.0000   1.0000   1.0000   1.0000   1.0000   1.0000   1.0000
     1.0000   1.0000   1.0000   1.0000   1.0000   1.0000   1.0000   1.0000
     1.0000   1.0000   1.0000   1.0000   0.0000   0.0000   0.0000   0.0000

          k = 0.4231-0.5000-0.5000 (  1496 PWs)   bands (ev):

   -35.8487 -13.3311 -13.3311 -13.2984 -12.7842   2.4077   2.4077   2.5409
     3.1273   3.4368   3.4368  12.2559  12.4368  13.7258  13.9605  14.1004
    14.1004  18.3952  18.3952  18.5188  26.6414  26.6414  26.7159  27.8293

     occupation numbers 
     1.0000   1.0000   1.0000   1.0000   1.0000   1.0000   1.0000   1.0000
     1.0000   1.0000   1.0000   1.0000   1.0000   1.0000   1.0000   1.0000
     1.0000   1.0000   1.0000   1.0000   0.0000   0.0000   0.0000   0.0000

          k = 0.4615 0.4615 0.4615 (  1496 PWs)   bands (ev):

   -35.8485 -13.3238 -13.3215 -13.3215 -12.7811   2.3682   2.5827   2.5827
     3.1894   3.1894   3.4341  12.3329  12.3329  13.6812  14.0049  14.1026
    14.1026  18.4436  18.4436  18.4903  26.6840  26.6914  26.6914  27.8909

     occupation numbers 
     1.0000   1.0000   1.0000   1.0000   1.0000   1.0000   1.0000   1.0000
     1.0000   1.0000   1.0000   1.0000   1.0000   1.0000   1.0000   1.0000
     1.0000   1.0000   1.0000   1.0000   0.0000   0.0000   0.0000   0.0000

          k = 0.4615 0.4615-0.5000 (  1484 PWs)   bands (ev):

   -35.8483 -13.3296 -13.3216 -13.3205 -12.7792   2.4819   2.5356   2.7011
     3.0543   3.2673   3.3022  12.2814  12.3335  13.6566  14.0383  14.1054
    14.1078  18.4612  18.4776  18.5085  26.7064  26.7252  26.7333  27.8241

     occupation numbers 
     1.0000   1.0000   1.0000   1.0000   1.0000   1.0000   1.0000   1.0000
     1.0000   1.0000   1.0000   1.0000   1.0000   1.0000   1.0000   1.0000
     1.0000   1.0000   1.0000   1.0000   0.0000   0.0000   0.0000   0.0000

          k = 0.4615-0.5000-0.5000 (  1472 PWs)   bands (ev):

   -35.8481 -13.3284 -13.3284 -13.3202 -12.7770   2.6104   2.6104   2.6914
     3.0575   3.1842   3.1842  12.2576  12.3075  13.6300  14.0745  14.1101
    14.1101  18.4956  18.4956  18.5273  26.7472  26.7472  26.7703  27.7732

     occupation numbers 
     1.0000   1.0000   1.0000   1.0000   1.0000   1.0000   1.0000   1.0000
     1.0000   1.0000   1.0000   1.0000   1.0000   1.0000   1.0000   1.0000
     1.0000   1.0000   1.0000   1.0000   0.0000   0.0000   0.0000   0.0000

          k =-0.5000-0.5000-0.5000 (  1472 PWs)   bands (ev):

   -35.8479 -13.3275 -13.3275 -13.3275 -12.7746   2.7437   2.7437   2.7437
     3.0340   3.0340   3.0340  12.2582  12.2582  13.6019  14.1130  14.1130
    14.1130  18.5302  18.5302  18.5302  26.7889  26.7889  26.7889  27.7543

     occupation numbers 
     1.0000   1.0000   1.0000   1.0000   1.0000   1.0000   1.0000   1.0000
     1.0000   1.0000   1.0000   1.0000   1.0000   1.0000   1.0000   1.0000
     1.0000   1.0000   1.0000   1.0000   0.0000   0.0000   0.0000   0.0000

     the Fermi energy is    19.6545 ev

!    total energy              =    -286.11892100 Ry
     Harris-Foulkes estimate   =    -286.11892100 Ry
     estimated scf accuracy    <          1.2E-09 Ry

     The total energy is the sum of the following terms:

     one-electron contribution =     -25.32256291 Ry
     hartree contribution      =      48.87533523 Ry
     xc contribution           =     -60.57872329 Ry
     ewald contribution        =    -249.09297003 Ry
     smearing contrib. (-TS)   =       0.00000000 Ry

     convergence has been achieved in   8 iterations
 
     init_run     :      3.39s CPU      3.76s WALL (       1 calls)
     electrons    :    102.02s CPU    112.61s WALL (       1 calls)

     Called by init_run:
     wfcinit      :      3.31s CPU      3.63s WALL (       1 calls)
     wfcinit:atom :      0.02s CPU      0.02s WALL (     560 calls)
     wfcinit:wfcr :      3.21s CPU      3.52s WALL (     560 calls)
     potinit      :      0.01s CPU      0.01s WALL (       1 calls)
     hinit0       :      0.06s CPU      0.10s WALL (       1 calls)

     Called by electrons:
     c_bands      :     96.63s CPU    106.83s WALL (       8 calls)
     sum_band     :      5.33s CPU      5.71s WALL (       8 calls)
     v_of_rho     :      0.01s CPU      0.01s WALL (       9 calls)
     v_h          :      0.00s CPU      0.00s WALL (       9 calls)
     v_xc         :      0.01s CPU      0.01s WALL (       9 calls)
     newd         :      0.03s CPU      0.04s WALL (       9 calls)
     mix_rho      :      0.00s CPU      0.00s WALL (       8 calls)

     Called by c_bands:
     init_us_2    :      0.46s CPU      0.48s WALL (    9520 calls)
     cegterg      :     94.86s CPU    105.00s WALL (    4480 calls)

     Called by sum_band:
     sum_band:bec :      0.09s CPU      0.10s WALL (    4480 calls)
     addusdens    :      0.03s CPU      0.04s WALL (       8 calls)

     Called by *egterg:
     h_psi        :     26.92s CPU     28.73s WALL (   19899 calls)
     s_psi        :      0.66s CPU      0.71s WALL (   19899 calls)
     g_psi        :      0.14s CPU      0.14s WALL (   14859 calls)
     cdiaghg      :     58.81s CPU     65.13s WALL (   19339 calls)
     cegterg:over :      6.91s CPU      9.02s WALL (   14859 calls)
     cegterg:upda :      2.21s CPU      2.28s WALL (   14859 calls)
     cegterg:last :      0.85s CPU      0.87s WALL (    4480 calls)
     cdiaghg:chol :      1.60s CPU      1.90s WALL (   19339 calls)
     cdiaghg:inve :      1.01s CPU      1.21s WALL (   19339 calls)
     cdiaghg:para :      2.98s CPU      3.28s WALL (   38678 calls)

     Called by h_psi:
     h_psi:pot    :     26.85s CPU     28.65s WALL (   19899 calls)
     h_psi:calbec :      1.30s CPU      1.39s WALL (   19899 calls)
     vloc_psi     :     24.79s CPU     26.45s WALL (   19899 calls)
     add_vuspsi   :      0.68s CPU      0.73s WALL (   19899 calls)

     General routines
     calbec       :      1.58s CPU      1.70s WALL (   24379 calls)
     fft          :      0.01s CPU      0.04s WALL (     100 calls)
     ffts         :      0.00s CPU      0.00s WALL (       8 calls)
     fftw         :     27.51s CPU     29.36s WALL (  722384 calls)
 
     Parallel routines
     fft_scatt_xy :      2.40s CPU      2.56s WALL (  722492 calls)
     fft_scatt_yz :     18.66s CPU     20.00s WALL (  722492 calls)
 
     PWSCF        :  1m45.50s CPU     1m56.55s WALL

 
   This run was terminated on:  22: 0:48   6Feb2019            

=------------------------------------------------------------------------------=
   JOB DONE.
=------------------------------------------------------------------------------=
