
     Program PWSCF v.6.3MaX starts on  6Feb2019 at 21:45:44 

     This program is part of the open-source Quantum ESPRESSO suite
     for quantum simulation of materials; please cite
         "P. Giannozzi et al., J. Phys.:Condens. Matter 21 395502 (2009);
         "P. Giannozzi et al., J. Phys.:Condens. Matter 29 465901 (2017);
          URL http://www.quantum-espresso.org", 
     in publications or presentations arising from this work. More details at
     http://www.quantum-espresso.org/quote

     Parallel version (MPI & OpenMP), running on      20 processor cores
     Number of MPI processes:                20
     Threads/MPI process:                     1

     MPI processes distributed on     1 nodes
     R & G space division:  proc/nbgrp/npool/nimage =      20
     Reading input from /home/azadoks/dftman/projects/SrTiO3 Convergence/EOSWorkflows/d54829050d49/19a6a620088b/pwscf.in
Warning: card &IONS ignored
Warning: card / ignored
Warning: card &CELL ignored
Warning: card / ignored

     Current dimensions of program PWSCF are:
     Max number of different atomic species (ntypx) = 10
     Max number of k-points (npk) =  40000
     Max angular momentum in pseudopotentials (lmaxx) =  3
     Message from routine iosys:
     minimal I/O required, wf_collect reset to FALSE

     Subspace diagonalization in iterative solution of the eigenvalue problem:
     one sub-group per band group will be used
     scalapack distributed-memory algorithm (size of sub-group:  3*  3 procs)

 
     Parallelization info
     --------------------
     sticks:   dense  smooth     PW     G-vecs:    dense   smooth      PW
     Min          54      54     16                 1358     1358     218
     Max          55      55     17                 1363     1363     221
     Sum        1093    1093    325                27201    27201    4385
 


     bravais-lattice index     =            0
     lattice parameter (alat)  =       8.2836  a.u.
     unit-cell volume          =     568.3987 (a.u.)^3
     number of atoms/cell      =            5
     number of atomic types    =            3
     number of electrons       =        40.00
     number of Kohn-Sham states=           24
     kinetic-energy cutoff     =      50.0000  Ry
     charge density cutoff     =     200.0000  Ry
     convergence threshold     =      1.0E-08
     mixing beta               =       0.7000
     number of iterations used =            8  plain     mixing
     Exchange-correlation      =  SLA  PW   PBX  PBC ( 1  4  3  4 0 0)

     celldm(1)=   8.283573  celldm(2)=   0.000000  celldm(3)=   0.000000
     celldm(4)=   0.000000  celldm(5)=   0.000000  celldm(6)=   0.000000

     crystal axes: (cart. coord. in units of alat)
               a(1) = (   1.000000   0.000000   0.000000 )  
               a(2) = (   0.000000   1.000000   0.000000 )  
               a(3) = (   0.000000   0.000000   1.000000 )  

     reciprocal axes: (cart. coord. in units 2 pi/alat)
               b(1) = (  1.000000  0.000000  0.000000 )  
               b(2) = (  0.000000  1.000000  0.000000 )  
               b(3) = (  0.000000  0.000000  1.000000 )  


     PseudoPot. # 1 for O  read from file:
     /home/azadoks/.local/share/pseudo/GBRV_PBE_US/o_pbe_v1.2.uspp.F.UPF
     MD5 check sum: 734c27235a0248c51dbae37a1fbe46ec
     Pseudo is Ultrasoft + core correction, Zval =  6.0
     Generated by new atomic code, or converted to UPF format
     Using radial grid of  737 points,  5 beta functions with: 
                l(1) =   0
                l(2) =   0
                l(3) =   1
                l(4) =   1
                l(5) =   2
     Q(r) pseudized with  8 coefficients,  rinner =    0.900   0.900   0.900
                                                       0.900   0.900

     PseudoPot. # 2 for Sr read from file:
     /home/azadoks/.local/share/pseudo/GBRV_PBE_US/sr_pbe_v1.uspp.F.UPF
     MD5 check sum: 6b418c05fbe9db5448babca5e47b7a5b
     Pseudo is Ultrasoft + core correction, Zval = 10.0
     Generated by new atomic code, or converted to UPF format
     Using radial grid of  883 points,  6 beta functions with: 
                l(1) =   0
                l(2) =   0
                l(3) =   1
                l(4) =   1
                l(5) =   2
                l(6) =   2
     Q(r) pseudized with  6 coefficients,  rinner =    1.400   1.400   1.400
                                                       1.400   1.400

     PseudoPot. # 3 for Ti read from file:
     /home/azadoks/.local/share/pseudo/GBRV_PBE_US/ti_pbe_v1.4.uspp.F.UPF
     MD5 check sum: 88a00a6731bd790ddea75d31a80cb452
     Pseudo is Ultrasoft + core correction, Zval = 12.0
     Generated by new atomic code, or converted to UPF format
     Using radial grid of  851 points,  6 beta functions with: 
                l(1) =   0
                l(2) =   0
                l(3) =   1
                l(4) =   1
                l(5) =   2
                l(6) =   2
     Q(r) pseudized with  6 coefficients,  rinner =    1.000   1.000   1.000
                                                       1.000   1.000

     atomic species   valence    mass     pseudopotential
        O              6.00    15.99940     O ( 1.00)
        Sr            10.00    87.62000     Sr( 1.00)
        Ti            12.00    47.86700     Ti( 1.00)

     48 Sym. Ops., with inversion, found


                                    s                        frac. trans.

      isym =  1     identity                                     

 cryst.   s( 1) = (     1          0          0      )
                  (     0          1          0      )
                  (     0          0          1      )

 cart.    s( 1) = (  1.0000000  0.0000000  0.0000000 )
                  (  0.0000000  1.0000000  0.0000000 )
                  (  0.0000000  0.0000000  1.0000000 )


      isym =  2     180 deg rotation - cart. axis [0,0,1]        

 cryst.   s( 2) = (    -1          0          0      )
                  (     0         -1          0      )
                  (     0          0          1      )

 cart.    s( 2) = ( -1.0000000  0.0000000  0.0000000 )
                  (  0.0000000 -1.0000000  0.0000000 )
                  (  0.0000000  0.0000000  1.0000000 )


      isym =  3     180 deg rotation - cart. axis [0,1,0]        

 cryst.   s( 3) = (    -1          0          0      )
                  (     0          1          0      )
                  (     0          0         -1      )

 cart.    s( 3) = ( -1.0000000  0.0000000  0.0000000 )
                  (  0.0000000  1.0000000  0.0000000 )
                  (  0.0000000  0.0000000 -1.0000000 )


      isym =  4     180 deg rotation - cart. axis [1,0,0]        

 cryst.   s( 4) = (     1          0          0      )
                  (     0         -1          0      )
                  (     0          0         -1      )

 cart.    s( 4) = (  1.0000000  0.0000000  0.0000000 )
                  (  0.0000000 -1.0000000  0.0000000 )
                  (  0.0000000  0.0000000 -1.0000000 )


      isym =  5     180 deg rotation - cart. axis [1,1,0]        

 cryst.   s( 5) = (     0          1          0      )
                  (     1          0          0      )
                  (     0          0         -1      )

 cart.    s( 5) = (  0.0000000  1.0000000  0.0000000 )
                  (  1.0000000  0.0000000  0.0000000 )
                  (  0.0000000  0.0000000 -1.0000000 )


      isym =  6     180 deg rotation - cart. axis [1,-1,0]       

 cryst.   s( 6) = (     0         -1          0      )
                  (    -1          0          0      )
                  (     0          0         -1      )

 cart.    s( 6) = (  0.0000000 -1.0000000  0.0000000 )
                  ( -1.0000000  0.0000000  0.0000000 )
                  (  0.0000000  0.0000000 -1.0000000 )


      isym =  7      90 deg rotation - cart. axis [0,0,-1]       

 cryst.   s( 7) = (     0         -1          0      )
                  (     1          0          0      )
                  (     0          0          1      )

 cart.    s( 7) = (  0.0000000  1.0000000  0.0000000 )
                  ( -1.0000000  0.0000000  0.0000000 )
                  (  0.0000000  0.0000000  1.0000000 )


      isym =  8      90 deg rotation - cart. axis [0,0,1]        

 cryst.   s( 8) = (     0          1          0      )
                  (    -1          0          0      )
                  (     0          0          1      )

 cart.    s( 8) = (  0.0000000 -1.0000000  0.0000000 )
                  (  1.0000000  0.0000000  0.0000000 )
                  (  0.0000000  0.0000000  1.0000000 )


      isym =  9     180 deg rotation - cart. axis [1,0,1]        

 cryst.   s( 9) = (     0          0          1      )
                  (     0         -1          0      )
                  (     1          0          0      )

 cart.    s( 9) = (  0.0000000  0.0000000  1.0000000 )
                  (  0.0000000 -1.0000000  0.0000000 )
                  (  1.0000000  0.0000000  0.0000000 )


      isym = 10     180 deg rotation - cart. axis [-1,0,1]       

 cryst.   s(10) = (     0          0         -1      )
                  (     0         -1          0      )
                  (    -1          0          0      )

 cart.    s(10) = (  0.0000000  0.0000000 -1.0000000 )
                  (  0.0000000 -1.0000000  0.0000000 )
                  ( -1.0000000  0.0000000  0.0000000 )


      isym = 11      90 deg rotation - cart. axis [0,1,0]        

 cryst.   s(11) = (     0          0         -1      )
                  (     0          1          0      )
                  (     1          0          0      )

 cart.    s(11) = (  0.0000000  0.0000000  1.0000000 )
                  (  0.0000000  1.0000000  0.0000000 )
                  ( -1.0000000  0.0000000  0.0000000 )


      isym = 12      90 deg rotation - cart. axis [0,-1,0]       

 cryst.   s(12) = (     0          0          1      )
                  (     0          1          0      )
                  (    -1          0          0      )

 cart.    s(12) = (  0.0000000  0.0000000 -1.0000000 )
                  (  0.0000000  1.0000000  0.0000000 )
                  (  1.0000000  0.0000000  0.0000000 )


      isym = 13     180 deg rotation - cart. axis [0,1,1]        

 cryst.   s(13) = (    -1          0          0      )
                  (     0          0          1      )
                  (     0          1          0      )

 cart.    s(13) = ( -1.0000000  0.0000000  0.0000000 )
                  (  0.0000000  0.0000000  1.0000000 )
                  (  0.0000000  1.0000000  0.0000000 )


      isym = 14     180 deg rotation - cart. axis [0,1,-1]       

 cryst.   s(14) = (    -1          0          0      )
                  (     0          0         -1      )
                  (     0         -1          0      )

 cart.    s(14) = ( -1.0000000  0.0000000  0.0000000 )
                  (  0.0000000  0.0000000 -1.0000000 )
                  (  0.0000000 -1.0000000  0.0000000 )


      isym = 15      90 deg rotation - cart. axis [-1,0,0]       

 cryst.   s(15) = (     1          0          0      )
                  (     0          0         -1      )
                  (     0          1          0      )

 cart.    s(15) = (  1.0000000  0.0000000  0.0000000 )
                  (  0.0000000  0.0000000  1.0000000 )
                  (  0.0000000 -1.0000000  0.0000000 )


      isym = 16      90 deg rotation - cart. axis [1,0,0]        

 cryst.   s(16) = (     1          0          0      )
                  (     0          0          1      )
                  (     0         -1          0      )

 cart.    s(16) = (  1.0000000  0.0000000  0.0000000 )
                  (  0.0000000  0.0000000 -1.0000000 )
                  (  0.0000000  1.0000000  0.0000000 )


      isym = 17     120 deg rotation - cart. axis [-1,-1,-1]     

 cryst.   s(17) = (     0          0          1      )
                  (     1          0          0      )
                  (     0          1          0      )

 cart.    s(17) = (  0.0000000  1.0000000  0.0000000 )
                  (  0.0000000  0.0000000  1.0000000 )
                  (  1.0000000  0.0000000  0.0000000 )


      isym = 18     120 deg rotation - cart. axis [-1,1,1]       

 cryst.   s(18) = (     0          0         -1      )
                  (    -1          0          0      )
                  (     0          1          0      )

 cart.    s(18) = (  0.0000000 -1.0000000  0.0000000 )
                  (  0.0000000  0.0000000  1.0000000 )
                  ( -1.0000000  0.0000000  0.0000000 )


      isym = 19     120 deg rotation - cart. axis [1,1,-1]       

 cryst.   s(19) = (     0          0         -1      )
                  (     1          0          0      )
                  (     0         -1          0      )

 cart.    s(19) = (  0.0000000  1.0000000  0.0000000 )
                  (  0.0000000  0.0000000 -1.0000000 )
                  ( -1.0000000  0.0000000  0.0000000 )


      isym = 20     120 deg rotation - cart. axis [1,-1,1]       

 cryst.   s(20) = (     0          0          1      )
                  (    -1          0          0      )
                  (     0         -1          0      )

 cart.    s(20) = (  0.0000000 -1.0000000  0.0000000 )
                  (  0.0000000  0.0000000 -1.0000000 )
                  (  1.0000000  0.0000000  0.0000000 )


      isym = 21     120 deg rotation - cart. axis [1,1,1]        

 cryst.   s(21) = (     0          1          0      )
                  (     0          0          1      )
                  (     1          0          0      )

 cart.    s(21) = (  0.0000000  0.0000000  1.0000000 )
                  (  1.0000000  0.0000000  0.0000000 )
                  (  0.0000000  1.0000000  0.0000000 )


      isym = 22     120 deg rotation - cart. axis [-1,1,-1]      

 cryst.   s(22) = (     0         -1          0      )
                  (     0          0         -1      )
                  (     1          0          0      )

 cart.    s(22) = (  0.0000000  0.0000000  1.0000000 )
                  ( -1.0000000  0.0000000  0.0000000 )
                  (  0.0000000 -1.0000000  0.0000000 )


      isym = 23     120 deg rotation - cart. axis [1,-1,-1]      

 cryst.   s(23) = (     0         -1          0      )
                  (     0          0          1      )
                  (    -1          0          0      )

 cart.    s(23) = (  0.0000000  0.0000000 -1.0000000 )
                  ( -1.0000000  0.0000000  0.0000000 )
                  (  0.0000000  1.0000000  0.0000000 )


      isym = 24     120 deg rotation - cart. axis [-1,-1,1]      

 cryst.   s(24) = (     0          1          0      )
                  (     0          0         -1      )
                  (    -1          0          0      )

 cart.    s(24) = (  0.0000000  0.0000000 -1.0000000 )
                  (  1.0000000  0.0000000  0.0000000 )
                  (  0.0000000 -1.0000000  0.0000000 )


      isym = 25     inversion                                    

 cryst.   s(25) = (    -1          0          0      )
                  (     0         -1          0      )
                  (     0          0         -1      )

 cart.    s(25) = ( -1.0000000  0.0000000  0.0000000 )
                  (  0.0000000 -1.0000000  0.0000000 )
                  (  0.0000000  0.0000000 -1.0000000 )


      isym = 26     inv. 180 deg rotation - cart. axis [0,0,1]   

 cryst.   s(26) = (     1          0          0      )
                  (     0          1          0      )
                  (     0          0         -1      )

 cart.    s(26) = (  1.0000000  0.0000000  0.0000000 )
                  (  0.0000000  1.0000000  0.0000000 )
                  (  0.0000000  0.0000000 -1.0000000 )


      isym = 27     inv. 180 deg rotation - cart. axis [0,1,0]   

 cryst.   s(27) = (     1          0          0      )
                  (     0         -1          0      )
                  (     0          0          1      )

 cart.    s(27) = (  1.0000000  0.0000000  0.0000000 )
                  (  0.0000000 -1.0000000  0.0000000 )
                  (  0.0000000  0.0000000  1.0000000 )


      isym = 28     inv. 180 deg rotation - cart. axis [1,0,0]   

 cryst.   s(28) = (    -1          0          0      )
                  (     0          1          0      )
                  (     0          0          1      )

 cart.    s(28) = ( -1.0000000  0.0000000  0.0000000 )
                  (  0.0000000  1.0000000  0.0000000 )
                  (  0.0000000  0.0000000  1.0000000 )


      isym = 29     inv. 180 deg rotation - cart. axis [1,1,0]   

 cryst.   s(29) = (     0         -1          0      )
                  (    -1          0          0      )
                  (     0          0          1      )

 cart.    s(29) = (  0.0000000 -1.0000000  0.0000000 )
                  ( -1.0000000  0.0000000  0.0000000 )
                  (  0.0000000  0.0000000  1.0000000 )


      isym = 30     inv. 180 deg rotation - cart. axis [1,-1,0]  

 cryst.   s(30) = (     0          1          0      )
                  (     1          0          0      )
                  (     0          0          1      )

 cart.    s(30) = (  0.0000000  1.0000000  0.0000000 )
                  (  1.0000000  0.0000000  0.0000000 )
                  (  0.0000000  0.0000000  1.0000000 )


      isym = 31     inv.  90 deg rotation - cart. axis [0,0,-1]  

 cryst.   s(31) = (     0          1          0      )
                  (    -1          0          0      )
                  (     0          0         -1      )

 cart.    s(31) = (  0.0000000 -1.0000000  0.0000000 )
                  (  1.0000000  0.0000000  0.0000000 )
                  (  0.0000000  0.0000000 -1.0000000 )


      isym = 32     inv.  90 deg rotation - cart. axis [0,0,1]   

 cryst.   s(32) = (     0         -1          0      )
                  (     1          0          0      )
                  (     0          0         -1      )

 cart.    s(32) = (  0.0000000  1.0000000  0.0000000 )
                  ( -1.0000000  0.0000000  0.0000000 )
                  (  0.0000000  0.0000000 -1.0000000 )


      isym = 33     inv. 180 deg rotation - cart. axis [1,0,1]   

 cryst.   s(33) = (     0          0         -1      )
                  (     0          1          0      )
                  (    -1          0          0      )

 cart.    s(33) = (  0.0000000  0.0000000 -1.0000000 )
                  (  0.0000000  1.0000000  0.0000000 )
                  ( -1.0000000  0.0000000  0.0000000 )


      isym = 34     inv. 180 deg rotation - cart. axis [-1,0,1]  

 cryst.   s(34) = (     0          0          1      )
                  (     0          1          0      )
                  (     1          0          0      )

 cart.    s(34) = (  0.0000000  0.0000000  1.0000000 )
                  (  0.0000000  1.0000000  0.0000000 )
                  (  1.0000000  0.0000000  0.0000000 )


      isym = 35     inv.  90 deg rotation - cart. axis [0,1,0]   

 cryst.   s(35) = (     0          0          1      )
                  (     0         -1          0      )
                  (    -1          0          0      )

 cart.    s(35) = (  0.0000000  0.0000000 -1.0000000 )
                  (  0.0000000 -1.0000000  0.0000000 )
                  (  1.0000000  0.0000000  0.0000000 )


      isym = 36     inv.  90 deg rotation - cart. axis [0,-1,0]  

 cryst.   s(36) = (     0          0         -1      )
                  (     0         -1          0      )
                  (     1          0          0      )

 cart.    s(36) = (  0.0000000  0.0000000  1.0000000 )
                  (  0.0000000 -1.0000000  0.0000000 )
                  ( -1.0000000  0.0000000  0.0000000 )


      isym = 37     inv. 180 deg rotation - cart. axis [0,1,1]   

 cryst.   s(37) = (     1          0          0      )
                  (     0          0         -1      )
                  (     0         -1          0      )

 cart.    s(37) = (  1.0000000  0.0000000  0.0000000 )
                  (  0.0000000  0.0000000 -1.0000000 )
                  (  0.0000000 -1.0000000  0.0000000 )


      isym = 38     inv. 180 deg rotation - cart. axis [0,1,-1]  

 cryst.   s(38) = (     1          0          0      )
                  (     0          0          1      )
                  (     0          1          0      )

 cart.    s(38) = (  1.0000000  0.0000000  0.0000000 )
                  (  0.0000000  0.0000000  1.0000000 )
                  (  0.0000000  1.0000000  0.0000000 )


      isym = 39     inv.  90 deg rotation - cart. axis [-1,0,0]  

 cryst.   s(39) = (    -1          0          0      )
                  (     0          0          1      )
                  (     0         -1          0      )

 cart.    s(39) = ( -1.0000000  0.0000000  0.0000000 )
                  (  0.0000000  0.0000000 -1.0000000 )
                  (  0.0000000  1.0000000  0.0000000 )


      isym = 40     inv.  90 deg rotation - cart. axis [1,0,0]   

 cryst.   s(40) = (    -1          0          0      )
                  (     0          0         -1      )
                  (     0          1          0      )

 cart.    s(40) = ( -1.0000000  0.0000000  0.0000000 )
                  (  0.0000000  0.0000000  1.0000000 )
                  (  0.0000000 -1.0000000  0.0000000 )


      isym = 41     inv. 120 deg rotation - cart. axis [-1,-1,-1]

 cryst.   s(41) = (     0          0         -1      )
                  (    -1          0          0      )
                  (     0         -1          0      )

 cart.    s(41) = (  0.0000000 -1.0000000  0.0000000 )
                  (  0.0000000  0.0000000 -1.0000000 )
                  ( -1.0000000  0.0000000  0.0000000 )


      isym = 42     inv. 120 deg rotation - cart. axis [-1,1,1]  

 cryst.   s(42) = (     0          0          1      )
                  (     1          0          0      )
                  (     0         -1          0      )

 cart.    s(42) = (  0.0000000  1.0000000  0.0000000 )
                  (  0.0000000  0.0000000 -1.0000000 )
                  (  1.0000000  0.0000000  0.0000000 )


      isym = 43     inv. 120 deg rotation - cart. axis [1,1,-1]  

 cryst.   s(43) = (     0          0          1      )
                  (    -1          0          0      )
                  (     0          1          0      )

 cart.    s(43) = (  0.0000000 -1.0000000  0.0000000 )
                  (  0.0000000  0.0000000  1.0000000 )
                  (  1.0000000  0.0000000  0.0000000 )


      isym = 44     inv. 120 deg rotation - cart. axis [1,-1,1]  

 cryst.   s(44) = (     0          0         -1      )
                  (     1          0          0      )
                  (     0          1          0      )

 cart.    s(44) = (  0.0000000  1.0000000  0.0000000 )
                  (  0.0000000  0.0000000  1.0000000 )
                  ( -1.0000000  0.0000000  0.0000000 )


      isym = 45     inv. 120 deg rotation - cart. axis [1,1,1]   

 cryst.   s(45) = (     0         -1          0      )
                  (     0          0         -1      )
                  (    -1          0          0      )

 cart.    s(45) = (  0.0000000  0.0000000 -1.0000000 )
                  ( -1.0000000  0.0000000  0.0000000 )
                  (  0.0000000 -1.0000000  0.0000000 )


      isym = 46     inv. 120 deg rotation - cart. axis [-1,1,-1] 

 cryst.   s(46) = (     0          1          0      )
                  (     0          0          1      )
                  (    -1          0          0      )

 cart.    s(46) = (  0.0000000  0.0000000 -1.0000000 )
                  (  1.0000000  0.0000000  0.0000000 )
                  (  0.0000000  1.0000000  0.0000000 )


      isym = 47     inv. 120 deg rotation - cart. axis [1,-1,-1] 

 cryst.   s(47) = (     0          1          0      )
                  (     0          0         -1      )
                  (     1          0          0      )

 cart.    s(47) = (  0.0000000  0.0000000  1.0000000 )
                  (  1.0000000  0.0000000  0.0000000 )
                  (  0.0000000 -1.0000000  0.0000000 )


      isym = 48     inv. 120 deg rotation - cart. axis [-1,-1,1] 

 cryst.   s(48) = (     0         -1          0      )
                  (     0          0          1      )
                  (     1          0          0      )

 cart.    s(48) = (  0.0000000  0.0000000  1.0000000 )
                  ( -1.0000000  0.0000000  0.0000000 )
                  (  0.0000000  1.0000000  0.0000000 )


   Cartesian axes

     site n.     atom                  positions (alat units)
         1           O   tau(   1) = (   0.5000000   0.0000000   0.5000000  )
         2           O   tau(   2) = (   0.5000000   0.5000000   0.0000000  )
         3           O   tau(   3) = (   0.0000000   0.5000000   0.5000000  )
         4           Ti  tau(   4) = (   0.5000000   0.5000000   0.5000000  )
         5           Sr  tau(   5) = (   0.0000000   0.0000000   0.0000000  )

   Crystallographic axes

     site n.     atom                  positions (cryst. coord.)
         1           O   tau(   1) = (  0.5000000  0.0000000  0.5000000  )
         2           O   tau(   2) = (  0.5000000  0.5000000  0.0000000  )
         3           O   tau(   3) = (  0.0000000  0.5000000  0.5000000  )
         4           Ti  tau(   4) = (  0.5000000  0.5000000  0.5000000  )
         5           Sr  tau(   5) = (  0.0000000  0.0000000  0.0000000  )

     number of k points=   165  Marzari-Vanderbilt smearing, width (Ry)=  0.0010
                       cart. coord. in units 2pi/alat
        k(    1) = (   0.0000000   0.0000000   0.0000000), wk =   0.0004883
        k(    2) = (   0.0000000   0.0000000   0.0625000), wk =   0.0029297
        k(    3) = (   0.0000000   0.0000000   0.1250000), wk =   0.0029297
        k(    4) = (   0.0000000   0.0000000   0.1875000), wk =   0.0029297
        k(    5) = (   0.0000000   0.0000000   0.2500000), wk =   0.0029297
        k(    6) = (   0.0000000   0.0000000   0.3125000), wk =   0.0029297
        k(    7) = (   0.0000000   0.0000000   0.3750000), wk =   0.0029297
        k(    8) = (   0.0000000   0.0000000   0.4375000), wk =   0.0029297
        k(    9) = (   0.0000000   0.0000000  -0.5000000), wk =   0.0014648
        k(   10) = (   0.0000000   0.0625000   0.0625000), wk =   0.0058594
        k(   11) = (   0.0000000   0.0625000   0.1250000), wk =   0.0117188
        k(   12) = (   0.0000000   0.0625000   0.1875000), wk =   0.0117188
        k(   13) = (   0.0000000   0.0625000   0.2500000), wk =   0.0117188
        k(   14) = (   0.0000000   0.0625000   0.3125000), wk =   0.0117188
        k(   15) = (   0.0000000   0.0625000   0.3750000), wk =   0.0117188
        k(   16) = (   0.0000000   0.0625000   0.4375000), wk =   0.0117188
        k(   17) = (   0.0000000   0.0625000  -0.5000000), wk =   0.0058594
        k(   18) = (   0.0000000   0.1250000   0.1250000), wk =   0.0058594
        k(   19) = (   0.0000000   0.1250000   0.1875000), wk =   0.0117188
        k(   20) = (   0.0000000   0.1250000   0.2500000), wk =   0.0117188
        k(   21) = (   0.0000000   0.1250000   0.3125000), wk =   0.0117188
        k(   22) = (   0.0000000   0.1250000   0.3750000), wk =   0.0117188
        k(   23) = (   0.0000000   0.1250000   0.4375000), wk =   0.0117188
        k(   24) = (   0.0000000   0.1250000  -0.5000000), wk =   0.0058594
        k(   25) = (   0.0000000   0.1875000   0.1875000), wk =   0.0058594
        k(   26) = (   0.0000000   0.1875000   0.2500000), wk =   0.0117188
        k(   27) = (   0.0000000   0.1875000   0.3125000), wk =   0.0117188
        k(   28) = (   0.0000000   0.1875000   0.3750000), wk =   0.0117188
        k(   29) = (   0.0000000   0.1875000   0.4375000), wk =   0.0117188
        k(   30) = (   0.0000000   0.1875000  -0.5000000), wk =   0.0058594
        k(   31) = (   0.0000000   0.2500000   0.2500000), wk =   0.0058594
        k(   32) = (   0.0000000   0.2500000   0.3125000), wk =   0.0117188
        k(   33) = (   0.0000000   0.2500000   0.3750000), wk =   0.0117188
        k(   34) = (   0.0000000   0.2500000   0.4375000), wk =   0.0117188
        k(   35) = (   0.0000000   0.2500000  -0.5000000), wk =   0.0058594
        k(   36) = (   0.0000000   0.3125000   0.3125000), wk =   0.0058594
        k(   37) = (   0.0000000   0.3125000   0.3750000), wk =   0.0117188
        k(   38) = (   0.0000000   0.3125000   0.4375000), wk =   0.0117188
        k(   39) = (   0.0000000   0.3125000  -0.5000000), wk =   0.0058594
        k(   40) = (   0.0000000   0.3750000   0.3750000), wk =   0.0058594
        k(   41) = (   0.0000000   0.3750000   0.4375000), wk =   0.0117188
        k(   42) = (   0.0000000   0.3750000  -0.5000000), wk =   0.0058594
        k(   43) = (   0.0000000   0.4375000   0.4375000), wk =   0.0058594
        k(   44) = (   0.0000000   0.4375000  -0.5000000), wk =   0.0058594
        k(   45) = (   0.0000000  -0.5000000  -0.5000000), wk =   0.0014648
        k(   46) = (   0.0625000   0.0625000   0.0625000), wk =   0.0039062
        k(   47) = (   0.0625000   0.0625000   0.1250000), wk =   0.0117188
        k(   48) = (   0.0625000   0.0625000   0.1875000), wk =   0.0117188
        k(   49) = (   0.0625000   0.0625000   0.2500000), wk =   0.0117188
        k(   50) = (   0.0625000   0.0625000   0.3125000), wk =   0.0117188
        k(   51) = (   0.0625000   0.0625000   0.3750000), wk =   0.0117188
        k(   52) = (   0.0625000   0.0625000   0.4375000), wk =   0.0117188
        k(   53) = (   0.0625000   0.0625000  -0.5000000), wk =   0.0058594
        k(   54) = (   0.0625000   0.1250000   0.1250000), wk =   0.0117188
        k(   55) = (   0.0625000   0.1250000   0.1875000), wk =   0.0234375
        k(   56) = (   0.0625000   0.1250000   0.2500000), wk =   0.0234375
        k(   57) = (   0.0625000   0.1250000   0.3125000), wk =   0.0234375
        k(   58) = (   0.0625000   0.1250000   0.3750000), wk =   0.0234375
        k(   59) = (   0.0625000   0.1250000   0.4375000), wk =   0.0234375
        k(   60) = (   0.0625000   0.1250000  -0.5000000), wk =   0.0117188
        k(   61) = (   0.0625000   0.1875000   0.1875000), wk =   0.0117188
        k(   62) = (   0.0625000   0.1875000   0.2500000), wk =   0.0234375
        k(   63) = (   0.0625000   0.1875000   0.3125000), wk =   0.0234375
        k(   64) = (   0.0625000   0.1875000   0.3750000), wk =   0.0234375
        k(   65) = (   0.0625000   0.1875000   0.4375000), wk =   0.0234375
        k(   66) = (   0.0625000   0.1875000  -0.5000000), wk =   0.0117188
        k(   67) = (   0.0625000   0.2500000   0.2500000), wk =   0.0117188
        k(   68) = (   0.0625000   0.2500000   0.3125000), wk =   0.0234375
        k(   69) = (   0.0625000   0.2500000   0.3750000), wk =   0.0234375
        k(   70) = (   0.0625000   0.2500000   0.4375000), wk =   0.0234375
        k(   71) = (   0.0625000   0.2500000  -0.5000000), wk =   0.0117188
        k(   72) = (   0.0625000   0.3125000   0.3125000), wk =   0.0117188
        k(   73) = (   0.0625000   0.3125000   0.3750000), wk =   0.0234375
        k(   74) = (   0.0625000   0.3125000   0.4375000), wk =   0.0234375
        k(   75) = (   0.0625000   0.3125000  -0.5000000), wk =   0.0117188
        k(   76) = (   0.0625000   0.3750000   0.3750000), wk =   0.0117188
        k(   77) = (   0.0625000   0.3750000   0.4375000), wk =   0.0234375
        k(   78) = (   0.0625000   0.3750000  -0.5000000), wk =   0.0117188
        k(   79) = (   0.0625000   0.4375000   0.4375000), wk =   0.0117188
        k(   80) = (   0.0625000   0.4375000  -0.5000000), wk =   0.0117188
        k(   81) = (   0.0625000  -0.5000000  -0.5000000), wk =   0.0029297
        k(   82) = (   0.1250000   0.1250000   0.1250000), wk =   0.0039062
        k(   83) = (   0.1250000   0.1250000   0.1875000), wk =   0.0117188
        k(   84) = (   0.1250000   0.1250000   0.2500000), wk =   0.0117188
        k(   85) = (   0.1250000   0.1250000   0.3125000), wk =   0.0117188
        k(   86) = (   0.1250000   0.1250000   0.3750000), wk =   0.0117188
        k(   87) = (   0.1250000   0.1250000   0.4375000), wk =   0.0117188
        k(   88) = (   0.1250000   0.1250000  -0.5000000), wk =   0.0058594
        k(   89) = (   0.1250000   0.1875000   0.1875000), wk =   0.0117188
        k(   90) = (   0.1250000   0.1875000   0.2500000), wk =   0.0234375
        k(   91) = (   0.1250000   0.1875000   0.3125000), wk =   0.0234375
        k(   92) = (   0.1250000   0.1875000   0.3750000), wk =   0.0234375
        k(   93) = (   0.1250000   0.1875000   0.4375000), wk =   0.0234375
        k(   94) = (   0.1250000   0.1875000  -0.5000000), wk =   0.0117188
        k(   95) = (   0.1250000   0.2500000   0.2500000), wk =   0.0117188
        k(   96) = (   0.1250000   0.2500000   0.3125000), wk =   0.0234375
        k(   97) = (   0.1250000   0.2500000   0.3750000), wk =   0.0234375
        k(   98) = (   0.1250000   0.2500000   0.4375000), wk =   0.0234375
        k(   99) = (   0.1250000   0.2500000  -0.5000000), wk =   0.0117188
        k(  100) = (   0.1250000   0.3125000   0.3125000), wk =   0.0117188
        k(  101) = (   0.1250000   0.3125000   0.3750000), wk =   0.0234375
        k(  102) = (   0.1250000   0.3125000   0.4375000), wk =   0.0234375
        k(  103) = (   0.1250000   0.3125000  -0.5000000), wk =   0.0117188
        k(  104) = (   0.1250000   0.3750000   0.3750000), wk =   0.0117188
        k(  105) = (   0.1250000   0.3750000   0.4375000), wk =   0.0234375
        k(  106) = (   0.1250000   0.3750000  -0.5000000), wk =   0.0117188
        k(  107) = (   0.1250000   0.4375000   0.4375000), wk =   0.0117188
        k(  108) = (   0.1250000   0.4375000  -0.5000000), wk =   0.0117188
        k(  109) = (   0.1250000  -0.5000000  -0.5000000), wk =   0.0029297
        k(  110) = (   0.1875000   0.1875000   0.1875000), wk =   0.0039062
        k(  111) = (   0.1875000   0.1875000   0.2500000), wk =   0.0117188
        k(  112) = (   0.1875000   0.1875000   0.3125000), wk =   0.0117188
        k(  113) = (   0.1875000   0.1875000   0.3750000), wk =   0.0117188
        k(  114) = (   0.1875000   0.1875000   0.4375000), wk =   0.0117188
        k(  115) = (   0.1875000   0.1875000  -0.5000000), wk =   0.0058594
        k(  116) = (   0.1875000   0.2500000   0.2500000), wk =   0.0117188
        k(  117) = (   0.1875000   0.2500000   0.3125000), wk =   0.0234375
        k(  118) = (   0.1875000   0.2500000   0.3750000), wk =   0.0234375
        k(  119) = (   0.1875000   0.2500000   0.4375000), wk =   0.0234375
        k(  120) = (   0.1875000   0.2500000  -0.5000000), wk =   0.0117188
        k(  121) = (   0.1875000   0.3125000   0.3125000), wk =   0.0117188
        k(  122) = (   0.1875000   0.3125000   0.3750000), wk =   0.0234375
        k(  123) = (   0.1875000   0.3125000   0.4375000), wk =   0.0234375
        k(  124) = (   0.1875000   0.3125000  -0.5000000), wk =   0.0117188
        k(  125) = (   0.1875000   0.3750000   0.3750000), wk =   0.0117188
        k(  126) = (   0.1875000   0.3750000   0.4375000), wk =   0.0234375
        k(  127) = (   0.1875000   0.3750000  -0.5000000), wk =   0.0117188
        k(  128) = (   0.1875000   0.4375000   0.4375000), wk =   0.0117188
        k(  129) = (   0.1875000   0.4375000  -0.5000000), wk =   0.0117188
        k(  130) = (   0.1875000  -0.5000000  -0.5000000), wk =   0.0029297
        k(  131) = (   0.2500000   0.2500000   0.2500000), wk =   0.0039062
        k(  132) = (   0.2500000   0.2500000   0.3125000), wk =   0.0117188
        k(  133) = (   0.2500000   0.2500000   0.3750000), wk =   0.0117188
        k(  134) = (   0.2500000   0.2500000   0.4375000), wk =   0.0117188
        k(  135) = (   0.2500000   0.2500000  -0.5000000), wk =   0.0058594
        k(  136) = (   0.2500000   0.3125000   0.3125000), wk =   0.0117188
        k(  137) = (   0.2500000   0.3125000   0.3750000), wk =   0.0234375
        k(  138) = (   0.2500000   0.3125000   0.4375000), wk =   0.0234375
        k(  139) = (   0.2500000   0.3125000  -0.5000000), wk =   0.0117188
        k(  140) = (   0.2500000   0.3750000   0.3750000), wk =   0.0117188
        k(  141) = (   0.2500000   0.3750000   0.4375000), wk =   0.0234375
        k(  142) = (   0.2500000   0.3750000  -0.5000000), wk =   0.0117188
        k(  143) = (   0.2500000   0.4375000   0.4375000), wk =   0.0117188
        k(  144) = (   0.2500000   0.4375000  -0.5000000), wk =   0.0117188
        k(  145) = (   0.2500000  -0.5000000  -0.5000000), wk =   0.0029297
        k(  146) = (   0.3125000   0.3125000   0.3125000), wk =   0.0039062
        k(  147) = (   0.3125000   0.3125000   0.3750000), wk =   0.0117188
        k(  148) = (   0.3125000   0.3125000   0.4375000), wk =   0.0117188
        k(  149) = (   0.3125000   0.3125000  -0.5000000), wk =   0.0058594
        k(  150) = (   0.3125000   0.3750000   0.3750000), wk =   0.0117188
        k(  151) = (   0.3125000   0.3750000   0.4375000), wk =   0.0234375
        k(  152) = (   0.3125000   0.3750000  -0.5000000), wk =   0.0117188
        k(  153) = (   0.3125000   0.4375000   0.4375000), wk =   0.0117188
        k(  154) = (   0.3125000   0.4375000  -0.5000000), wk =   0.0117188
        k(  155) = (   0.3125000  -0.5000000  -0.5000000), wk =   0.0029297
        k(  156) = (   0.3750000   0.3750000   0.3750000), wk =   0.0039062
        k(  157) = (   0.3750000   0.3750000   0.4375000), wk =   0.0117188
        k(  158) = (   0.3750000   0.3750000  -0.5000000), wk =   0.0058594
        k(  159) = (   0.3750000   0.4375000   0.4375000), wk =   0.0117188
        k(  160) = (   0.3750000   0.4375000  -0.5000000), wk =   0.0117188
        k(  161) = (   0.3750000  -0.5000000  -0.5000000), wk =   0.0029297
        k(  162) = (   0.4375000   0.4375000   0.4375000), wk =   0.0039062
        k(  163) = (   0.4375000   0.4375000  -0.5000000), wk =   0.0058594
        k(  164) = (   0.4375000  -0.5000000  -0.5000000), wk =   0.0029297
        k(  165) = (  -0.5000000  -0.5000000  -0.5000000), wk =   0.0004883

                       cryst. coord.
        k(    1) = (   0.0000000   0.0000000   0.0000000), wk =   0.0004883
        k(    2) = (   0.0000000   0.0000000   0.0625000), wk =   0.0029297
        k(    3) = (   0.0000000   0.0000000   0.1250000), wk =   0.0029297
        k(    4) = (   0.0000000   0.0000000   0.1875000), wk =   0.0029297
        k(    5) = (   0.0000000   0.0000000   0.2500000), wk =   0.0029297
        k(    6) = (   0.0000000   0.0000000   0.3125000), wk =   0.0029297
        k(    7) = (   0.0000000   0.0000000   0.3750000), wk =   0.0029297
        k(    8) = (   0.0000000   0.0000000   0.4375000), wk =   0.0029297
        k(    9) = (   0.0000000   0.0000000  -0.5000000), wk =   0.0014648
        k(   10) = (   0.0000000   0.0625000   0.0625000), wk =   0.0058594
        k(   11) = (   0.0000000   0.0625000   0.1250000), wk =   0.0117188
        k(   12) = (   0.0000000   0.0625000   0.1875000), wk =   0.0117188
        k(   13) = (   0.0000000   0.0625000   0.2500000), wk =   0.0117188
        k(   14) = (   0.0000000   0.0625000   0.3125000), wk =   0.0117188
        k(   15) = (   0.0000000   0.0625000   0.3750000), wk =   0.0117188
        k(   16) = (   0.0000000   0.0625000   0.4375000), wk =   0.0117188
        k(   17) = (   0.0000000   0.0625000  -0.5000000), wk =   0.0058594
        k(   18) = (   0.0000000   0.1250000   0.1250000), wk =   0.0058594
        k(   19) = (   0.0000000   0.1250000   0.1875000), wk =   0.0117188
        k(   20) = (   0.0000000   0.1250000   0.2500000), wk =   0.0117188
        k(   21) = (   0.0000000   0.1250000   0.3125000), wk =   0.0117188
        k(   22) = (   0.0000000   0.1250000   0.3750000), wk =   0.0117188
        k(   23) = (   0.0000000   0.1250000   0.4375000), wk =   0.0117188
        k(   24) = (   0.0000000   0.1250000  -0.5000000), wk =   0.0058594
        k(   25) = (   0.0000000   0.1875000   0.1875000), wk =   0.0058594
        k(   26) = (   0.0000000   0.1875000   0.2500000), wk =   0.0117188
        k(   27) = (   0.0000000   0.1875000   0.3125000), wk =   0.0117188
        k(   28) = (   0.0000000   0.1875000   0.3750000), wk =   0.0117188
        k(   29) = (   0.0000000   0.1875000   0.4375000), wk =   0.0117188
        k(   30) = (   0.0000000   0.1875000  -0.5000000), wk =   0.0058594
        k(   31) = (   0.0000000   0.2500000   0.2500000), wk =   0.0058594
        k(   32) = (   0.0000000   0.2500000   0.3125000), wk =   0.0117188
        k(   33) = (   0.0000000   0.2500000   0.3750000), wk =   0.0117188
        k(   34) = (   0.0000000   0.2500000   0.4375000), wk =   0.0117188
        k(   35) = (   0.0000000   0.2500000  -0.5000000), wk =   0.0058594
        k(   36) = (   0.0000000   0.3125000   0.3125000), wk =   0.0058594
        k(   37) = (   0.0000000   0.3125000   0.3750000), wk =   0.0117188
        k(   38) = (   0.0000000   0.3125000   0.4375000), wk =   0.0117188
        k(   39) = (   0.0000000   0.3125000  -0.5000000), wk =   0.0058594
        k(   40) = (   0.0000000   0.3750000   0.3750000), wk =   0.0058594
        k(   41) = (   0.0000000   0.3750000   0.4375000), wk =   0.0117188
        k(   42) = (   0.0000000   0.3750000  -0.5000000), wk =   0.0058594
        k(   43) = (   0.0000000   0.4375000   0.4375000), wk =   0.0058594
        k(   44) = (   0.0000000   0.4375000  -0.5000000), wk =   0.0058594
        k(   45) = (   0.0000000  -0.5000000  -0.5000000), wk =   0.0014648
        k(   46) = (   0.0625000   0.0625000   0.0625000), wk =   0.0039062
        k(   47) = (   0.0625000   0.0625000   0.1250000), wk =   0.0117188
        k(   48) = (   0.0625000   0.0625000   0.1875000), wk =   0.0117188
        k(   49) = (   0.0625000   0.0625000   0.2500000), wk =   0.0117188
        k(   50) = (   0.0625000   0.0625000   0.3125000), wk =   0.0117188
        k(   51) = (   0.0625000   0.0625000   0.3750000), wk =   0.0117188
        k(   52) = (   0.0625000   0.0625000   0.4375000), wk =   0.0117188
        k(   53) = (   0.0625000   0.0625000  -0.5000000), wk =   0.0058594
        k(   54) = (   0.0625000   0.1250000   0.1250000), wk =   0.0117188
        k(   55) = (   0.0625000   0.1250000   0.1875000), wk =   0.0234375
        k(   56) = (   0.0625000   0.1250000   0.2500000), wk =   0.0234375
        k(   57) = (   0.0625000   0.1250000   0.3125000), wk =   0.0234375
        k(   58) = (   0.0625000   0.1250000   0.3750000), wk =   0.0234375
        k(   59) = (   0.0625000   0.1250000   0.4375000), wk =   0.0234375
        k(   60) = (   0.0625000   0.1250000  -0.5000000), wk =   0.0117188
        k(   61) = (   0.0625000   0.1875000   0.1875000), wk =   0.0117188
        k(   62) = (   0.0625000   0.1875000   0.2500000), wk =   0.0234375
        k(   63) = (   0.0625000   0.1875000   0.3125000), wk =   0.0234375
        k(   64) = (   0.0625000   0.1875000   0.3750000), wk =   0.0234375
        k(   65) = (   0.0625000   0.1875000   0.4375000), wk =   0.0234375
        k(   66) = (   0.0625000   0.1875000  -0.5000000), wk =   0.0117188
        k(   67) = (   0.0625000   0.2500000   0.2500000), wk =   0.0117188
        k(   68) = (   0.0625000   0.2500000   0.3125000), wk =   0.0234375
        k(   69) = (   0.0625000   0.2500000   0.3750000), wk =   0.0234375
        k(   70) = (   0.0625000   0.2500000   0.4375000), wk =   0.0234375
        k(   71) = (   0.0625000   0.2500000  -0.5000000), wk =   0.0117188
        k(   72) = (   0.0625000   0.3125000   0.3125000), wk =   0.0117188
        k(   73) = (   0.0625000   0.3125000   0.3750000), wk =   0.0234375
        k(   74) = (   0.0625000   0.3125000   0.4375000), wk =   0.0234375
        k(   75) = (   0.0625000   0.3125000  -0.5000000), wk =   0.0117188
        k(   76) = (   0.0625000   0.3750000   0.3750000), wk =   0.0117188
        k(   77) = (   0.0625000   0.3750000   0.4375000), wk =   0.0234375
        k(   78) = (   0.0625000   0.3750000  -0.5000000), wk =   0.0117188
        k(   79) = (   0.0625000   0.4375000   0.4375000), wk =   0.0117188
        k(   80) = (   0.0625000   0.4375000  -0.5000000), wk =   0.0117188
        k(   81) = (   0.0625000  -0.5000000  -0.5000000), wk =   0.0029297
        k(   82) = (   0.1250000   0.1250000   0.1250000), wk =   0.0039062
        k(   83) = (   0.1250000   0.1250000   0.1875000), wk =   0.0117188
        k(   84) = (   0.1250000   0.1250000   0.2500000), wk =   0.0117188
        k(   85) = (   0.1250000   0.1250000   0.3125000), wk =   0.0117188
        k(   86) = (   0.1250000   0.1250000   0.3750000), wk =   0.0117188
        k(   87) = (   0.1250000   0.1250000   0.4375000), wk =   0.0117188
        k(   88) = (   0.1250000   0.1250000  -0.5000000), wk =   0.0058594
        k(   89) = (   0.1250000   0.1875000   0.1875000), wk =   0.0117188
        k(   90) = (   0.1250000   0.1875000   0.2500000), wk =   0.0234375
        k(   91) = (   0.1250000   0.1875000   0.3125000), wk =   0.0234375
        k(   92) = (   0.1250000   0.1875000   0.3750000), wk =   0.0234375
        k(   93) = (   0.1250000   0.1875000   0.4375000), wk =   0.0234375
        k(   94) = (   0.1250000   0.1875000  -0.5000000), wk =   0.0117188
        k(   95) = (   0.1250000   0.2500000   0.2500000), wk =   0.0117188
        k(   96) = (   0.1250000   0.2500000   0.3125000), wk =   0.0234375
        k(   97) = (   0.1250000   0.2500000   0.3750000), wk =   0.0234375
        k(   98) = (   0.1250000   0.2500000   0.4375000), wk =   0.0234375
        k(   99) = (   0.1250000   0.2500000  -0.5000000), wk =   0.0117188
        k(  100) = (   0.1250000   0.3125000   0.3125000), wk =   0.0117188
        k(  101) = (   0.1250000   0.3125000   0.3750000), wk =   0.0234375
        k(  102) = (   0.1250000   0.3125000   0.4375000), wk =   0.0234375
        k(  103) = (   0.1250000   0.3125000  -0.5000000), wk =   0.0117188
        k(  104) = (   0.1250000   0.3750000   0.3750000), wk =   0.0117188
        k(  105) = (   0.1250000   0.3750000   0.4375000), wk =   0.0234375
        k(  106) = (   0.1250000   0.3750000  -0.5000000), wk =   0.0117188
        k(  107) = (   0.1250000   0.4375000   0.4375000), wk =   0.0117188
        k(  108) = (   0.1250000   0.4375000  -0.5000000), wk =   0.0117188
        k(  109) = (   0.1250000  -0.5000000  -0.5000000), wk =   0.0029297
        k(  110) = (   0.1875000   0.1875000   0.1875000), wk =   0.0039062
        k(  111) = (   0.1875000   0.1875000   0.2500000), wk =   0.0117188
        k(  112) = (   0.1875000   0.1875000   0.3125000), wk =   0.0117188
        k(  113) = (   0.1875000   0.1875000   0.3750000), wk =   0.0117188
        k(  114) = (   0.1875000   0.1875000   0.4375000), wk =   0.0117188
        k(  115) = (   0.1875000   0.1875000  -0.5000000), wk =   0.0058594
        k(  116) = (   0.1875000   0.2500000   0.2500000), wk =   0.0117188
        k(  117) = (   0.1875000   0.2500000   0.3125000), wk =   0.0234375
        k(  118) = (   0.1875000   0.2500000   0.3750000), wk =   0.0234375
        k(  119) = (   0.1875000   0.2500000   0.4375000), wk =   0.0234375
        k(  120) = (   0.1875000   0.2500000  -0.5000000), wk =   0.0117188
        k(  121) = (   0.1875000   0.3125000   0.3125000), wk =   0.0117188
        k(  122) = (   0.1875000   0.3125000   0.3750000), wk =   0.0234375
        k(  123) = (   0.1875000   0.3125000   0.4375000), wk =   0.0234375
        k(  124) = (   0.1875000   0.3125000  -0.5000000), wk =   0.0117188
        k(  125) = (   0.1875000   0.3750000   0.3750000), wk =   0.0117188
        k(  126) = (   0.1875000   0.3750000   0.4375000), wk =   0.0234375
        k(  127) = (   0.1875000   0.3750000  -0.5000000), wk =   0.0117188
        k(  128) = (   0.1875000   0.4375000   0.4375000), wk =   0.0117188
        k(  129) = (   0.1875000   0.4375000  -0.5000000), wk =   0.0117188
        k(  130) = (   0.1875000  -0.5000000  -0.5000000), wk =   0.0029297
        k(  131) = (   0.2500000   0.2500000   0.2500000), wk =   0.0039062
        k(  132) = (   0.2500000   0.2500000   0.3125000), wk =   0.0117188
        k(  133) = (   0.2500000   0.2500000   0.3750000), wk =   0.0117188
        k(  134) = (   0.2500000   0.2500000   0.4375000), wk =   0.0117188
        k(  135) = (   0.2500000   0.2500000  -0.5000000), wk =   0.0058594
        k(  136) = (   0.2500000   0.3125000   0.3125000), wk =   0.0117188
        k(  137) = (   0.2500000   0.3125000   0.3750000), wk =   0.0234375
        k(  138) = (   0.2500000   0.3125000   0.4375000), wk =   0.0234375
        k(  139) = (   0.2500000   0.3125000  -0.5000000), wk =   0.0117188
        k(  140) = (   0.2500000   0.3750000   0.3750000), wk =   0.0117188
        k(  141) = (   0.2500000   0.3750000   0.4375000), wk =   0.0234375
        k(  142) = (   0.2500000   0.3750000  -0.5000000), wk =   0.0117188
        k(  143) = (   0.2500000   0.4375000   0.4375000), wk =   0.0117188
        k(  144) = (   0.2500000   0.4375000  -0.5000000), wk =   0.0117188
        k(  145) = (   0.2500000  -0.5000000  -0.5000000), wk =   0.0029297
        k(  146) = (   0.3125000   0.3125000   0.3125000), wk =   0.0039062
        k(  147) = (   0.3125000   0.3125000   0.3750000), wk =   0.0117188
        k(  148) = (   0.3125000   0.3125000   0.4375000), wk =   0.0117188
        k(  149) = (   0.3125000   0.3125000  -0.5000000), wk =   0.0058594
        k(  150) = (   0.3125000   0.3750000   0.3750000), wk =   0.0117188
        k(  151) = (   0.3125000   0.3750000   0.4375000), wk =   0.0234375
        k(  152) = (   0.3125000   0.3750000  -0.5000000), wk =   0.0117188
        k(  153) = (   0.3125000   0.4375000   0.4375000), wk =   0.0117188
        k(  154) = (   0.3125000   0.4375000  -0.5000000), wk =   0.0117188
        k(  155) = (   0.3125000  -0.5000000  -0.5000000), wk =   0.0029297
        k(  156) = (   0.3750000   0.3750000   0.3750000), wk =   0.0039062
        k(  157) = (   0.3750000   0.3750000   0.4375000), wk =   0.0117188
        k(  158) = (   0.3750000   0.3750000  -0.5000000), wk =   0.0058594
        k(  159) = (   0.3750000   0.4375000   0.4375000), wk =   0.0117188
        k(  160) = (   0.3750000   0.4375000  -0.5000000), wk =   0.0117188
        k(  161) = (   0.3750000  -0.5000000  -0.5000000), wk =   0.0029297
        k(  162) = (   0.4375000   0.4375000   0.4375000), wk =   0.0039062
        k(  163) = (   0.4375000   0.4375000  -0.5000000), wk =   0.0058594
        k(  164) = (   0.4375000  -0.5000000  -0.5000000), wk =   0.0029297
        k(  165) = (  -0.5000000  -0.5000000  -0.5000000), wk =   0.0004883

     Dense  grid:    27201 G-vectors     FFT dimensions: (  40,  40,  40)

     Dynamical RAM for                 wfc:       0.06 MB

     Dynamical RAM for     wfc (w. buffer):      10.27 MB

     Dynamical RAM for           str. fact:       0.06 MB

     Dynamical RAM for           local pot:       0.00 MB

     Dynamical RAM for          nlocal pot:       0.19 MB

     Dynamical RAM for                qrad:       4.49 MB

     Dynamical RAM for          rho,v,vnew:       0.14 MB

     Dynamical RAM for               rhoin:       0.05 MB

     Dynamical RAM for            rho*nmix:       0.33 MB

     Dynamical RAM for           G-vectors:       0.09 MB

     Dynamical RAM for          h,s,v(r/c):       0.05 MB

     Dynamical RAM for          <psi|beta>:       0.03 MB

     Dynamical RAM for                 psi:       0.25 MB

     Dynamical RAM for                hpsi:       0.25 MB

     Dynamical RAM for                spsi:       0.25 MB

     Dynamical RAM for      wfcinit/wfcrot:       0.21 MB

     Dynamical RAM for           addusdens:       3.93 MB

     Estimated static dynamical RAM per process >      15.83 MB

     Estimated max dynamical RAM per process >      19.76 MB

     Estimated total dynamical RAM >     395.14 MB

     Check: negative/imaginary core charge=   -0.000004    0.000000

     Initial potential from superposition of free atoms
     Check: negative starting charge=   -0.062073

     starting charge   38.96630, renormalised to   40.00000

     negative rho (up, down):  6.372E-02 0.000E+00
     Starting wfcs are   35 randomized atomic wfcs

     total cpu time spent up to now is        1.8 secs

     Self-consistent Calculation

     iteration #  1     ecut=    50.00 Ry     beta= 0.70
     Davidson diagonalization with overlap
     ethr =  1.00E-02,  avg # of iterations =  1.9

     negative rho (up, down):  6.194E-02 0.000E+00

     total cpu time spent up to now is        5.0 secs

     total energy              =    -286.20059231 Ry
     Harris-Foulkes estimate   =    -287.09859498 Ry
     estimated scf accuracy    <       1.12575733 Ry

     iteration #  2     ecut=    50.00 Ry     beta= 0.70
     Davidson diagonalization with overlap
     ethr =  2.81E-03,  avg # of iterations =  4.0

     negative rho (up, down):  6.151E-02 0.000E+00

     total cpu time spent up to now is       11.7 secs

     total energy              =    -283.49109741 Ry
     Harris-Foulkes estimate   =    -289.66421747 Ry
     estimated scf accuracy    <      39.23293261 Ry

     iteration #  3     ecut=    50.00 Ry     beta= 0.70
     Davidson diagonalization with overlap
     ethr =  2.81E-03,  avg # of iterations =  4.2

     negative rho (up, down):  6.287E-02 0.000E+00

     total cpu time spent up to now is       18.2 secs

     total energy              =    -286.80684635 Ry
     Harris-Foulkes estimate   =    -286.95750467 Ry
     estimated scf accuracy    <       0.45598715 Ry

     iteration #  4     ecut=    50.00 Ry     beta= 0.70
     Davidson diagonalization with overlap
     ethr =  1.14E-03,  avg # of iterations =  2.3

     negative rho (up, down):  6.384E-02 0.000E+00

     total cpu time spent up to now is       22.2 secs

     total energy              =    -286.82315553 Ry
     Harris-Foulkes estimate   =    -286.85676911 Ry
     estimated scf accuracy    <       0.20991862 Ry

     iteration #  5     ecut=    50.00 Ry     beta= 0.70
     Davidson diagonalization with overlap
     ethr =  5.25E-04,  avg # of iterations =  1.9

     negative rho (up, down):  6.391E-02 0.000E+00

     total cpu time spent up to now is       25.6 secs

     total energy              =    -286.82233435 Ry
     Harris-Foulkes estimate   =    -286.83247800 Ry
     estimated scf accuracy    <       0.05468804 Ry

     iteration #  6     ecut=    50.00 Ry     beta= 0.70
     Davidson diagonalization with overlap
     ethr =  1.37E-04,  avg # of iterations =  2.3

     negative rho (up, down):  6.395E-02 0.000E+00

     total cpu time spent up to now is       29.3 secs

     total energy              =    -286.82432453 Ry
     Harris-Foulkes estimate   =    -286.82590675 Ry
     estimated scf accuracy    <       0.00807128 Ry

     iteration #  7     ecut=    50.00 Ry     beta= 0.70
     Davidson diagonalization with overlap
     ethr =  2.02E-05,  avg # of iterations =  2.9

     negative rho (up, down):  6.401E-02 0.000E+00

     total cpu time spent up to now is       33.5 secs

     total energy              =    -286.82429242 Ry
     Harris-Foulkes estimate   =    -286.82484827 Ry
     estimated scf accuracy    <       0.00147015 Ry

     iteration #  8     ecut=    50.00 Ry     beta= 0.70
     Davidson diagonalization with overlap
     ethr =  3.68E-06,  avg # of iterations =  3.2

     negative rho (up, down):  6.403E-02 0.000E+00

     total cpu time spent up to now is       38.6 secs

     total energy              =    -286.82471485 Ry
     Harris-Foulkes estimate   =    -286.82476576 Ry
     estimated scf accuracy    <       0.00028340 Ry

     iteration #  9     ecut=    50.00 Ry     beta= 0.70
     Davidson diagonalization with overlap
     ethr =  7.09E-07,  avg # of iterations =  1.7

     negative rho (up, down):  6.404E-02 0.000E+00

     total cpu time spent up to now is       41.9 secs

     total energy              =    -286.82470043 Ry
     Harris-Foulkes estimate   =    -286.82472633 Ry
     estimated scf accuracy    <       0.00012272 Ry

     iteration # 10     ecut=    50.00 Ry     beta= 0.70
     Davidson diagonalization with overlap
     ethr =  3.07E-07,  avg # of iterations =  2.3

     negative rho (up, down):  6.405E-02 0.000E+00

     total cpu time spent up to now is       45.6 secs

     total energy              =    -286.82476213 Ry
     Harris-Foulkes estimate   =    -286.82476628 Ry
     estimated scf accuracy    <       0.00001100 Ry

     iteration # 11     ecut=    50.00 Ry     beta= 0.70
     Davidson diagonalization with overlap
     ethr =  2.75E-08,  avg # of iterations =  3.0

     negative rho (up, down):  6.404E-02 0.000E+00

     total cpu time spent up to now is       50.3 secs

     total energy              =    -286.82476462 Ry
     Harris-Foulkes estimate   =    -286.82476471 Ry
     estimated scf accuracy    <       0.00000030 Ry

     iteration # 12     ecut=    50.00 Ry     beta= 0.70
     Davidson diagonalization with overlap
     ethr =  7.41E-10,  avg # of iterations =  2.5

     negative rho (up, down):  6.405E-02 0.000E+00

     total cpu time spent up to now is       54.6 secs

     total energy              =    -286.82476467 Ry
     Harris-Foulkes estimate   =    -286.82476468 Ry
     estimated scf accuracy    <       0.00000003 Ry

     iteration # 13     ecut=    50.00 Ry     beta= 0.70
     Davidson diagonalization with overlap
     ethr =  6.47E-11,  avg # of iterations =  2.6

     negative rho (up, down):  6.404E-02 0.000E+00

     total cpu time spent up to now is       58.7 secs

     total energy              =    -286.82476467 Ry
     Harris-Foulkes estimate   =    -286.82476467 Ry
     estimated scf accuracy    <       0.00000001 Ry

     iteration # 14     ecut=    50.00 Ry     beta= 0.70
     Davidson diagonalization with overlap
     ethr =  2.54E-11,  avg # of iterations =  2.1

     negative rho (up, down):  6.404E-02 0.000E+00

     total cpu time spent up to now is       62.6 secs

     End of self-consistent calculation

          k = 0.0000 0.0000 0.0000 (  3407 PWs)   bands (ev):

   -51.7661 -28.0709 -27.8769 -27.8769 -27.8769 -10.3301  -9.9747  -9.9747
    -9.9747  -9.7052  -9.7052   3.5414   3.5414   3.5414   5.2025   5.2025
     5.2025   5.4967   5.4967   5.4967   7.1038   7.1038   7.1038   8.2061

     occupation numbers 
     1.0000   1.0000   1.0000   1.0000   1.0000   1.0000   1.0000   1.0000
     1.0000   1.0000   1.0000   1.0000   1.0000   1.0000   1.0000   1.0000
     1.0000   1.0000   1.0000   1.0000   0.0000   0.0000   0.0000   0.0000

          k = 0.0000 0.0000 0.0625 (  3399 PWs)   bands (ev):

   -51.7661 -28.0709 -27.8772 -27.8768 -27.8768 -10.3457  -9.9743  -9.9743
    -9.9683  -9.7047  -9.6881   3.5060   3.5447   3.5447   5.1680   5.1680
     5.1838   5.4015   5.4769   5.4769   7.1061   7.1594   7.1594   8.2064

     occupation numbers 
     1.0000   1.0000   1.0000   1.0000   1.0000   1.0000   1.0000   1.0000
     1.0000   1.0000   1.0000   1.0000   1.0000   1.0000   1.0000   1.0000
     1.0000   1.0000   1.0000   1.0000   0.0000   0.0000   0.0000   0.0000

          k = 0.0000 0.0000 0.1250 (  3379 PWs)   bands (ev):

   -51.7661 -28.0708 -27.8781 -27.8768 -27.8768 -10.3877  -9.9732  -9.9732
    -9.9465  -9.7034  -9.6455   3.4050   3.5547   3.5547   5.0660   5.0660
     5.1316   5.1656   5.4362   5.4362   7.1125   7.3051   7.3051   8.2072

     occupation numbers 
     1.0000   1.0000   1.0000   1.0000   1.0000   1.0000   1.0000   1.0000
     1.0000   1.0000   1.0000   1.0000   1.0000   1.0000   1.0000   1.0000
     1.0000   1.0000   1.0000   1.0000   0.0000   0.0000   0.0000   0.0000

          k = 0.0000 0.0000 0.1875 (  3399 PWs)   bands (ev):

   -51.7660 -28.0707 -27.8795 -27.8767 -27.8767 -10.4447  -9.9715  -9.9715
    -9.9080  -9.7013  -9.5931   3.2533   3.5717   3.5717   4.8791   4.9151
     4.9151   5.0561   5.3966   5.3966   7.1222   7.4990   7.4990   8.7793

     occupation numbers 
     1.0000   1.0000   1.0000   1.0000   1.0000   1.0000   1.0000   1.0000
     1.0000   1.0000   1.0000   1.0000   1.0000   1.0000   1.0000   1.0000
     1.0000   1.0000   1.0000   1.0000   0.0000   0.0000   0.0000   0.0000

          k = 0.0000 0.0000 0.2500 (  3415 PWs)   bands (ev):

   -51.7660 -28.0706 -27.8812 -27.8766 -27.8766 -10.5050  -9.9696  -9.9696
    -9.8570  -9.6988  -9.5435   3.0735   3.5961   3.5961   4.6063   4.7462
     4.7462   4.9710   5.3623   5.3623   7.1336   7.7037   7.7037   9.0330

     occupation numbers 
     1.0000   1.0000   1.0000   1.0000   1.0000   1.0000   1.0000   1.0000
     1.0000   1.0000   1.0000   1.0000   1.0000   1.0000   1.0000   1.0000
     1.0000   1.0000   1.0000   1.0000   0.0000   0.0000   0.0000   0.0000

          k = 0.0000 0.0000 0.3125 (  3407 PWs)   bands (ev):

   -51.7660 -28.0706 -27.8828 -27.8766 -27.8766 -10.5595  -9.9676  -9.9676
    -9.8011  -9.6964  -9.5041   2.8931   3.6273   3.6273   4.3809   4.5842
     4.5842   4.8896   5.3334   5.3334   7.1452   7.8911   7.8911   8.2104

     occupation numbers 
     1.0000   1.0000   1.0000   1.0000   1.0000   1.0000   1.0000   1.0000
     1.0000   1.0000   1.0000   1.0000   1.0000   1.0000   1.0000   1.0000
     1.0000   1.0000   1.0000   1.0000   0.0000   0.0000   0.0000   0.0000

          k = 0.0000 0.0000 0.3750 (  3414 PWs)   bands (ev):

   -51.7660 -28.0705 -27.8842 -27.8765 -27.8765 -10.6022  -9.9659  -9.9659
    -9.7495  -9.6943  -9.4780   2.7401   3.6618   3.6618   4.2165   4.4474
     4.4474   4.8233   5.3111   5.3111   7.1550   8.0405   8.0405   8.2113

     occupation numbers 
     1.0000   1.0000   1.0000   1.0000   1.0000   1.0000   1.0000   1.0000
     1.0000   1.0000   1.0000   1.0000   1.0000   1.0000   1.0000   1.0000
     1.0000   1.0000   1.0000   1.0000   0.0000   0.0000   0.0000   0.0000

          k = 0.0000 0.0000 0.4375 (  3402 PWs)   bands (ev):

   -51.7660 -28.0705 -27.8851 -27.8764 -27.8764 -10.6293  -9.9648  -9.9648
    -9.7123  -9.6929  -9.4646   2.6381   3.6919   3.6919   4.1174   4.3530
     4.3530   4.7802   5.2970   5.2970   7.1617   8.1365   8.1365   8.2118

     occupation numbers 
     1.0000   1.0000   1.0000   1.0000   1.0000   1.0000   1.0000   1.0000
     1.0000   1.0000   1.0000   1.0000   1.0000   1.0000   1.0000   1.0000
     1.0000   1.0000   1.0000   1.0000   0.0000   0.0000   0.0000   0.0000

          k = 0.0000 0.0000-0.5000 (  3394 PWs)   bands (ev):

   -51.7660 -28.0705 -27.8854 -27.8764 -27.8764 -10.6385  -9.9645  -9.9645
    -9.6985  -9.6924  -9.4608   2.6024   3.7044   3.7044   4.0844   4.3185
     4.3185   4.7653   5.2921   5.2921   7.1640   8.1696   8.1696   8.2120

     occupation numbers 
     1.0000   1.0000   1.0000   1.0000   1.0000   1.0000   1.0000   1.0000
     1.0000   1.0000   1.0000   1.0000   1.0000   1.0000   1.0000   1.0000
     1.0000   1.0000   1.0000   1.0000   0.0000   0.0000   0.0000   0.0000

          k = 0.0000 0.0625 0.0625 (  3387 PWs)   bands (ev):

   -51.7661 -28.0709 -27.8773 -27.8771 -27.8768 -10.3580  -9.9996  -9.9739
    -9.9381  -9.6961  -9.6806   3.4885   3.5297   3.5480   5.0900   5.1372
     5.2052   5.3510   5.4269   5.4536   7.1540   7.1688   7.2073   8.2509

     occupation numbers 
     1.0000   1.0000   1.0000   1.0000   1.0000   1.0000   1.0000   1.0000
     1.0000   1.0000   1.0000   1.0000   1.0000   1.0000   1.0000   1.0000
     1.0000   1.0000   1.0000   1.0000   0.0000   0.0000   0.0000   0.0000

          k = 0.0000 0.0625 0.1250 (  3383 PWs)   bands (ev):

   -51.7661 -28.0708 -27.8782 -27.8771 -27.8768 -10.3932 -10.0151  -9.9728
    -9.9039  -9.6928  -9.6429   3.3960   3.5303   3.5582   4.9410   5.0436
     5.1476   5.2022   5.3770   5.4054   7.1660   7.3078   7.3374   8.2682

     occupation numbers 
     1.0000   1.0000   1.0000   1.0000   1.0000   1.0000   1.0000   1.0000
     1.0000   1.0000   1.0000   1.0000   1.0000   1.0000   1.0000   1.0000
     1.0000   1.0000   1.0000   1.0000   0.0000   0.0000   0.0000   0.0000

          k = 0.0000 0.0625 0.1875 (  3391 PWs)   bands (ev):

   -51.7660 -28.0707 -27.8796 -27.8771 -27.8767 -10.4443 -10.0168  -9.9711
    -9.8652  -9.6923  -9.5923   3.2470   3.5430   3.5756   4.7255   4.8997
     4.9397   5.1411   5.3366   5.3596   7.1751   7.5007   7.5176   8.2721

     occupation numbers 
     1.0000   1.0000   1.0000   1.0000   1.0000   1.0000   1.0000   1.0000
     1.0000   1.0000   1.0000   1.0000   1.0000   1.0000   1.0000   1.0000
     1.0000   1.0000   1.0000   1.0000   0.0000   0.0000   0.0000   0.0000

          k = 0.0000 0.0625 0.2500 (  3405 PWs)   bands (ev):

   -51.7660 -28.0705 -27.8812 -27.8770 -27.8766 -10.5005 -10.0107  -9.9692
    -9.8195  -9.6921  -9.5437   3.0689   3.5629   3.6004   4.4801   4.7349
     4.7583   5.0649   5.3031   5.3217   7.1858   7.7046   7.7133   8.2742

     occupation numbers 
     1.0000   1.0000   1.0000   1.0000   1.0000   1.0000   1.0000   1.0000
     1.0000   1.0000   1.0000   1.0000   1.0000   1.0000   1.0000   1.0000
     1.0000   1.0000   1.0000   1.0000   0.0000   0.0000   0.0000   0.0000

          k = 0.0000 0.0625 0.3125 (  3411 PWs)   bands (ev):

   -51.7660 -28.0704 -27.8829 -27.8770 -27.8765 -10.5526 -10.0027  -9.9672
    -9.7695  -9.6921  -9.5050   2.8895   3.5895   3.6321   4.2589   4.5751
     4.6080   4.9861   5.2757   5.2910   7.1965   7.8916   7.8959   8.2754

     occupation numbers 
     1.0000   1.0000   1.0000   1.0000   1.0000   1.0000   1.0000   1.0000
     1.0000   1.0000   1.0000   1.0000   1.0000   1.0000   1.0000   1.0000
     1.0000   1.0000   1.0000   1.0000   0.0000   0.0000   0.0000   0.0000

          k = 0.0000 0.0625 0.3750 (  3414 PWs)   bands (ev):

   -51.7660 -28.0703 -27.8843 -27.8769 -27.8765 -10.5940  -9.9957  -9.9655
    -9.7223  -9.6921  -9.4795   2.7371   3.6216   3.6673   4.0866   4.4392
     4.4917   4.9196   5.2547   5.2677   7.2057   8.0406   8.0434   8.2758

     occupation numbers 
     1.0000   1.0000   1.0000   1.0000   1.0000   1.0000   1.0000   1.0000
     1.0000   1.0000   1.0000   1.0000   1.0000   1.0000   1.0000   1.0000
     1.0000   1.0000   1.0000   1.0000   0.0000   0.0000   0.0000   0.0000

          k = 0.0000 0.0625 0.4375 (  3415 PWs)   bands (ev):

   -51.7660 -28.0702 -27.8852 -27.8769 -27.8764 -10.6203  -9.9913  -9.9644
    -9.6929  -9.6868  -9.4665   2.6353   3.6537   3.6980   3.9723   4.3449
     4.4169   4.8757   5.2413   5.2531   7.2118   8.1364   8.1397   8.2752

     occupation numbers 
     1.0000   1.0000   1.0000   1.0000   1.0000   1.0000   1.0000   1.0000
     1.0000   1.0000   1.0000   1.0000   1.0000   1.0000   1.0000   1.0000
     1.0000   1.0000   1.0000   1.0000   0.0000   0.0000   0.0000   0.0000

          k = 0.0000 0.0625-0.5000 (  3408 PWs)   bands (ev):

   -51.7659 -28.0702 -27.8855 -27.8769 -27.8764 -10.6293  -9.9897  -9.9640
    -9.6925  -9.6743  -9.4629   2.5996   3.6695   3.7109   3.9296   4.3103
     4.3910   4.8604   5.2368   5.2480   7.2140   8.1695   8.1736   8.2744

     occupation numbers 
     1.0000   1.0000   1.0000   1.0000   1.0000   1.0000   1.0000   1.0000
     1.0000   1.0000   1.0000   1.0000   1.0000   1.0000   1.0000   1.0000
     1.0000   1.0000   1.0000   1.0000   0.0000   0.0000   0.0000   0.0000

          k = 0.0000 0.1250 0.1250 (  3385 PWs)   bands (ev):

   -51.7660 -28.0706 -27.8785 -27.8778 -27.8767 -10.4119 -10.0556  -9.9717
    -9.8554  -9.6755  -9.6258   3.3456   3.4861   3.5689   4.7362   4.9718
     5.0956   5.1853   5.3064   5.3369   7.2885   7.3331   7.4332   8.3559

     occupation numbers 
     1.0000   1.0000   1.0000   1.0000   1.0000   1.0000   1.0000   1.0000
     1.0000   1.0000   1.0000   1.0000   1.0000   1.0000   1.0000   1.0000
     1.0000   1.0000   1.0000   1.0000   0.0000   0.0000   0.0000   0.0000

          k = 0.0000 0.1250 0.1875 (  3396 PWs)   bands (ev):

   -51.7660 -28.0704 -27.8797 -27.8780 -27.8767 -10.4454 -10.0760  -9.9700
    -9.8092  -9.6718  -9.5859   3.2207   3.4700   3.5872   4.4949   4.8506
     4.9345   5.1598   5.2701   5.2804   7.3135   7.5065   7.5796   8.3929

     occupation numbers 
     1.0000   1.0000   1.0000   1.0000   1.0000   1.0000   1.0000   1.0000
     1.0000   1.0000   1.0000   1.0000   1.0000   1.0000   1.0000   1.0000
     1.0000   1.0000   1.0000   1.0000   0.0000   0.0000   0.0000   0.0000

          k = 0.0000 0.1250 0.2500 (  3401 PWs)   bands (ev):

   -51.7660 -28.0702 -27.8814 -27.8780 -27.8766 -10.4889 -10.0780  -9.9680
    -9.7622  -9.6749  -9.5415   3.0523   3.4733   3.6133   4.2490   4.7003
     4.7705   5.1429   5.2188   5.2369   7.3233   7.7075   7.7510   8.4076

     occupation numbers 
     1.0000   1.0000   1.0000   1.0000   1.0000   1.0000   1.0000   1.0000
     1.0000   1.0000   1.0000   1.0000   1.0000   1.0000   1.0000   1.0000
     1.0000   1.0000   1.0000   1.0000   0.0000   0.0000   0.0000   0.0000

          k = 0.0000 0.1250 0.3125 (  3398 PWs)   bands (ev):

   -51.7660 -28.0699 -27.8831 -27.8781 -27.8765 -10.5331 -10.0695  -9.9661
    -9.7164  -9.6781  -9.5052   2.8775   3.4866   3.6466   4.0308   4.5481
     4.6378   5.1254   5.1806   5.1834   7.3324   7.8929   7.9196   8.4144

     occupation numbers 
     1.0000   1.0000   1.0000   1.0000   1.0000   1.0000   1.0000   1.0000
     1.0000   1.0000   1.0000   1.0000   1.0000   1.0000   1.0000   1.0000
     1.0000   1.0000   1.0000   1.0000   0.0000   0.0000   0.0000   0.0000

          k = 0.0000 0.1250 0.3750 (  3392 PWs)   bands (ev):

   -51.7660 -28.0697 -27.8845 -27.8781 -27.8764 -10.5699 -10.0583  -9.9644
    -9.6937  -9.6620  -9.4813   2.7271   3.5091   3.6839   3.8572   4.4156
     4.5413   5.1064   5.1371   5.1532   7.3401   8.0410   8.0606   8.4170

     occupation numbers 
     1.0000   1.0000   1.0000   1.0000   1.0000   1.0000   1.0000   1.0000
     1.0000   1.0000   1.0000   1.0000   1.0000   1.0000   1.0000   1.0000
     1.0000   1.0000   1.0000   1.0000   0.0000   0.0000   0.0000   0.0000

          k = 0.0000 0.1250 0.4375 (  3397 PWs)   bands (ev):

   -51.7659 -28.0696 -27.8854 -27.8781 -27.8764 -10.5939 -10.0497  -9.9633
    -9.6947  -9.6323  -9.4697   2.6259   3.5411   3.7168   3.7339   4.3220
     4.4826   5.0846   5.1136   5.1366   7.3452   8.1363   8.1547   8.4169

     occupation numbers 
     1.0000   1.0000   1.0000   1.0000   1.0000   1.0000   1.0000   1.0000
     1.0000   1.0000   1.0000   1.0000   1.0000   1.0000   1.0000   1.0000
     1.0000   1.0000   1.0000   1.0000   0.0000   0.0000   0.0000   0.0000

          k = 0.0000 0.1250-0.5000 (  3396 PWs)   bands (ev):

   -51.7659 -28.0696 -27.8858 -27.8781 -27.8764 -10.6022 -10.0465  -9.9629
    -9.6957  -9.6204  -9.4666   2.5904   3.5657   3.6789   3.7307   4.2872
     4.4630   5.0743   5.1078   5.1310   7.3470   8.1692   8.1880   8.4162

     occupation numbers 
     1.0000   1.0000   1.0000   1.0000   1.0000   1.0000   1.0000   1.0000
     1.0000   1.0000   1.0000   1.0000   1.0000   1.0000   1.0000   1.0000
     1.0000   1.0000   1.0000   1.0000   0.0000   0.0000   0.0000   0.0000

          k = 0.0000 0.1875 0.1875 (  3405 PWs)   bands (ev):

   -51.7660 -28.0700 -27.8803 -27.8790 -27.8766 -10.4542 -10.1191  -9.9683
    -9.7589  -9.6581  -9.5639   3.1479   3.3956   3.6069   4.2412   4.7624
     4.8831   5.0487   5.1716   5.3332   7.4740   7.5397   7.6866   8.4761

     occupation numbers 
     1.0000   1.0000   1.0000   1.0000   1.0000   1.0000   1.0000   1.0000
     1.0000   1.0000   1.0000   1.0000   1.0000   1.0000   1.0000   1.0000
     1.0000   1.0000   1.0000   1.0000   0.0000   0.0000   0.0000   0.0000

          k = 0.0000 0.1875 0.2500 (  3403 PWs)   bands (ev):

   -51.7660 -28.0696 -27.8817 -27.8795 -27.8765 -10.4751 -10.1384  -9.9663
    -9.7154  -9.6552  -9.5296   3.0130   3.3576   3.6350   3.9934   4.6400
     4.7710   5.0077   5.0927   5.3542   7.5067   7.7135   7.8250   8.5185

     occupation numbers 
     1.0000   1.0000   1.0000   1.0000   1.0000   1.0000   1.0000   1.0000
     1.0000   1.0000   1.0000   1.0000   1.0000   1.0000   1.0000   1.0000
     1.0000   1.0000   1.0000   1.0000   0.0000   0.0000   0.0000   0.0000

          k = 0.0000 0.1875 0.3125 (  3386 PWs)   bands (ev):

   -51.7660 -28.0692 -27.8834 -27.8798 -27.8764 -10.5041 -10.1374  -9.9643
    -9.6946  -9.6385  -9.4979   2.8521   3.3466   3.6710   3.7786   4.5044
     4.6643   4.9925   5.0372   5.3480   7.5156   7.8952   7.9711   8.5403

     occupation numbers 
     1.0000   1.0000   1.0000   1.0000   1.0000   1.0000   1.0000   1.0000
     1.0000   1.0000   1.0000   1.0000   1.0000   1.0000   1.0000   1.0000
     1.0000   1.0000   1.0000   1.0000   0.0000   0.0000   0.0000   0.0000

          k = 0.0000 0.1875 0.3750 (  3391 PWs)   bands (ev):

   -51.7659 -28.0688 -27.8849 -27.8799 -27.8764 -10.5323 -10.1266  -9.9626
    -9.6992  -9.6026  -9.4766   2.7070   3.3514   3.6117   3.7116   4.3796
     4.5865   4.9821   5.0002   5.3300   7.5218   8.0416   8.0991   8.5512

     occupation numbers 
     1.0000   1.0000   1.0000   1.0000   1.0000   1.0000   1.0000   1.0000
     1.0000   1.0000   1.0000   1.0000   1.0000   1.0000   1.0000   1.0000
     1.0000   1.0000   1.0000   1.0000   0.0000   0.0000   0.0000   0.0000

          k = 0.0000 0.1875 0.4375 (  3386 PWs)   bands (ev):

   -51.7659 -28.0686 -27.8859 -27.8800 -27.8763 -10.5520 -10.1159  -9.9615
    -9.7068  -9.5719  -9.4670   2.6076   3.3716   3.4945   3.7482   4.2879
     4.5402   4.9751   4.9787   5.3136   7.5259   8.1361   8.1868   8.5557

     occupation numbers 
     1.0000   1.0000   1.0000   1.0000   1.0000   1.0000   1.0000   1.0000
     1.0000   1.0000   1.0000   1.0000   1.0000   1.0000   1.0000   1.0000
     1.0000   1.0000   1.0000   1.0000   0.0000   0.0000   0.0000   0.0000

          k = 0.0000 0.1875-0.5000 (  3392 PWs)   bands (ev):

   -51.7659 -28.0685 -27.8862 -27.8800 -27.8763 -10.5590 -10.1115  -9.9611
    -9.7100  -9.5597  -9.4650   2.5724   3.4021   3.4317   3.7641   4.2530
     4.5248   4.9715   4.9726   5.3072   7.5273   8.1688   8.2180   8.5567

     occupation numbers 
     1.0000   1.0000   1.0000   1.0000   1.0000   1.0000   1.0000   1.0000
     1.0000   1.0000   1.0000   1.0000   1.0000   1.0000   1.0000   1.0000
     1.0000   1.0000   1.0000   1.0000   0.0000   0.0000   0.0000   0.0000

          k = 0.0000 0.2500 0.2500 (  3393 PWs)   bands (ev):

   -51.7660 -28.0690 -27.8825 -27.8810 -27.8764 -10.4673 -10.1791  -9.9643
    -9.6950  -9.6285  -9.5057   2.9297   3.2603   3.6659   3.7454   4.5525
     4.7391   4.9187   4.9783   5.4384   7.6773   7.7450   7.9303   8.5850

     occupation numbers 
     1.0000   1.0000   1.0000   1.0000   1.0000   1.0000   1.0000   1.0000
     1.0000   1.0000   1.0000   1.0000   1.0000   1.0000   1.0000   1.0000
     1.0000   1.0000   1.0000   1.0000   0.0000   0.0000   0.0000   0.0000

          k = 0.0000 0.2500 0.3125 (  3387 PWs)   bands (ev):

   -51.7659 -28.0683 -27.8839 -27.8817 -27.8764 -10.4718 -10.1941  -9.9623
    -9.7029  -9.5887  -9.4795   2.8016   3.2076   3.5334   3.7054   4.4446
     4.6802   4.8870   4.8930   5.4848   7.7098   7.8993   8.0502   8.6223

     occupation numbers 
     1.0000   1.0000   1.0000   1.0000   1.0000   1.0000   1.0000   1.0000
     1.0000   1.0000   1.0000   1.0000   1.0000   1.0000   1.0000   1.0000
     1.0000   1.0000   1.0000   1.0000   0.0000   0.0000   0.0000   0.0000

          k = 0.0000 0.2500 0.3750 (  3388 PWs)   bands (ev):

   -51.7659 -28.0678 -27.8853 -27.8820 -27.8763 -10.4852 -10.1893  -9.9606
    -9.7203  -9.5481  -9.4609   2.6697   3.1873   3.3738   3.7506   4.3349
     4.6286   4.8373   4.8762   5.5049   7.7161   8.0427   8.1608   8.6427

     occupation numbers 
     1.0000   1.0000   1.0000   1.0000   1.0000   1.0000   1.0000   1.0000
     1.0000   1.0000   1.0000   1.0000   1.0000   1.0000   1.0000   1.0000
     1.0000   1.0000   1.0000   1.0000   0.0000   0.0000   0.0000   0.0000

          k = 0.0000 0.2500 0.4375 (  3393 PWs)   bands (ev):

   -51.7659 -28.0675 -27.8864 -27.8822 -27.8762 -10.4981 -10.1785  -9.9595
    -9.7355  -9.5161  -9.4534   2.5747   3.1879   3.2689   3.7926   4.2480
     4.5972   4.8061   4.8711   5.5112   7.7194   8.1361   8.2388   8.6527

     occupation numbers 
     1.0000   1.0000   1.0000   1.0000   1.0000   1.0000   1.0000   1.0000
     1.0000   1.0000   1.0000   1.0000   1.0000   1.0000   1.0000   1.0000
     1.0000   1.0000   1.0000   1.0000   0.0000   0.0000   0.0000   0.0000

          k = 0.0000 0.2500-0.5000 (  3398 PWs)   bands (ev):

   -51.7659 -28.0673 -27.8867 -27.8823 -27.8762 -10.5031 -10.1734  -9.9591
    -9.7415  -9.5028  -9.4529   2.5405   3.2104   3.2122   3.8115   4.2132
     4.5868   4.7960   4.8694   5.5122   7.7205   8.1684   8.2669   8.6556

     occupation numbers 
     1.0000   1.0000   1.0000   1.0000   1.0000   1.0000   1.0000   1.0000
     1.0000   1.0000   1.0000   1.0000   1.0000   1.0000   1.0000   1.0000
     1.0000   1.0000   1.0000   1.0000   0.0000   0.0000   0.0000   0.0000

          k = 0.0000 0.3125 0.3125 (  3409 PWs)   bands (ev):

   -51.7659 -28.0675 -27.8846 -27.8833 -27.8763 -10.4459 -10.2299  -9.9603
    -9.7264  -9.5422  -9.4566   2.7137   3.1069   3.3241   3.7493   4.3694
     4.6779   4.7716   4.8304   5.5785   7.8701   7.9223   8.1460   8.6703

     occupation numbers 
     1.0000   1.0000   1.0000   1.0000   1.0000   1.0000   1.0000   1.0000
     1.0000   1.0000   1.0000   1.0000   1.0000   1.0000   1.0000   1.0000
     1.0000   1.0000   1.0000   1.0000   0.0000   0.0000   0.0000   0.0000

          k = 0.0000 0.3125 0.3750 (  3399 PWs)   bands (ev):

   -51.7659 -28.0668 -27.8858 -27.8841 -27.8762 -10.4355 -10.2391  -9.9585
    -9.7553  -9.5012  -9.4388   2.6054   3.0536   3.1698   3.8005   4.2845
     4.6631   4.6858   4.8099   5.6346   7.8953   8.0443   8.2387   8.6975

     occupation numbers 
     1.0000   1.0000   1.0000   1.0000   1.0000   1.0000   1.0000   1.0000
     1.0000   1.0000   1.0000   1.0000   1.0000   1.0000   1.0000   1.0000
     1.0000   1.0000   1.0000   1.0000   0.0000   0.0000   0.0000   0.0000

          k = 0.0000 0.3125 0.4375 (  3384 PWs)   bands (ev):

   -51.7659 -28.0663 -27.8869 -27.8844 -27.8762 -10.4370 -10.2316  -9.9574
    -9.7793  -9.4694  -9.4316   2.5195   3.0320   3.0756   3.8500   4.2081
     4.6371   4.6504   4.8043   5.6628   7.8985   8.1362   8.3061   8.7112

     occupation numbers 
     1.0000   1.0000   1.0000   1.0000   1.0000   1.0000   1.0000   1.0000
     1.0000   1.0000   1.0000   1.0000   1.0000   1.0000   1.0000   1.0000
     1.0000   1.0000   1.0000   1.0000   0.0000   0.0000   0.0000   0.0000

          k = 0.0000 0.3125-0.5000 (  3388 PWs)   bands (ev):

   -51.7659 -28.0661 -27.8872 -27.8845 -27.8761 -10.4391 -10.2263  -9.9570
    -9.7887  -9.4549  -9.4325   2.4874   3.0323   3.0381   3.8738   4.1740
     4.6215   4.6458   4.8030   5.6712   7.8994   8.1682   8.3307   8.7154

     occupation numbers 
     1.0000   1.0000   1.0000   1.0000   1.0000   1.0000   1.0000   1.0000
     1.0000   1.0000   1.0000   1.0000   1.0000   1.0000   1.0000   1.0000
     1.0000   1.0000   1.0000   1.0000   0.0000   0.0000   0.0000   0.0000

          k = 0.0000 0.3750 0.3750 (  3397 PWs)   bands (ev):

   -51.7659 -28.0659 -27.8864 -27.8857 -27.8761 -10.3948 -10.2682  -9.9568
    -9.7957  -9.4622  -9.4197   2.5191   2.9705   3.0203   3.8593   4.2293
     4.5631   4.6852   4.7765   5.7191   8.0282   8.0567   8.3169   8.7285

     occupation numbers 
     1.0000   1.0000   1.0000   1.0000   1.0000   1.0000   1.0000   1.0000
     1.0000   1.0000   1.0000   1.0000   1.0000   1.0000   1.0000   1.0000
     1.0000   1.0000   1.0000   1.0000   0.0000   0.0000   0.0000   0.0000

          k = 0.0000 0.3750 0.4375 (  3394 PWs)   bands (ev):

[...]
     1.0000   1.0000   1.0000   1.0000   0.0000   0.0000   0.0000   0.0000

          k = 0.2500 0.3125 0.3125 (  3387 PWs)   bands (ev):

   -51.7658 -28.0654 -27.8844 -27.8838 -27.8819 -10.3622 -10.1441 -10.0679
    -9.6253  -9.5487  -9.5442   2.6492   3.1244   3.2675   3.4068   3.7110
     3.7278   5.3447   5.3764   5.6354   8.0651   8.1183   8.1885   9.8150

     occupation numbers 
     1.0000   1.0000   1.0000   1.0000   1.0000   1.0000   1.0000   1.0000
     1.0000   1.0000   1.0000   1.0000   1.0000   1.0000   1.0000   1.0000
     1.0000   1.0000   1.0000   1.0000   0.0000   0.0000   0.0000   0.0000

          k = 0.2500 0.3125 0.3750 (  3385 PWs)   bands (ev):

   -51.7658 -28.0647 -27.8859 -27.8841 -27.8819 -10.3389 -10.1617 -10.0410
    -9.6590  -9.5427  -9.5230   2.5502   3.0647   3.2540   3.3024   3.5985
     3.7314   5.3671   5.4092   5.6776   8.1006   8.2040   8.2794   9.8387

     occupation numbers 
     1.0000   1.0000   1.0000   1.0000   1.0000   1.0000   1.0000   1.0000
     1.0000   1.0000   1.0000   1.0000   1.0000   1.0000   1.0000   1.0000
     1.0000   1.0000   1.0000   1.0000   0.0000   0.0000   0.0000   0.0000

          k = 0.2500 0.3125 0.4375 (  3378 PWs)   bands (ev):

   -51.7658 -28.0642 -27.8871 -27.8842 -27.8820 -10.3254 -10.1728 -10.0156
    -9.6889  -9.5407  -9.5051   2.4666   3.0439   3.1844   3.3033   3.5179
     3.7450   5.3795   5.4243   5.7011   8.1117   8.2763   8.3460   9.8405

     occupation numbers 
     1.0000   1.0000   1.0000   1.0000   1.0000   1.0000   1.0000   1.0000
     1.0000   1.0000   1.0000   1.0000   1.0000   1.0000   1.0000   1.0000
     1.0000   1.0000   1.0000   1.0000   0.0000   0.0000   0.0000   0.0000

          k = 0.2500 0.3125-0.5000 (  3384 PWs)   bands (ev):

   -51.7658 -28.0641 -27.8875 -27.8843 -27.8820 -10.3213 -10.1761 -10.0051
    -9.7009  -9.5402  -9.4986   2.4346   3.0423   3.1535   3.3115   3.4874
     3.7503   5.3839   5.4282   5.7084   8.1151   8.3027   8.3704   9.8398

     occupation numbers 
     1.0000   1.0000   1.0000   1.0000   1.0000   1.0000   1.0000   1.0000
     1.0000   1.0000   1.0000   1.0000   1.0000   1.0000   1.0000   1.0000
     1.0000   1.0000   1.0000   1.0000   0.0000   0.0000   0.0000   0.0000

          k = 0.2500 0.3750 0.3750 (  3387 PWs)   bands (ev):

   -51.7658 -28.0639 -27.8862 -27.8858 -27.8819 -10.2996 -10.1733 -10.0277
    -9.6929  -9.5250  -9.5236   2.4671   2.9810   3.1612   3.2959   3.6054
     3.6103   5.4044   5.4415   5.7467   8.1978   8.2283   8.3559   9.8985

     occupation numbers 
     1.0000   1.0000   1.0000   1.0000   1.0000   1.0000   1.0000   1.0000
     1.0000   1.0000   1.0000   1.0000   1.0000   1.0000   1.0000   1.0000
     1.0000   1.0000   1.0000   1.0000   0.0000   0.0000   0.0000   0.0000

          k = 0.2500 0.3750 0.4375 (  3384 PWs)   bands (ev):

   -51.7658 -28.0635 -27.8873 -27.8861 -27.8819 -10.2726 -10.1830 -10.0106
    -9.7262  -9.5256  -9.5078   2.3927   2.9398   3.0937   3.3122   3.5243
     3.6216   5.4265   5.4551   5.7896   8.2198   8.2897   8.4134   9.9147

     occupation numbers 
     1.0000   1.0000   1.0000   1.0000   1.0000   1.0000   1.0000   1.0000
     1.0000   1.0000   1.0000   1.0000   1.0000   1.0000   1.0000   1.0000
     1.0000   1.0000   1.0000   1.0000   0.0000   0.0000   0.0000   0.0000

          k = 0.2500 0.3750-0.5000 (  3388 PWs)   bands (ev):

   -51.7658 -28.0633 -27.8877 -27.8862 -27.8819 -10.2632 -10.1862 -10.0025
    -9.7402  -9.5262  -9.5015   2.3635   2.9288   3.0700   3.3227   3.4921
     3.6271   5.4348   5.4580   5.8038   8.2234   8.3159   8.4348   9.9177

     occupation numbers 
     1.0000   1.0000   1.0000   1.0000   1.0000   1.0000   1.0000   1.0000
     1.0000   1.0000   1.0000   1.0000   1.0000   1.0000   1.0000   1.0000
     1.0000   1.0000   1.0000   1.0000   0.0000   0.0000   0.0000   0.0000

          k = 0.2500 0.4375 0.4375 (  3390 PWs)   bands (ev):

   -51.7658 -28.0629 -27.8874 -27.8873 -27.8819 -10.2320 -10.1916 -10.0025
    -9.7636  -9.5102  -9.5101   2.3254   2.8845   3.0330   3.3327   3.5328
     3.5416   5.4547   5.4685   5.8459   8.2919   8.3010   8.4651   9.9380

     occupation numbers 
     1.0000   1.0000   1.0000   1.0000   1.0000   1.0000   1.0000   1.0000
     1.0000   1.0000   1.0000   1.0000   1.0000   1.0000   1.0000   1.0000
     1.0000   1.0000   1.0000   1.0000   0.0000   0.0000   0.0000   0.0000

          k = 0.2500 0.4375-0.5000 (  3388 PWs)   bands (ev):

   -51.7658 -28.0628 -27.8878 -27.8874 -27.8818 -10.2166 -10.1946  -9.9984
    -9.7795  -9.5112  -9.5042   2.2985   2.8684   3.0120   3.3454   3.5038
     3.5427   5.4652   5.4713   5.8647   8.2990   8.3237   8.4844   9.9429

     occupation numbers 
     1.0000   1.0000   1.0000   1.0000   1.0000   1.0000   1.0000   1.0000
     1.0000   1.0000   1.0000   1.0000   1.0000   1.0000   1.0000   1.0000
     1.0000   1.0000   1.0000   1.0000   0.0000   0.0000   0.0000   0.0000

          k = 0.2500-0.5000-0.5000 (  3396 PWs)   bands (ev):

   -51.7658 -28.0626 -27.8879 -27.8879 -27.8818 -10.1978 -10.1978  -9.9966
    -9.7964  -9.5053  -9.5053   2.2724   2.8506   2.9917   3.3592   3.5088
     3.5088   5.4753   5.4753   5.8851   8.3263   8.3263   8.5030   9.9482

     occupation numbers 
     1.0000   1.0000   1.0000   1.0000   1.0000   1.0000   1.0000   1.0000
     1.0000   1.0000   1.0000   1.0000   1.0000   1.0000   1.0000   1.0000
     1.0000   1.0000   1.0000   1.0000   0.0000   0.0000   0.0000   0.0000

          k = 0.3125 0.3125 0.3125 (  3380 PWs)   bands (ev):

   -51.7658 -28.0646 -27.8843 -27.8843 -27.8837 -10.3279 -10.1032 -10.1032
    -9.5920  -9.5920  -9.5468   2.5838   3.1338   3.1338   3.3634   3.5858
     3.5858   5.4449   5.4449   5.6782   8.1550   8.2143   8.2143  10.1661

     occupation numbers 
     1.0000   1.0000   1.0000   1.0000   1.0000   1.0000   1.0000   1.0000
     1.0000   1.0000   1.0000   1.0000   1.0000   1.0000   1.0000   1.0000
     1.0000   1.0000   1.0000   1.0000   0.0000   0.0000   0.0000   0.0000

          k = 0.3125 0.3125 0.3750 (  3377 PWs)   bands (ev):

   -51.7658 -28.0639 -27.8860 -27.8842 -27.8840 -10.2970 -10.1325 -10.0621
    -9.6352  -9.5743  -9.5404   2.4935   3.0506   3.1448   3.2694   3.4776
     3.5719   5.4794   5.5137   5.7176   8.1991   8.2763   8.3054  10.1552

     occupation numbers 
     1.0000   1.0000   1.0000   1.0000   1.0000   1.0000   1.0000   1.0000
     1.0000   1.0000   1.0000   1.0000   1.0000   1.0000   1.0000   1.0000
     1.0000   1.0000   1.0000   1.0000   0.0000   0.0000   0.0000   0.0000

          k = 0.3125 0.3125 0.4375 (  3377 PWs)   bands (ev):

   -51.7658 -28.0634 -27.8872 -27.8842 -27.8842 -10.2745 -10.1527 -10.0291
    -9.6695  -9.5736  -9.5259   2.4144   3.0176   3.1552   3.1952   3.4079
     3.5825   5.4960   5.5529   5.7422   8.2124   8.3380   8.3716  10.1469

     occupation numbers 
     1.0000   1.0000   1.0000   1.0000   1.0000   1.0000   1.0000   1.0000
     1.0000   1.0000   1.0000   1.0000   1.0000   1.0000   1.0000   1.0000
     1.0000   1.0000   1.0000   1.0000   0.0000   0.0000   0.0000   0.0000

          k = 0.3125 0.3125-0.5000 (  3380 PWs)   bands (ev):

   -51.7658 -28.0633 -27.8876 -27.8842 -27.8842 -10.2660 -10.1602 -10.0160
    -9.6831  -9.5748  -9.5196   2.3836   3.0110   3.1600   3.1676   3.3832
     3.5878   5.5010   5.5655   5.7502   8.2162   8.3613   8.3959  10.1437

     occupation numbers 
     1.0000   1.0000   1.0000   1.0000   1.0000   1.0000   1.0000   1.0000
     1.0000   1.0000   1.0000   1.0000   1.0000   1.0000   1.0000   1.0000
     1.0000   1.0000   1.0000   1.0000   0.0000   0.0000   0.0000   0.0000

          k = 0.3125 0.3750 0.3750 (  3380 PWs)   bands (ev):

   -51.7658 -28.0632 -27.8861 -27.8859 -27.8841 -10.2569 -10.1275 -10.0549
    -9.6545  -9.5747  -9.5512   2.4139   2.9862   3.1128   3.2104   3.4441
     3.4683   5.5499   5.5752   5.7671   8.2822   8.3113   8.3720  10.2773

     occupation numbers 
     1.0000   1.0000   1.0000   1.0000   1.0000   1.0000   1.0000   1.0000
     1.0000   1.0000   1.0000   1.0000   1.0000   1.0000   1.0000   1.0000
     1.0000   1.0000   1.0000   1.0000   0.0000   0.0000   0.0000   0.0000

          k = 0.3125 0.3750 0.4375 (  3374 PWs)   bands (ev):

   -51.7658 -28.0627 -27.8872 -27.8860 -27.8841 -10.2248 -10.1421 -10.0302
    -9.6875  -9.5752  -9.5451   2.3421   2.9415   3.1167   3.1537   3.3839
     3.4674   5.5793   5.6147   5.8045   8.3054   8.3640   8.4292  10.2939

     occupation numbers 
     1.0000   1.0000   1.0000   1.0000   1.0000   1.0000   1.0000   1.0000
     1.0000   1.0000   1.0000   1.0000   1.0000   1.0000   1.0000   1.0000
     1.0000   1.0000   1.0000   1.0000   0.0000   0.0000   0.0000   0.0000

          k = 0.3125 0.3750-0.5000 (  3384 PWs)   bands (ev):

   -51.7658 -28.0626 -27.8877 -27.8861 -27.8841 -10.2105 -10.1511 -10.0184
    -9.7019  -9.5781  -9.5397   2.3137   2.9288   3.1211   3.1316   3.3596
     3.4727   5.5869   5.6285   5.8177   8.3096   8.3871   8.4506  10.2952

     occupation numbers 
     1.0000   1.0000   1.0000   1.0000   1.0000   1.0000   1.0000   1.0000
     1.0000   1.0000   1.0000   1.0000   1.0000   1.0000   1.0000   1.0000
     1.0000   1.0000   1.0000   1.0000   0.0000   0.0000   0.0000   0.0000

          k = 0.3125 0.4375 0.4375 (  3388 PWs)   bands (ev):

   -51.7658 -28.0623 -27.8873 -27.8873 -27.8841 -10.1850 -10.1430 -10.0210
    -9.7208  -9.5639  -9.5575   2.2765   2.8872   3.1046   3.1198   3.3909
     3.3992   5.6271   5.6400   5.8555   8.3688   8.3773   8.4801  10.3323

     occupation numbers 
     1.0000   1.0000   1.0000   1.0000   1.0000   1.0000   1.0000   1.0000
     1.0000   1.0000   1.0000   1.0000   1.0000   1.0000   1.0000   1.0000
     1.0000   1.0000   1.0000   1.0000   0.0000   0.0000   0.0000   0.0000

          k = 0.3125 0.4375-0.5000 (  3384 PWs)   bands (ev):

   -51.7657 -28.0621 -27.8877 -27.8873 -27.8841 -10.1661 -10.1485 -10.0151
    -9.7360  -9.5660  -9.5546   2.2502   2.8705   3.0876   3.1217   3.3701
     3.4012   5.6391   5.6508   5.8739   8.3763   8.3973   8.4994  10.3388

     occupation numbers 
     1.0000   1.0000   1.0000   1.0000   1.0000   1.0000   1.0000   1.0000
     1.0000   1.0000   1.0000   1.0000   1.0000   1.0000   1.0000   1.0000
     1.0000   1.0000   1.0000   1.0000   0.0000   0.0000   0.0000   0.0000

          k = 0.3125-0.5000-0.5000 (  3384 PWs)   bands (ev):

   -51.7657 -28.0620 -27.8878 -27.8878 -27.8840 -10.1482 -10.1482 -10.0129
    -9.7517  -9.5602  -9.5602   2.2247   2.8525   3.0705   3.1244   3.3764
     3.3764   5.6566   5.6566   5.8942   8.4006   8.4006   8.5180  10.3468

     occupation numbers 
     1.0000   1.0000   1.0000   1.0000   1.0000   1.0000   1.0000   1.0000
     1.0000   1.0000   1.0000   1.0000   1.0000   1.0000   1.0000   1.0000
     1.0000   1.0000   1.0000   1.0000   0.0000   0.0000   0.0000   0.0000

          k = 0.3750 0.3750 0.3750 (  3374 PWs)   bands (ev):

   -51.7658 -28.0626 -27.8860 -27.8860 -27.8859 -10.2146 -10.0811 -10.0811
    -9.6245  -9.6245  -9.5745   2.3401   2.9918   2.9918   3.2159   3.3660
     3.3660   5.6561   5.6561   5.7980   8.3572   8.3908   8.3908  10.5833

     occupation numbers 
     1.0000   1.0000   1.0000   1.0000   1.0000   1.0000   1.0000   1.0000
     1.0000   1.0000   1.0000   1.0000   1.0000   1.0000   1.0000   1.0000
     1.0000   1.0000   1.0000   1.0000   0.0000   0.0000   0.0000   0.0000

          k = 0.3750 0.3750 0.4375 (  3383 PWs)   bands (ev):

   -51.7657 -28.0621 -27.8872 -27.8860 -27.8860 -10.1776 -10.1053 -10.0434
    -9.6645  -9.6161  -9.5801   2.2734   2.9306   2.9965   3.1834   3.3023
     3.3607   5.6914   5.7200   5.8295   8.3860   8.4294   8.4492  10.5741

     occupation numbers 
     1.0000   1.0000   1.0000   1.0000   1.0000   1.0000   1.0000   1.0000
     1.0000   1.0000   1.0000   1.0000   1.0000   1.0000   1.0000   1.0000
     1.0000   1.0000   1.0000   1.0000   0.0000   0.0000   0.0000   0.0000

          k = 0.3750 0.3750-0.5000 (  3384 PWs)   bands (ev):

   -51.7657 -28.0620 -27.8877 -27.8860 -27.8860 -10.1575 -10.1205 -10.0281
    -9.6805  -9.6189  -9.5767   2.2467   2.9131   2.9984   3.1667   3.2806
     3.3654   5.7007   5.7413   5.8425   8.3908   8.4493   8.4707  10.5705

     occupation numbers 
     1.0000   1.0000   1.0000   1.0000   1.0000   1.0000   1.0000   1.0000
     1.0000   1.0000   1.0000   1.0000   1.0000   1.0000   1.0000   1.0000
     1.0000   1.0000   1.0000   1.0000   0.0000   0.0000   0.0000   0.0000

          k = 0.3750 0.4375 0.4375 (  3395 PWs)   bands (ev):

   -51.7657 -28.0617 -27.8873 -27.8872 -27.8860 -10.1378 -10.0933 -10.0378
    -9.6843  -9.6177  -9.6036   2.2112   2.8897   2.9701   3.1656   3.2888
     3.3005   5.7568   5.7667   5.8655   8.4418   8.4502   8.4933  10.6627

     occupation numbers 
     1.0000   1.0000   1.0000   1.0000   1.0000   1.0000   1.0000   1.0000
     1.0000   1.0000   1.0000   1.0000   1.0000   1.0000   1.0000   1.0000
     1.0000   1.0000   1.0000   1.0000   0.0000   0.0000   0.0000   0.0000

          k = 0.3750 0.4375-0.5000 (  3390 PWs)   bands (ev):

   -51.7657 -28.0616 -27.8877 -27.8872 -27.8859 -10.1148 -10.1024 -10.0287
    -9.6989  -9.6205  -9.6047   2.1863   2.8719   2.9685   3.1516   3.2725
     3.3007   5.7707   5.7854   5.8825   8.4497   8.4676   8.5125  10.6712

     occupation numbers 
     1.0000   1.0000   1.0000   1.0000   1.0000   1.0000   1.0000   1.0000
     1.0000   1.0000   1.0000   1.0000   1.0000   1.0000   1.0000   1.0000
     1.0000   1.0000   1.0000   1.0000   0.0000   0.0000   0.0000   0.0000

          k = 0.3750-0.5000-0.5000 (  3412 PWs)   bands (ev):

   -51.7657 -28.0615 -27.8877 -27.8877 -27.8859 -10.0976 -10.0976 -10.0266
    -9.7132  -9.6154  -9.6154   2.1621   2.8541   2.9656   3.1379   3.2789
     3.2789   5.7942   5.7942   5.9020   8.4714   8.4714   8.5309  10.6855

     occupation numbers 
     1.0000   1.0000   1.0000   1.0000   1.0000   1.0000   1.0000   1.0000
     1.0000   1.0000   1.0000   1.0000   1.0000   1.0000   1.0000   1.0000
     1.0000   1.0000   1.0000   1.0000   0.0000   0.0000   0.0000   0.0000

          k = 0.4375 0.4375 0.4375 (  3394 PWs)   bands (ev):

   -51.7657 -28.0614 -27.8872 -27.8872 -27.8872 -10.0977 -10.0527 -10.0527
    -9.6612  -9.6612  -9.6376   2.1526   2.8916   2.8916   3.1939   3.2400
     3.2400   5.8369   5.8369   5.8799   8.4938   8.5039   8.5039  10.8915

     occupation numbers 
     1.0000   1.0000   1.0000   1.0000   1.0000   1.0000   1.0000   1.0000
     1.0000   1.0000   1.0000   1.0000   1.0000   1.0000   1.0000   1.0000
     1.0000   1.0000   1.0000   1.0000   0.0000   0.0000   0.0000   0.0000

          k = 0.4375 0.4375-0.5000 (  3390 PWs)   bands (ev):

   -51.7657 -28.0613 -27.8876 -27.8872 -27.8872 -10.0730 -10.0672 -10.0361
    -9.6787  -9.6596  -9.6443   2.1291   2.8680   2.8923   3.1880   3.2197
     3.2399   5.8523   5.8640   5.8931   8.5036   8.5171   8.5238  10.8888

     occupation numbers 
     1.0000   1.0000   1.0000   1.0000   1.0000   1.0000   1.0000   1.0000
     1.0000   1.0000   1.0000   1.0000   1.0000   1.0000   1.0000   1.0000
     1.0000   1.0000   1.0000   1.0000   0.0000   0.0000   0.0000   0.0000

          k = 0.4375-0.5000-0.5000 (  3396 PWs)   bands (ev):

   -51.7657 -28.0611 -27.8876 -27.8876 -27.8872 -10.0560 -10.0560 -10.0358
    -9.6873  -9.6600  -9.6600   2.1061   2.8551   2.8811   3.1834   3.2195
     3.2195   5.8800   5.8800   5.9072   8.5235   8.5235   8.5397  10.9288

     occupation numbers 
     1.0000   1.0000   1.0000   1.0000   1.0000   1.0000   1.0000   1.0000
     1.0000   1.0000   1.0000   1.0000   1.0000   1.0000   1.0000   1.0000
     1.0000   1.0000   1.0000   1.0000   0.0000   0.0000   0.0000   0.0000

          k =-0.5000-0.5000-0.5000 (  3448 PWs)   bands (ev):

   -51.7657 -28.0610 -27.8876 -27.8876 -27.8876 -10.0390 -10.0390 -10.0390
    -9.6781  -9.6781  -9.6781   2.0835   2.8554   2.8554   3.1995   3.1995
     3.1995   5.9090   5.9090   5.9090   8.5428   8.5428   8.5428  11.0247

     occupation numbers 
     1.0000   1.0000   1.0000   1.0000   1.0000   1.0000   1.0000   1.0000
     1.0000   1.0000   1.0000   1.0000   1.0000   1.0000   1.0000   1.0000
     1.0000   1.0000   1.0000   1.0000   0.0000   0.0000   0.0000   0.0000

     the Fermi energy is     6.1421 ev

!    total energy              =    -286.82476467 Ry
     Harris-Foulkes estimate   =    -286.82476467 Ry
     estimated scf accuracy    <          3.2E-10 Ry

     The total energy is the sum of the following terms:

     one-electron contribution =    -111.05960179 Ry
     hartree contribution      =      71.13553421 Ry
     xc contribution           =     -57.59005579 Ry
     ewald contribution        =    -189.31064130 Ry
     smearing contrib. (-TS)   =       0.00000000 Ry

     convergence has been achieved in  14 iterations
 
     init_run     :      1.42s CPU      1.61s WALL (       1 calls)
     electrons    :     55.75s CPU     60.81s WALL (       1 calls)

     Called by init_run:
     wfcinit      :      1.32s CPU      1.44s WALL (       1 calls)
     wfcinit:atom :      0.01s CPU      0.01s WALL (     165 calls)
     wfcinit:wfcr :      1.25s CPU      1.36s WALL (     165 calls)
     potinit      :      0.01s CPU      0.01s WALL (       1 calls)
     hinit0       :      0.07s CPU      0.12s WALL (       1 calls)

     Called by electrons:
     c_bands      :     51.02s CPU     55.81s WALL (      14 calls)
     sum_band     :      4.54s CPU      4.79s WALL (      14 calls)
     v_of_rho     :      0.03s CPU      0.03s WALL (      15 calls)
     v_h          :      0.00s CPU      0.00s WALL (      15 calls)
     v_xc         :      0.03s CPU      0.03s WALL (      15 calls)
     newd         :      0.15s CPU      0.16s WALL (      15 calls)
     mix_rho      :      0.01s CPU      0.01s WALL (      14 calls)

     Called by c_bands:
     init_us_2    :      0.49s CPU      0.51s WALL (    4785 calls)
     cegterg      :     49.09s CPU     53.80s WALL (    2310 calls)

     Called by sum_band:
     sum_band:bec :      0.05s CPU      0.05s WALL (    2310 calls)
     addusdens    :      0.15s CPU      0.16s WALL (      14 calls)

     Called by *egterg:
     h_psi        :     18.81s CPU     19.80s WALL (    8585 calls)
     s_psi        :      0.55s CPU      0.58s WALL (    8585 calls)
     g_psi        :      0.13s CPU      0.13s WALL (    6110 calls)
     cdiaghg      :     24.77s CPU     27.52s WALL (    8420 calls)
     cegterg:over :      3.35s CPU      4.34s WALL (    6110 calls)
     cegterg:upda :      1.26s CPU      1.30s WALL (    6110 calls)
     cegterg:last :      0.53s CPU      0.54s WALL (    2310 calls)
     cdiaghg:chol :      0.73s CPU      0.86s WALL (    8420 calls)
     cdiaghg:inve :      0.40s CPU      0.48s WALL (    8420 calls)
     cdiaghg:para :      1.37s CPU      1.47s WALL (   16840 calls)

     Called by h_psi:
     h_psi:pot    :     18.76s CPU     19.75s WALL (    8585 calls)
     h_psi:calbec :      0.90s CPU      0.95s WALL (    8585 calls)
     vloc_psi     :     17.26s CPU     18.17s WALL (    8585 calls)
     add_vuspsi   :      0.57s CPU      0.60s WALL (    8585 calls)

     General routines
     calbec       :      1.20s CPU      1.28s WALL (   10895 calls)
     fft          :      0.02s CPU      0.05s WALL (     166 calls)
     ffts         :      0.00s CPU      0.00s WALL (      14 calls)
     fftw         :     19.58s CPU     20.62s WALL (  334446 calls)
 
     Parallel routines
     fft_scatt_xy :      1.58s CPU      1.66s WALL (  334626 calls)
     fft_scatt_yz :     12.21s CPU     12.91s WALL (  334626 calls)
 
     PWSCF        :    57.26s CPU     1m 2.62s WALL

 
   This run was terminated on:  21:46:47   6Feb2019            

=------------------------------------------------------------------------------=
   JOB DONE.
=------------------------------------------------------------------------------=
