
     Program PWSCF v.6.3MaX starts on  6Feb2019 at 21:45:43 

     This program is part of the open-source Quantum ESPRESSO suite
     for quantum simulation of materials; please cite
         "P. Giannozzi et al., J. Phys.:Condens. Matter 21 395502 (2009);
         "P. Giannozzi et al., J. Phys.:Condens. Matter 29 465901 (2017);
          URL http://www.quantum-espresso.org", 
     in publications or presentations arising from this work. More details at
     http://www.quantum-espresso.org/quote

     Parallel version (MPI & OpenMP), running on      20 processor cores
     Number of MPI processes:                20
     Threads/MPI process:                     1

     MPI processes distributed on     1 nodes
     R & G space division:  proc/nbgrp/npool/nimage =      20
     Reading input from /home/azadoks/dftman/projects/SrTiO3 Convergence/EOSWorkflows/d54829050d49/1d66a1c8f523/pwscf.in
Warning: card &IONS ignored
Warning: card / ignored
Warning: card &CELL ignored
Warning: card / ignored

     Current dimensions of program PWSCF are:
     Max number of different atomic species (ntypx) = 10
     Max number of k-points (npk) =  40000
     Max angular momentum in pseudopotentials (lmaxx) =  3
     Message from routine iosys:
     minimal I/O required, wf_collect reset to FALSE

     Subspace diagonalization in iterative solution of the eigenvalue problem:
     one sub-group per band group will be used
     scalapack distributed-memory algorithm (size of sub-group:  3*  3 procs)

 
     Parallelization info
     --------------------
     sticks:   dense  smooth     PW     G-vecs:    dense   smooth      PW
     Min          50      50     14                 1192     1192     192
     Max          51      51     15                 1194     1194     197
     Sum        1005    1005    293                23871    23871    3911
 


     bravais-lattice index     =            0
     lattice parameter (alat)  =       7.9522  a.u.
     unit-cell volume          =     502.8829 (a.u.)^3
     number of atoms/cell      =            5
     number of atomic types    =            3
     number of electrons       =        40.00
     number of Kohn-Sham states=           24
     kinetic-energy cutoff     =      50.0000  Ry
     charge density cutoff     =     200.0000  Ry
     convergence threshold     =      1.0E-08
     mixing beta               =       0.7000
     number of iterations used =            8  plain     mixing
     Exchange-correlation      =  SLA  PW   PBX  PBC ( 1  4  3  4 0 0)

     celldm(1)=   7.952230  celldm(2)=   0.000000  celldm(3)=   0.000000
     celldm(4)=   0.000000  celldm(5)=   0.000000  celldm(6)=   0.000000

     crystal axes: (cart. coord. in units of alat)
               a(1) = (   1.000000   0.000000   0.000000 )  
               a(2) = (   0.000000   1.000000   0.000000 )  
               a(3) = (   0.000000   0.000000   1.000000 )  

     reciprocal axes: (cart. coord. in units 2 pi/alat)
               b(1) = (  1.000000  0.000000  0.000000 )  
               b(2) = (  0.000000  1.000000  0.000000 )  
               b(3) = (  0.000000  0.000000  1.000000 )  


     PseudoPot. # 1 for O  read from file:
     /home/azadoks/.local/share/pseudo/GBRV_PBE_US/o_pbe_v1.2.uspp.F.UPF
     MD5 check sum: 734c27235a0248c51dbae37a1fbe46ec
     Pseudo is Ultrasoft + core correction, Zval =  6.0
     Generated by new atomic code, or converted to UPF format
     Using radial grid of  737 points,  5 beta functions with: 
                l(1) =   0
                l(2) =   0
                l(3) =   1
                l(4) =   1
                l(5) =   2
     Q(r) pseudized with  8 coefficients,  rinner =    0.900   0.900   0.900
                                                       0.900   0.900

     PseudoPot. # 2 for Sr read from file:
     /home/azadoks/.local/share/pseudo/GBRV_PBE_US/sr_pbe_v1.uspp.F.UPF
     MD5 check sum: 6b418c05fbe9db5448babca5e47b7a5b
     Pseudo is Ultrasoft + core correction, Zval = 10.0
     Generated by new atomic code, or converted to UPF format
     Using radial grid of  883 points,  6 beta functions with: 
                l(1) =   0
                l(2) =   0
                l(3) =   1
                l(4) =   1
                l(5) =   2
                l(6) =   2
     Q(r) pseudized with  6 coefficients,  rinner =    1.400   1.400   1.400
                                                       1.400   1.400

     PseudoPot. # 3 for Ti read from file:
     /home/azadoks/.local/share/pseudo/GBRV_PBE_US/ti_pbe_v1.4.uspp.F.UPF
     MD5 check sum: 88a00a6731bd790ddea75d31a80cb452
     Pseudo is Ultrasoft + core correction, Zval = 12.0
     Generated by new atomic code, or converted to UPF format
     Using radial grid of  851 points,  6 beta functions with: 
                l(1) =   0
                l(2) =   0
                l(3) =   1
                l(4) =   1
                l(5) =   2
                l(6) =   2
     Q(r) pseudized with  6 coefficients,  rinner =    1.000   1.000   1.000
                                                       1.000   1.000

     atomic species   valence    mass     pseudopotential
        O              6.00    15.99940     O ( 1.00)
        Sr            10.00    87.62000     Sr( 1.00)
        Ti            12.00    47.86700     Ti( 1.00)

     48 Sym. Ops., with inversion, found


                                    s                        frac. trans.

      isym =  1     identity                                     

 cryst.   s( 1) = (     1          0          0      )
                  (     0          1          0      )
                  (     0          0          1      )

 cart.    s( 1) = (  1.0000000  0.0000000  0.0000000 )
                  (  0.0000000  1.0000000  0.0000000 )
                  (  0.0000000  0.0000000  1.0000000 )


      isym =  2     180 deg rotation - cart. axis [0,0,1]        

 cryst.   s( 2) = (    -1          0          0      )
                  (     0         -1          0      )
                  (     0          0          1      )

 cart.    s( 2) = ( -1.0000000  0.0000000  0.0000000 )
                  (  0.0000000 -1.0000000  0.0000000 )
                  (  0.0000000  0.0000000  1.0000000 )


      isym =  3     180 deg rotation - cart. axis [0,1,0]        

 cryst.   s( 3) = (    -1          0          0      )
                  (     0          1          0      )
                  (     0          0         -1      )

 cart.    s( 3) = ( -1.0000000  0.0000000  0.0000000 )
                  (  0.0000000  1.0000000  0.0000000 )
                  (  0.0000000  0.0000000 -1.0000000 )


      isym =  4     180 deg rotation - cart. axis [1,0,0]        

 cryst.   s( 4) = (     1          0          0      )
                  (     0         -1          0      )
                  (     0          0         -1      )

 cart.    s( 4) = (  1.0000000  0.0000000  0.0000000 )
                  (  0.0000000 -1.0000000  0.0000000 )
                  (  0.0000000  0.0000000 -1.0000000 )


      isym =  5     180 deg rotation - cart. axis [1,1,0]        

 cryst.   s( 5) = (     0          1          0      )
                  (     1          0          0      )
                  (     0          0         -1      )

 cart.    s( 5) = (  0.0000000  1.0000000  0.0000000 )
                  (  1.0000000  0.0000000  0.0000000 )
                  (  0.0000000  0.0000000 -1.0000000 )


      isym =  6     180 deg rotation - cart. axis [1,-1,0]       

 cryst.   s( 6) = (     0         -1          0      )
                  (    -1          0          0      )
                  (     0          0         -1      )

 cart.    s( 6) = (  0.0000000 -1.0000000  0.0000000 )
                  ( -1.0000000  0.0000000  0.0000000 )
                  (  0.0000000  0.0000000 -1.0000000 )


      isym =  7      90 deg rotation - cart. axis [0,0,-1]       

 cryst.   s( 7) = (     0         -1          0      )
                  (     1          0          0      )
                  (     0          0          1      )

 cart.    s( 7) = (  0.0000000  1.0000000  0.0000000 )
                  ( -1.0000000  0.0000000  0.0000000 )
                  (  0.0000000  0.0000000  1.0000000 )


      isym =  8      90 deg rotation - cart. axis [0,0,1]        

 cryst.   s( 8) = (     0          1          0      )
                  (    -1          0          0      )
                  (     0          0          1      )

 cart.    s( 8) = (  0.0000000 -1.0000000  0.0000000 )
                  (  1.0000000  0.0000000  0.0000000 )
                  (  0.0000000  0.0000000  1.0000000 )


      isym =  9     180 deg rotation - cart. axis [1,0,1]        

 cryst.   s( 9) = (     0          0          1      )
                  (     0         -1          0      )
                  (     1          0          0      )

 cart.    s( 9) = (  0.0000000  0.0000000  1.0000000 )
                  (  0.0000000 -1.0000000  0.0000000 )
                  (  1.0000000  0.0000000  0.0000000 )


      isym = 10     180 deg rotation - cart. axis [-1,0,1]       

 cryst.   s(10) = (     0          0         -1      )
                  (     0         -1          0      )
                  (    -1          0          0      )

 cart.    s(10) = (  0.0000000  0.0000000 -1.0000000 )
                  (  0.0000000 -1.0000000  0.0000000 )
                  ( -1.0000000  0.0000000  0.0000000 )


      isym = 11      90 deg rotation - cart. axis [0,1,0]        

 cryst.   s(11) = (     0          0         -1      )
                  (     0          1          0      )
                  (     1          0          0      )

 cart.    s(11) = (  0.0000000  0.0000000  1.0000000 )
                  (  0.0000000  1.0000000  0.0000000 )
                  ( -1.0000000  0.0000000  0.0000000 )


      isym = 12      90 deg rotation - cart. axis [0,-1,0]       

 cryst.   s(12) = (     0          0          1      )
                  (     0          1          0      )
                  (    -1          0          0      )

 cart.    s(12) = (  0.0000000  0.0000000 -1.0000000 )
                  (  0.0000000  1.0000000  0.0000000 )
                  (  1.0000000  0.0000000  0.0000000 )


      isym = 13     180 deg rotation - cart. axis [0,1,1]        

 cryst.   s(13) = (    -1          0          0      )
                  (     0          0          1      )
                  (     0          1          0      )

 cart.    s(13) = ( -1.0000000  0.0000000  0.0000000 )
                  (  0.0000000  0.0000000  1.0000000 )
                  (  0.0000000  1.0000000  0.0000000 )


      isym = 14     180 deg rotation - cart. axis [0,1,-1]       

 cryst.   s(14) = (    -1          0          0      )
                  (     0          0         -1      )
                  (     0         -1          0      )

 cart.    s(14) = ( -1.0000000  0.0000000  0.0000000 )
                  (  0.0000000  0.0000000 -1.0000000 )
                  (  0.0000000 -1.0000000  0.0000000 )


      isym = 15      90 deg rotation - cart. axis [-1,0,0]       

 cryst.   s(15) = (     1          0          0      )
                  (     0          0         -1      )
                  (     0          1          0      )

 cart.    s(15) = (  1.0000000  0.0000000  0.0000000 )
                  (  0.0000000  0.0000000  1.0000000 )
                  (  0.0000000 -1.0000000  0.0000000 )


      isym = 16      90 deg rotation - cart. axis [1,0,0]        

 cryst.   s(16) = (     1          0          0      )
                  (     0          0          1      )
                  (     0         -1          0      )

 cart.    s(16) = (  1.0000000  0.0000000  0.0000000 )
                  (  0.0000000  0.0000000 -1.0000000 )
                  (  0.0000000  1.0000000  0.0000000 )


      isym = 17     120 deg rotation - cart. axis [-1,-1,-1]     

 cryst.   s(17) = (     0          0          1      )
                  (     1          0          0      )
                  (     0          1          0      )

 cart.    s(17) = (  0.0000000  1.0000000  0.0000000 )
                  (  0.0000000  0.0000000  1.0000000 )
                  (  1.0000000  0.0000000  0.0000000 )


      isym = 18     120 deg rotation - cart. axis [-1,1,1]       

 cryst.   s(18) = (     0          0         -1      )
                  (    -1          0          0      )
                  (     0          1          0      )

 cart.    s(18) = (  0.0000000 -1.0000000  0.0000000 )
                  (  0.0000000  0.0000000  1.0000000 )
                  ( -1.0000000  0.0000000  0.0000000 )


      isym = 19     120 deg rotation - cart. axis [1,1,-1]       

 cryst.   s(19) = (     0          0         -1      )
                  (     1          0          0      )
                  (     0         -1          0      )

 cart.    s(19) = (  0.0000000  1.0000000  0.0000000 )
                  (  0.0000000  0.0000000 -1.0000000 )
                  ( -1.0000000  0.0000000  0.0000000 )


      isym = 20     120 deg rotation - cart. axis [1,-1,1]       

 cryst.   s(20) = (     0          0          1      )
                  (    -1          0          0      )
                  (     0         -1          0      )

 cart.    s(20) = (  0.0000000 -1.0000000  0.0000000 )
                  (  0.0000000  0.0000000 -1.0000000 )
                  (  1.0000000  0.0000000  0.0000000 )


      isym = 21     120 deg rotation - cart. axis [1,1,1]        

 cryst.   s(21) = (     0          1          0      )
                  (     0          0          1      )
                  (     1          0          0      )

 cart.    s(21) = (  0.0000000  0.0000000  1.0000000 )
                  (  1.0000000  0.0000000  0.0000000 )
                  (  0.0000000  1.0000000  0.0000000 )


      isym = 22     120 deg rotation - cart. axis [-1,1,-1]      

 cryst.   s(22) = (     0         -1          0      )
                  (     0          0         -1      )
                  (     1          0          0      )

 cart.    s(22) = (  0.0000000  0.0000000  1.0000000 )
                  ( -1.0000000  0.0000000  0.0000000 )
                  (  0.0000000 -1.0000000  0.0000000 )


      isym = 23     120 deg rotation - cart. axis [1,-1,-1]      

 cryst.   s(23) = (     0         -1          0      )
                  (     0          0          1      )
                  (    -1          0          0      )

 cart.    s(23) = (  0.0000000  0.0000000 -1.0000000 )
                  ( -1.0000000  0.0000000  0.0000000 )
                  (  0.0000000  1.0000000  0.0000000 )


      isym = 24     120 deg rotation - cart. axis [-1,-1,1]      

 cryst.   s(24) = (     0          1          0      )
                  (     0          0         -1      )
                  (    -1          0          0      )

 cart.    s(24) = (  0.0000000  0.0000000 -1.0000000 )
                  (  1.0000000  0.0000000  0.0000000 )
                  (  0.0000000 -1.0000000  0.0000000 )


      isym = 25     inversion                                    

 cryst.   s(25) = (    -1          0          0      )
                  (     0         -1          0      )
                  (     0          0         -1      )

 cart.    s(25) = ( -1.0000000  0.0000000  0.0000000 )
                  (  0.0000000 -1.0000000  0.0000000 )
                  (  0.0000000  0.0000000 -1.0000000 )


      isym = 26     inv. 180 deg rotation - cart. axis [0,0,1]   

 cryst.   s(26) = (     1          0          0      )
                  (     0          1          0      )
                  (     0          0         -1      )

 cart.    s(26) = (  1.0000000  0.0000000  0.0000000 )
                  (  0.0000000  1.0000000  0.0000000 )
                  (  0.0000000  0.0000000 -1.0000000 )


      isym = 27     inv. 180 deg rotation - cart. axis [0,1,0]   

 cryst.   s(27) = (     1          0          0      )
                  (     0         -1          0      )
                  (     0          0          1      )

 cart.    s(27) = (  1.0000000  0.0000000  0.0000000 )
                  (  0.0000000 -1.0000000  0.0000000 )
                  (  0.0000000  0.0000000  1.0000000 )


      isym = 28     inv. 180 deg rotation - cart. axis [1,0,0]   

 cryst.   s(28) = (    -1          0          0      )
                  (     0          1          0      )
                  (     0          0          1      )

 cart.    s(28) = ( -1.0000000  0.0000000  0.0000000 )
                  (  0.0000000  1.0000000  0.0000000 )
                  (  0.0000000  0.0000000  1.0000000 )


      isym = 29     inv. 180 deg rotation - cart. axis [1,1,0]   

 cryst.   s(29) = (     0         -1          0      )
                  (    -1          0          0      )
                  (     0          0          1      )

 cart.    s(29) = (  0.0000000 -1.0000000  0.0000000 )
                  ( -1.0000000  0.0000000  0.0000000 )
                  (  0.0000000  0.0000000  1.0000000 )


      isym = 30     inv. 180 deg rotation - cart. axis [1,-1,0]  

 cryst.   s(30) = (     0          1          0      )
                  (     1          0          0      )
                  (     0          0          1      )

 cart.    s(30) = (  0.0000000  1.0000000  0.0000000 )
                  (  1.0000000  0.0000000  0.0000000 )
                  (  0.0000000  0.0000000  1.0000000 )


      isym = 31     inv.  90 deg rotation - cart. axis [0,0,-1]  

 cryst.   s(31) = (     0          1          0      )
                  (    -1          0          0      )
                  (     0          0         -1      )

 cart.    s(31) = (  0.0000000 -1.0000000  0.0000000 )
                  (  1.0000000  0.0000000  0.0000000 )
                  (  0.0000000  0.0000000 -1.0000000 )


      isym = 32     inv.  90 deg rotation - cart. axis [0,0,1]   

 cryst.   s(32) = (     0         -1          0      )
                  (     1          0          0      )
                  (     0          0         -1      )

 cart.    s(32) = (  0.0000000  1.0000000  0.0000000 )
                  ( -1.0000000  0.0000000  0.0000000 )
                  (  0.0000000  0.0000000 -1.0000000 )


      isym = 33     inv. 180 deg rotation - cart. axis [1,0,1]   

 cryst.   s(33) = (     0          0         -1      )
                  (     0          1          0      )
                  (    -1          0          0      )

 cart.    s(33) = (  0.0000000  0.0000000 -1.0000000 )
                  (  0.0000000  1.0000000  0.0000000 )
                  ( -1.0000000  0.0000000  0.0000000 )


      isym = 34     inv. 180 deg rotation - cart. axis [-1,0,1]  

 cryst.   s(34) = (     0          0          1      )
                  (     0          1          0      )
                  (     1          0          0      )

 cart.    s(34) = (  0.0000000  0.0000000  1.0000000 )
                  (  0.0000000  1.0000000  0.0000000 )
                  (  1.0000000  0.0000000  0.0000000 )


      isym = 35     inv.  90 deg rotation - cart. axis [0,1,0]   

 cryst.   s(35) = (     0          0          1      )
                  (     0         -1          0      )
                  (    -1          0          0      )

 cart.    s(35) = (  0.0000000  0.0000000 -1.0000000 )
                  (  0.0000000 -1.0000000  0.0000000 )
                  (  1.0000000  0.0000000  0.0000000 )


      isym = 36     inv.  90 deg rotation - cart. axis [0,-1,0]  

 cryst.   s(36) = (     0          0         -1      )
                  (     0         -1          0      )
                  (     1          0          0      )

 cart.    s(36) = (  0.0000000  0.0000000  1.0000000 )
                  (  0.0000000 -1.0000000  0.0000000 )
                  ( -1.0000000  0.0000000  0.0000000 )


      isym = 37     inv. 180 deg rotation - cart. axis [0,1,1]   

 cryst.   s(37) = (     1          0          0      )
                  (     0          0         -1      )
                  (     0         -1          0      )

 cart.    s(37) = (  1.0000000  0.0000000  0.0000000 )
                  (  0.0000000  0.0000000 -1.0000000 )
                  (  0.0000000 -1.0000000  0.0000000 )


      isym = 38     inv. 180 deg rotation - cart. axis [0,1,-1]  

 cryst.   s(38) = (     1          0          0      )
                  (     0          0          1      )
                  (     0          1          0      )

 cart.    s(38) = (  1.0000000  0.0000000  0.0000000 )
                  (  0.0000000  0.0000000  1.0000000 )
                  (  0.0000000  1.0000000  0.0000000 )


      isym = 39     inv.  90 deg rotation - cart. axis [-1,0,0]  

 cryst.   s(39) = (    -1          0          0      )
                  (     0          0          1      )
                  (     0         -1          0      )

 cart.    s(39) = ( -1.0000000  0.0000000  0.0000000 )
                  (  0.0000000  0.0000000 -1.0000000 )
                  (  0.0000000  1.0000000  0.0000000 )


      isym = 40     inv.  90 deg rotation - cart. axis [1,0,0]   

 cryst.   s(40) = (    -1          0          0      )
                  (     0          0         -1      )
                  (     0          1          0      )

 cart.    s(40) = ( -1.0000000  0.0000000  0.0000000 )
                  (  0.0000000  0.0000000  1.0000000 )
                  (  0.0000000 -1.0000000  0.0000000 )


      isym = 41     inv. 120 deg rotation - cart. axis [-1,-1,-1]

 cryst.   s(41) = (     0          0         -1      )
                  (    -1          0          0      )
                  (     0         -1          0      )

 cart.    s(41) = (  0.0000000 -1.0000000  0.0000000 )
                  (  0.0000000  0.0000000 -1.0000000 )
                  ( -1.0000000  0.0000000  0.0000000 )


      isym = 42     inv. 120 deg rotation - cart. axis [-1,1,1]  

 cryst.   s(42) = (     0          0          1      )
                  (     1          0          0      )
                  (     0         -1          0      )

 cart.    s(42) = (  0.0000000  1.0000000  0.0000000 )
                  (  0.0000000  0.0000000 -1.0000000 )
                  (  1.0000000  0.0000000  0.0000000 )


      isym = 43     inv. 120 deg rotation - cart. axis [1,1,-1]  

 cryst.   s(43) = (     0          0          1      )
                  (    -1          0          0      )
                  (     0          1          0      )

 cart.    s(43) = (  0.0000000 -1.0000000  0.0000000 )
                  (  0.0000000  0.0000000  1.0000000 )
                  (  1.0000000  0.0000000  0.0000000 )


      isym = 44     inv. 120 deg rotation - cart. axis [1,-1,1]  

 cryst.   s(44) = (     0          0         -1      )
                  (     1          0          0      )
                  (     0          1          0      )

 cart.    s(44) = (  0.0000000  1.0000000  0.0000000 )
                  (  0.0000000  0.0000000  1.0000000 )
                  ( -1.0000000  0.0000000  0.0000000 )


      isym = 45     inv. 120 deg rotation - cart. axis [1,1,1]   

 cryst.   s(45) = (     0         -1          0      )
                  (     0          0         -1      )
                  (    -1          0          0      )

 cart.    s(45) = (  0.0000000  0.0000000 -1.0000000 )
                  ( -1.0000000  0.0000000  0.0000000 )
                  (  0.0000000 -1.0000000  0.0000000 )


      isym = 46     inv. 120 deg rotation - cart. axis [-1,1,-1] 

 cryst.   s(46) = (     0          1          0      )
                  (     0          0          1      )
                  (    -1          0          0      )

 cart.    s(46) = (  0.0000000  0.0000000 -1.0000000 )
                  (  1.0000000  0.0000000  0.0000000 )
                  (  0.0000000  1.0000000  0.0000000 )


      isym = 47     inv. 120 deg rotation - cart. axis [1,-1,-1] 

 cryst.   s(47) = (     0          1          0      )
                  (     0          0         -1      )
                  (     1          0          0      )

 cart.    s(47) = (  0.0000000  0.0000000  1.0000000 )
                  (  1.0000000  0.0000000  0.0000000 )
                  (  0.0000000 -1.0000000  0.0000000 )


      isym = 48     inv. 120 deg rotation - cart. axis [-1,-1,1] 

 cryst.   s(48) = (     0         -1          0      )
                  (     0          0          1      )
                  (     1          0          0      )

 cart.    s(48) = (  0.0000000  0.0000000  1.0000000 )
                  ( -1.0000000  0.0000000  0.0000000 )
                  (  0.0000000  1.0000000  0.0000000 )


   Cartesian axes

     site n.     atom                  positions (alat units)
         1           O   tau(   1) = (   0.5000000   0.0000000   0.5000000  )
         2           O   tau(   2) = (   0.5000000   0.5000000   0.0000000  )
         3           O   tau(   3) = (   0.0000000   0.5000000   0.5000000  )
         4           Ti  tau(   4) = (   0.5000000   0.5000000   0.5000000  )
         5           Sr  tau(   5) = (   0.0000000   0.0000000   0.0000000  )

   Crystallographic axes

     site n.     atom                  positions (cryst. coord.)
         1           O   tau(   1) = (  0.5000000  0.0000000  0.5000000  )
         2           O   tau(   2) = (  0.5000000  0.5000000  0.0000000  )
         3           O   tau(   3) = (  0.0000000  0.5000000  0.5000000  )
         4           Ti  tau(   4) = (  0.5000000  0.5000000  0.5000000  )
         5           Sr  tau(   5) = (  0.0000000  0.0000000  0.0000000  )

     number of k points=   165  Marzari-Vanderbilt smearing, width (Ry)=  0.0010
                       cart. coord. in units 2pi/alat
        k(    1) = (   0.0000000   0.0000000   0.0000000), wk =   0.0004883
        k(    2) = (   0.0000000   0.0000000   0.0625000), wk =   0.0029297
        k(    3) = (   0.0000000   0.0000000   0.1250000), wk =   0.0029297
        k(    4) = (   0.0000000   0.0000000   0.1875000), wk =   0.0029297
        k(    5) = (   0.0000000   0.0000000   0.2500000), wk =   0.0029297
        k(    6) = (   0.0000000   0.0000000   0.3125000), wk =   0.0029297
        k(    7) = (   0.0000000   0.0000000   0.3750000), wk =   0.0029297
        k(    8) = (   0.0000000   0.0000000   0.4375000), wk =   0.0029297
        k(    9) = (   0.0000000   0.0000000  -0.5000000), wk =   0.0014648
        k(   10) = (   0.0000000   0.0625000   0.0625000), wk =   0.0058594
        k(   11) = (   0.0000000   0.0625000   0.1250000), wk =   0.0117188
        k(   12) = (   0.0000000   0.0625000   0.1875000), wk =   0.0117188
        k(   13) = (   0.0000000   0.0625000   0.2500000), wk =   0.0117188
        k(   14) = (   0.0000000   0.0625000   0.3125000), wk =   0.0117188
        k(   15) = (   0.0000000   0.0625000   0.3750000), wk =   0.0117188
        k(   16) = (   0.0000000   0.0625000   0.4375000), wk =   0.0117188
        k(   17) = (   0.0000000   0.0625000  -0.5000000), wk =   0.0058594
        k(   18) = (   0.0000000   0.1250000   0.1250000), wk =   0.0058594
        k(   19) = (   0.0000000   0.1250000   0.1875000), wk =   0.0117188
        k(   20) = (   0.0000000   0.1250000   0.2500000), wk =   0.0117188
        k(   21) = (   0.0000000   0.1250000   0.3125000), wk =   0.0117188
        k(   22) = (   0.0000000   0.1250000   0.3750000), wk =   0.0117188
        k(   23) = (   0.0000000   0.1250000   0.4375000), wk =   0.0117188
        k(   24) = (   0.0000000   0.1250000  -0.5000000), wk =   0.0058594
        k(   25) = (   0.0000000   0.1875000   0.1875000), wk =   0.0058594
        k(   26) = (   0.0000000   0.1875000   0.2500000), wk =   0.0117188
        k(   27) = (   0.0000000   0.1875000   0.3125000), wk =   0.0117188
        k(   28) = (   0.0000000   0.1875000   0.3750000), wk =   0.0117188
        k(   29) = (   0.0000000   0.1875000   0.4375000), wk =   0.0117188
        k(   30) = (   0.0000000   0.1875000  -0.5000000), wk =   0.0058594
        k(   31) = (   0.0000000   0.2500000   0.2500000), wk =   0.0058594
        k(   32) = (   0.0000000   0.2500000   0.3125000), wk =   0.0117188
        k(   33) = (   0.0000000   0.2500000   0.3750000), wk =   0.0117188
        k(   34) = (   0.0000000   0.2500000   0.4375000), wk =   0.0117188
        k(   35) = (   0.0000000   0.2500000  -0.5000000), wk =   0.0058594
        k(   36) = (   0.0000000   0.3125000   0.3125000), wk =   0.0058594
        k(   37) = (   0.0000000   0.3125000   0.3750000), wk =   0.0117188
        k(   38) = (   0.0000000   0.3125000   0.4375000), wk =   0.0117188
        k(   39) = (   0.0000000   0.3125000  -0.5000000), wk =   0.0058594
        k(   40) = (   0.0000000   0.3750000   0.3750000), wk =   0.0058594
        k(   41) = (   0.0000000   0.3750000   0.4375000), wk =   0.0117188
        k(   42) = (   0.0000000   0.3750000  -0.5000000), wk =   0.0058594
        k(   43) = (   0.0000000   0.4375000   0.4375000), wk =   0.0058594
        k(   44) = (   0.0000000   0.4375000  -0.5000000), wk =   0.0058594
        k(   45) = (   0.0000000  -0.5000000  -0.5000000), wk =   0.0014648
        k(   46) = (   0.0625000   0.0625000   0.0625000), wk =   0.0039062
        k(   47) = (   0.0625000   0.0625000   0.1250000), wk =   0.0117188
        k(   48) = (   0.0625000   0.0625000   0.1875000), wk =   0.0117188
        k(   49) = (   0.0625000   0.0625000   0.2500000), wk =   0.0117188
        k(   50) = (   0.0625000   0.0625000   0.3125000), wk =   0.0117188
        k(   51) = (   0.0625000   0.0625000   0.3750000), wk =   0.0117188
        k(   52) = (   0.0625000   0.0625000   0.4375000), wk =   0.0117188
        k(   53) = (   0.0625000   0.0625000  -0.5000000), wk =   0.0058594
        k(   54) = (   0.0625000   0.1250000   0.1250000), wk =   0.0117188
        k(   55) = (   0.0625000   0.1250000   0.1875000), wk =   0.0234375
        k(   56) = (   0.0625000   0.1250000   0.2500000), wk =   0.0234375
        k(   57) = (   0.0625000   0.1250000   0.3125000), wk =   0.0234375
        k(   58) = (   0.0625000   0.1250000   0.3750000), wk =   0.0234375
        k(   59) = (   0.0625000   0.1250000   0.4375000), wk =   0.0234375
        k(   60) = (   0.0625000   0.1250000  -0.5000000), wk =   0.0117188
        k(   61) = (   0.0625000   0.1875000   0.1875000), wk =   0.0117188
        k(   62) = (   0.0625000   0.1875000   0.2500000), wk =   0.0234375
        k(   63) = (   0.0625000   0.1875000   0.3125000), wk =   0.0234375
        k(   64) = (   0.0625000   0.1875000   0.3750000), wk =   0.0234375
        k(   65) = (   0.0625000   0.1875000   0.4375000), wk =   0.0234375
        k(   66) = (   0.0625000   0.1875000  -0.5000000), wk =   0.0117188
        k(   67) = (   0.0625000   0.2500000   0.2500000), wk =   0.0117188
        k(   68) = (   0.0625000   0.2500000   0.3125000), wk =   0.0234375
        k(   69) = (   0.0625000   0.2500000   0.3750000), wk =   0.0234375
        k(   70) = (   0.0625000   0.2500000   0.4375000), wk =   0.0234375
        k(   71) = (   0.0625000   0.2500000  -0.5000000), wk =   0.0117188
        k(   72) = (   0.0625000   0.3125000   0.3125000), wk =   0.0117188
        k(   73) = (   0.0625000   0.3125000   0.3750000), wk =   0.0234375
        k(   74) = (   0.0625000   0.3125000   0.4375000), wk =   0.0234375
        k(   75) = (   0.0625000   0.3125000  -0.5000000), wk =   0.0117188
        k(   76) = (   0.0625000   0.3750000   0.3750000), wk =   0.0117188
        k(   77) = (   0.0625000   0.3750000   0.4375000), wk =   0.0234375
        k(   78) = (   0.0625000   0.3750000  -0.5000000), wk =   0.0117188
        k(   79) = (   0.0625000   0.4375000   0.4375000), wk =   0.0117188
        k(   80) = (   0.0625000   0.4375000  -0.5000000), wk =   0.0117188
        k(   81) = (   0.0625000  -0.5000000  -0.5000000), wk =   0.0029297
        k(   82) = (   0.1250000   0.1250000   0.1250000), wk =   0.0039062
        k(   83) = (   0.1250000   0.1250000   0.1875000), wk =   0.0117188
        k(   84) = (   0.1250000   0.1250000   0.2500000), wk =   0.0117188
        k(   85) = (   0.1250000   0.1250000   0.3125000), wk =   0.0117188
        k(   86) = (   0.1250000   0.1250000   0.3750000), wk =   0.0117188
        k(   87) = (   0.1250000   0.1250000   0.4375000), wk =   0.0117188
        k(   88) = (   0.1250000   0.1250000  -0.5000000), wk =   0.0058594
        k(   89) = (   0.1250000   0.1875000   0.1875000), wk =   0.0117188
        k(   90) = (   0.1250000   0.1875000   0.2500000), wk =   0.0234375
        k(   91) = (   0.1250000   0.1875000   0.3125000), wk =   0.0234375
        k(   92) = (   0.1250000   0.1875000   0.3750000), wk =   0.0234375
        k(   93) = (   0.1250000   0.1875000   0.4375000), wk =   0.0234375
        k(   94) = (   0.1250000   0.1875000  -0.5000000), wk =   0.0117188
        k(   95) = (   0.1250000   0.2500000   0.2500000), wk =   0.0117188
        k(   96) = (   0.1250000   0.2500000   0.3125000), wk =   0.0234375
        k(   97) = (   0.1250000   0.2500000   0.3750000), wk =   0.0234375
        k(   98) = (   0.1250000   0.2500000   0.4375000), wk =   0.0234375
        k(   99) = (   0.1250000   0.2500000  -0.5000000), wk =   0.0117188
        k(  100) = (   0.1250000   0.3125000   0.3125000), wk =   0.0117188
        k(  101) = (   0.1250000   0.3125000   0.3750000), wk =   0.0234375
        k(  102) = (   0.1250000   0.3125000   0.4375000), wk =   0.0234375
        k(  103) = (   0.1250000   0.3125000  -0.5000000), wk =   0.0117188
        k(  104) = (   0.1250000   0.3750000   0.3750000), wk =   0.0117188
        k(  105) = (   0.1250000   0.3750000   0.4375000), wk =   0.0234375
        k(  106) = (   0.1250000   0.3750000  -0.5000000), wk =   0.0117188
        k(  107) = (   0.1250000   0.4375000   0.4375000), wk =   0.0117188
        k(  108) = (   0.1250000   0.4375000  -0.5000000), wk =   0.0117188
        k(  109) = (   0.1250000  -0.5000000  -0.5000000), wk =   0.0029297
        k(  110) = (   0.1875000   0.1875000   0.1875000), wk =   0.0039062
        k(  111) = (   0.1875000   0.1875000   0.2500000), wk =   0.0117188
        k(  112) = (   0.1875000   0.1875000   0.3125000), wk =   0.0117188
        k(  113) = (   0.1875000   0.1875000   0.3750000), wk =   0.0117188
        k(  114) = (   0.1875000   0.1875000   0.4375000), wk =   0.0117188
        k(  115) = (   0.1875000   0.1875000  -0.5000000), wk =   0.0058594
        k(  116) = (   0.1875000   0.2500000   0.2500000), wk =   0.0117188
        k(  117) = (   0.1875000   0.2500000   0.3125000), wk =   0.0234375
        k(  118) = (   0.1875000   0.2500000   0.3750000), wk =   0.0234375
        k(  119) = (   0.1875000   0.2500000   0.4375000), wk =   0.0234375
        k(  120) = (   0.1875000   0.2500000  -0.5000000), wk =   0.0117188
        k(  121) = (   0.1875000   0.3125000   0.3125000), wk =   0.0117188
        k(  122) = (   0.1875000   0.3125000   0.3750000), wk =   0.0234375
        k(  123) = (   0.1875000   0.3125000   0.4375000), wk =   0.0234375
        k(  124) = (   0.1875000   0.3125000  -0.5000000), wk =   0.0117188
        k(  125) = (   0.1875000   0.3750000   0.3750000), wk =   0.0117188
        k(  126) = (   0.1875000   0.3750000   0.4375000), wk =   0.0234375
        k(  127) = (   0.1875000   0.3750000  -0.5000000), wk =   0.0117188
        k(  128) = (   0.1875000   0.4375000   0.4375000), wk =   0.0117188
        k(  129) = (   0.1875000   0.4375000  -0.5000000), wk =   0.0117188
        k(  130) = (   0.1875000  -0.5000000  -0.5000000), wk =   0.0029297
        k(  131) = (   0.2500000   0.2500000   0.2500000), wk =   0.0039062
        k(  132) = (   0.2500000   0.2500000   0.3125000), wk =   0.0117188
        k(  133) = (   0.2500000   0.2500000   0.3750000), wk =   0.0117188
        k(  134) = (   0.2500000   0.2500000   0.4375000), wk =   0.0117188
        k(  135) = (   0.2500000   0.2500000  -0.5000000), wk =   0.0058594
        k(  136) = (   0.2500000   0.3125000   0.3125000), wk =   0.0117188
        k(  137) = (   0.2500000   0.3125000   0.3750000), wk =   0.0234375
        k(  138) = (   0.2500000   0.3125000   0.4375000), wk =   0.0234375
        k(  139) = (   0.2500000   0.3125000  -0.5000000), wk =   0.0117188
        k(  140) = (   0.2500000   0.3750000   0.3750000), wk =   0.0117188
        k(  141) = (   0.2500000   0.3750000   0.4375000), wk =   0.0234375
        k(  142) = (   0.2500000   0.3750000  -0.5000000), wk =   0.0117188
        k(  143) = (   0.2500000   0.4375000   0.4375000), wk =   0.0117188
        k(  144) = (   0.2500000   0.4375000  -0.5000000), wk =   0.0117188
        k(  145) = (   0.2500000  -0.5000000  -0.5000000), wk =   0.0029297
        k(  146) = (   0.3125000   0.3125000   0.3125000), wk =   0.0039062
        k(  147) = (   0.3125000   0.3125000   0.3750000), wk =   0.0117188
        k(  148) = (   0.3125000   0.3125000   0.4375000), wk =   0.0117188
        k(  149) = (   0.3125000   0.3125000  -0.5000000), wk =   0.0058594
        k(  150) = (   0.3125000   0.3750000   0.3750000), wk =   0.0117188
        k(  151) = (   0.3125000   0.3750000   0.4375000), wk =   0.0234375
        k(  152) = (   0.3125000   0.3750000  -0.5000000), wk =   0.0117188
        k(  153) = (   0.3125000   0.4375000   0.4375000), wk =   0.0117188
        k(  154) = (   0.3125000   0.4375000  -0.5000000), wk =   0.0117188
        k(  155) = (   0.3125000  -0.5000000  -0.5000000), wk =   0.0029297
        k(  156) = (   0.3750000   0.3750000   0.3750000), wk =   0.0039062
        k(  157) = (   0.3750000   0.3750000   0.4375000), wk =   0.0117188
        k(  158) = (   0.3750000   0.3750000  -0.5000000), wk =   0.0058594
        k(  159) = (   0.3750000   0.4375000   0.4375000), wk =   0.0117188
        k(  160) = (   0.3750000   0.4375000  -0.5000000), wk =   0.0117188
        k(  161) = (   0.3750000  -0.5000000  -0.5000000), wk =   0.0029297
        k(  162) = (   0.4375000   0.4375000   0.4375000), wk =   0.0039062
        k(  163) = (   0.4375000   0.4375000  -0.5000000), wk =   0.0058594
        k(  164) = (   0.4375000  -0.5000000  -0.5000000), wk =   0.0029297
        k(  165) = (  -0.5000000  -0.5000000  -0.5000000), wk =   0.0004883

                       cryst. coord.
        k(    1) = (   0.0000000   0.0000000   0.0000000), wk =   0.0004883
        k(    2) = (   0.0000000   0.0000000   0.0625000), wk =   0.0029297
        k(    3) = (   0.0000000   0.0000000   0.1250000), wk =   0.0029297
        k(    4) = (   0.0000000   0.0000000   0.1875000), wk =   0.0029297
        k(    5) = (   0.0000000   0.0000000   0.2500000), wk =   0.0029297
        k(    6) = (   0.0000000   0.0000000   0.3125000), wk =   0.0029297
        k(    7) = (   0.0000000   0.0000000   0.3750000), wk =   0.0029297
        k(    8) = (   0.0000000   0.0000000   0.4375000), wk =   0.0029297
        k(    9) = (   0.0000000   0.0000000  -0.5000000), wk =   0.0014648
        k(   10) = (   0.0000000   0.0625000   0.0625000), wk =   0.0058594
        k(   11) = (   0.0000000   0.0625000   0.1250000), wk =   0.0117188
        k(   12) = (   0.0000000   0.0625000   0.1875000), wk =   0.0117188
        k(   13) = (   0.0000000   0.0625000   0.2500000), wk =   0.0117188
        k(   14) = (   0.0000000   0.0625000   0.3125000), wk =   0.0117188
        k(   15) = (   0.0000000   0.0625000   0.3750000), wk =   0.0117188
        k(   16) = (   0.0000000   0.0625000   0.4375000), wk =   0.0117188
        k(   17) = (   0.0000000   0.0625000  -0.5000000), wk =   0.0058594
        k(   18) = (   0.0000000   0.1250000   0.1250000), wk =   0.0058594
        k(   19) = (   0.0000000   0.1250000   0.1875000), wk =   0.0117188
        k(   20) = (   0.0000000   0.1250000   0.2500000), wk =   0.0117188
        k(   21) = (   0.0000000   0.1250000   0.3125000), wk =   0.0117188
        k(   22) = (   0.0000000   0.1250000   0.3750000), wk =   0.0117188
        k(   23) = (   0.0000000   0.1250000   0.4375000), wk =   0.0117188
        k(   24) = (   0.0000000   0.1250000  -0.5000000), wk =   0.0058594
        k(   25) = (   0.0000000   0.1875000   0.1875000), wk =   0.0058594
        k(   26) = (   0.0000000   0.1875000   0.2500000), wk =   0.0117188
        k(   27) = (   0.0000000   0.1875000   0.3125000), wk =   0.0117188
        k(   28) = (   0.0000000   0.1875000   0.3750000), wk =   0.0117188
        k(   29) = (   0.0000000   0.1875000   0.4375000), wk =   0.0117188
        k(   30) = (   0.0000000   0.1875000  -0.5000000), wk =   0.0058594
        k(   31) = (   0.0000000   0.2500000   0.2500000), wk =   0.0058594
        k(   32) = (   0.0000000   0.2500000   0.3125000), wk =   0.0117188
        k(   33) = (   0.0000000   0.2500000   0.3750000), wk =   0.0117188
        k(   34) = (   0.0000000   0.2500000   0.4375000), wk =   0.0117188
        k(   35) = (   0.0000000   0.2500000  -0.5000000), wk =   0.0058594
        k(   36) = (   0.0000000   0.3125000   0.3125000), wk =   0.0058594
        k(   37) = (   0.0000000   0.3125000   0.3750000), wk =   0.0117188
        k(   38) = (   0.0000000   0.3125000   0.4375000), wk =   0.0117188
        k(   39) = (   0.0000000   0.3125000  -0.5000000), wk =   0.0058594
        k(   40) = (   0.0000000   0.3750000   0.3750000), wk =   0.0058594
        k(   41) = (   0.0000000   0.3750000   0.4375000), wk =   0.0117188
        k(   42) = (   0.0000000   0.3750000  -0.5000000), wk =   0.0058594
        k(   43) = (   0.0000000   0.4375000   0.4375000), wk =   0.0058594
        k(   44) = (   0.0000000   0.4375000  -0.5000000), wk =   0.0058594
        k(   45) = (   0.0000000  -0.5000000  -0.5000000), wk =   0.0014648
        k(   46) = (   0.0625000   0.0625000   0.0625000), wk =   0.0039062
        k(   47) = (   0.0625000   0.0625000   0.1250000), wk =   0.0117188
        k(   48) = (   0.0625000   0.0625000   0.1875000), wk =   0.0117188
        k(   49) = (   0.0625000   0.0625000   0.2500000), wk =   0.0117188
        k(   50) = (   0.0625000   0.0625000   0.3125000), wk =   0.0117188
        k(   51) = (   0.0625000   0.0625000   0.3750000), wk =   0.0117188
        k(   52) = (   0.0625000   0.0625000   0.4375000), wk =   0.0117188
        k(   53) = (   0.0625000   0.0625000  -0.5000000), wk =   0.0058594
        k(   54) = (   0.0625000   0.1250000   0.1250000), wk =   0.0117188
        k(   55) = (   0.0625000   0.1250000   0.1875000), wk =   0.0234375
        k(   56) = (   0.0625000   0.1250000   0.2500000), wk =   0.0234375
        k(   57) = (   0.0625000   0.1250000   0.3125000), wk =   0.0234375
        k(   58) = (   0.0625000   0.1250000   0.3750000), wk =   0.0234375
        k(   59) = (   0.0625000   0.1250000   0.4375000), wk =   0.0234375
        k(   60) = (   0.0625000   0.1250000  -0.5000000), wk =   0.0117188
        k(   61) = (   0.0625000   0.1875000   0.1875000), wk =   0.0117188
        k(   62) = (   0.0625000   0.1875000   0.2500000), wk =   0.0234375
        k(   63) = (   0.0625000   0.1875000   0.3125000), wk =   0.0234375
        k(   64) = (   0.0625000   0.1875000   0.3750000), wk =   0.0234375
        k(   65) = (   0.0625000   0.1875000   0.4375000), wk =   0.0234375
        k(   66) = (   0.0625000   0.1875000  -0.5000000), wk =   0.0117188
        k(   67) = (   0.0625000   0.2500000   0.2500000), wk =   0.0117188
        k(   68) = (   0.0625000   0.2500000   0.3125000), wk =   0.0234375
        k(   69) = (   0.0625000   0.2500000   0.3750000), wk =   0.0234375
        k(   70) = (   0.0625000   0.2500000   0.4375000), wk =   0.0234375
        k(   71) = (   0.0625000   0.2500000  -0.5000000), wk =   0.0117188
        k(   72) = (   0.0625000   0.3125000   0.3125000), wk =   0.0117188
        k(   73) = (   0.0625000   0.3125000   0.3750000), wk =   0.0234375
        k(   74) = (   0.0625000   0.3125000   0.4375000), wk =   0.0234375
        k(   75) = (   0.0625000   0.3125000  -0.5000000), wk =   0.0117188
        k(   76) = (   0.0625000   0.3750000   0.3750000), wk =   0.0117188
        k(   77) = (   0.0625000   0.3750000   0.4375000), wk =   0.0234375
        k(   78) = (   0.0625000   0.3750000  -0.5000000), wk =   0.0117188
        k(   79) = (   0.0625000   0.4375000   0.4375000), wk =   0.0117188
        k(   80) = (   0.0625000   0.4375000  -0.5000000), wk =   0.0117188
        k(   81) = (   0.0625000  -0.5000000  -0.5000000), wk =   0.0029297
        k(   82) = (   0.1250000   0.1250000   0.1250000), wk =   0.0039062
        k(   83) = (   0.1250000   0.1250000   0.1875000), wk =   0.0117188
        k(   84) = (   0.1250000   0.1250000   0.2500000), wk =   0.0117188
        k(   85) = (   0.1250000   0.1250000   0.3125000), wk =   0.0117188
        k(   86) = (   0.1250000   0.1250000   0.3750000), wk =   0.0117188
        k(   87) = (   0.1250000   0.1250000   0.4375000), wk =   0.0117188
        k(   88) = (   0.1250000   0.1250000  -0.5000000), wk =   0.0058594
        k(   89) = (   0.1250000   0.1875000   0.1875000), wk =   0.0117188
        k(   90) = (   0.1250000   0.1875000   0.2500000), wk =   0.0234375
        k(   91) = (   0.1250000   0.1875000   0.3125000), wk =   0.0234375
        k(   92) = (   0.1250000   0.1875000   0.3750000), wk =   0.0234375
        k(   93) = (   0.1250000   0.1875000   0.4375000), wk =   0.0234375
        k(   94) = (   0.1250000   0.1875000  -0.5000000), wk =   0.0117188
        k(   95) = (   0.1250000   0.2500000   0.2500000), wk =   0.0117188
        k(   96) = (   0.1250000   0.2500000   0.3125000), wk =   0.0234375
        k(   97) = (   0.1250000   0.2500000   0.3750000), wk =   0.0234375
        k(   98) = (   0.1250000   0.2500000   0.4375000), wk =   0.0234375
        k(   99) = (   0.1250000   0.2500000  -0.5000000), wk =   0.0117188
        k(  100) = (   0.1250000   0.3125000   0.3125000), wk =   0.0117188
        k(  101) = (   0.1250000   0.3125000   0.3750000), wk =   0.0234375
        k(  102) = (   0.1250000   0.3125000   0.4375000), wk =   0.0234375
        k(  103) = (   0.1250000   0.3125000  -0.5000000), wk =   0.0117188
        k(  104) = (   0.1250000   0.3750000   0.3750000), wk =   0.0117188
        k(  105) = (   0.1250000   0.3750000   0.4375000), wk =   0.0234375
        k(  106) = (   0.1250000   0.3750000  -0.5000000), wk =   0.0117188
        k(  107) = (   0.1250000   0.4375000   0.4375000), wk =   0.0117188
        k(  108) = (   0.1250000   0.4375000  -0.5000000), wk =   0.0117188
        k(  109) = (   0.1250000  -0.5000000  -0.5000000), wk =   0.0029297
        k(  110) = (   0.1875000   0.1875000   0.1875000), wk =   0.0039062
        k(  111) = (   0.1875000   0.1875000   0.2500000), wk =   0.0117188
        k(  112) = (   0.1875000   0.1875000   0.3125000), wk =   0.0117188
        k(  113) = (   0.1875000   0.1875000   0.3750000), wk =   0.0117188
        k(  114) = (   0.1875000   0.1875000   0.4375000), wk =   0.0117188
        k(  115) = (   0.1875000   0.1875000  -0.5000000), wk =   0.0058594
        k(  116) = (   0.1875000   0.2500000   0.2500000), wk =   0.0117188
        k(  117) = (   0.1875000   0.2500000   0.3125000), wk =   0.0234375
        k(  118) = (   0.1875000   0.2500000   0.3750000), wk =   0.0234375
        k(  119) = (   0.1875000   0.2500000   0.4375000), wk =   0.0234375
        k(  120) = (   0.1875000   0.2500000  -0.5000000), wk =   0.0117188
        k(  121) = (   0.1875000   0.3125000   0.3125000), wk =   0.0117188
        k(  122) = (   0.1875000   0.3125000   0.3750000), wk =   0.0234375
        k(  123) = (   0.1875000   0.3125000   0.4375000), wk =   0.0234375
        k(  124) = (   0.1875000   0.3125000  -0.5000000), wk =   0.0117188
        k(  125) = (   0.1875000   0.3750000   0.3750000), wk =   0.0117188
        k(  126) = (   0.1875000   0.3750000   0.4375000), wk =   0.0234375
        k(  127) = (   0.1875000   0.3750000  -0.5000000), wk =   0.0117188
        k(  128) = (   0.1875000   0.4375000   0.4375000), wk =   0.0117188
        k(  129) = (   0.1875000   0.4375000  -0.5000000), wk =   0.0117188
        k(  130) = (   0.1875000  -0.5000000  -0.5000000), wk =   0.0029297
        k(  131) = (   0.2500000   0.2500000   0.2500000), wk =   0.0039062
        k(  132) = (   0.2500000   0.2500000   0.3125000), wk =   0.0117188
        k(  133) = (   0.2500000   0.2500000   0.3750000), wk =   0.0117188
        k(  134) = (   0.2500000   0.2500000   0.4375000), wk =   0.0117188
        k(  135) = (   0.2500000   0.2500000  -0.5000000), wk =   0.0058594
        k(  136) = (   0.2500000   0.3125000   0.3125000), wk =   0.0117188
        k(  137) = (   0.2500000   0.3125000   0.3750000), wk =   0.0234375
        k(  138) = (   0.2500000   0.3125000   0.4375000), wk =   0.0234375
        k(  139) = (   0.2500000   0.3125000  -0.5000000), wk =   0.0117188
        k(  140) = (   0.2500000   0.3750000   0.3750000), wk =   0.0117188
        k(  141) = (   0.2500000   0.3750000   0.4375000), wk =   0.0234375
        k(  142) = (   0.2500000   0.3750000  -0.5000000), wk =   0.0117188
        k(  143) = (   0.2500000   0.4375000   0.4375000), wk =   0.0117188
        k(  144) = (   0.2500000   0.4375000  -0.5000000), wk =   0.0117188
        k(  145) = (   0.2500000  -0.5000000  -0.5000000), wk =   0.0029297
        k(  146) = (   0.3125000   0.3125000   0.3125000), wk =   0.0039062
        k(  147) = (   0.3125000   0.3125000   0.3750000), wk =   0.0117188
        k(  148) = (   0.3125000   0.3125000   0.4375000), wk =   0.0117188
        k(  149) = (   0.3125000   0.3125000  -0.5000000), wk =   0.0058594
        k(  150) = (   0.3125000   0.3750000   0.3750000), wk =   0.0117188
        k(  151) = (   0.3125000   0.3750000   0.4375000), wk =   0.0234375
        k(  152) = (   0.3125000   0.3750000  -0.5000000), wk =   0.0117188
        k(  153) = (   0.3125000   0.4375000   0.4375000), wk =   0.0117188
        k(  154) = (   0.3125000   0.4375000  -0.5000000), wk =   0.0117188
        k(  155) = (   0.3125000  -0.5000000  -0.5000000), wk =   0.0029297
        k(  156) = (   0.3750000   0.3750000   0.3750000), wk =   0.0039062
        k(  157) = (   0.3750000   0.3750000   0.4375000), wk =   0.0117188
        k(  158) = (   0.3750000   0.3750000  -0.5000000), wk =   0.0058594
        k(  159) = (   0.3750000   0.4375000   0.4375000), wk =   0.0117188
        k(  160) = (   0.3750000   0.4375000  -0.5000000), wk =   0.0117188
        k(  161) = (   0.3750000  -0.5000000  -0.5000000), wk =   0.0029297
        k(  162) = (   0.4375000   0.4375000   0.4375000), wk =   0.0039062
        k(  163) = (   0.4375000   0.4375000  -0.5000000), wk =   0.0058594
        k(  164) = (   0.4375000  -0.5000000  -0.5000000), wk =   0.0029297
        k(  165) = (  -0.5000000  -0.5000000  -0.5000000), wk =   0.0004883

     Dense  grid:    23871 G-vectors     FFT dimensions: (  36,  36,  36)

     Dynamical RAM for                 wfc:       0.05 MB

     Dynamical RAM for     wfc (w. buffer):       9.12 MB

     Dynamical RAM for           str. fact:       0.05 MB

     Dynamical RAM for           local pot:       0.00 MB

     Dynamical RAM for          nlocal pot:       0.17 MB

     Dynamical RAM for                qrad:       4.31 MB

     Dynamical RAM for          rho,v,vnew:       0.11 MB

     Dynamical RAM for               rhoin:       0.04 MB

     Dynamical RAM for            rho*nmix:       0.29 MB

     Dynamical RAM for           G-vectors:       0.08 MB

     Dynamical RAM for          h,s,v(r/c):       0.05 MB

     Dynamical RAM for          <psi|beta>:       0.03 MB

     Dynamical RAM for                 psi:       0.22 MB

     Dynamical RAM for                hpsi:       0.22 MB

     Dynamical RAM for                spsi:       0.22 MB

     Dynamical RAM for      wfcinit/wfcrot:       0.19 MB

     Dynamical RAM for           addusdens:       3.44 MB

     Estimated static dynamical RAM per process >      14.35 MB

     Estimated max dynamical RAM per process >      17.79 MB

     Estimated total dynamical RAM >     355.80 MB

     Check: negative/imaginary core charge=   -0.000005    0.000000

     Initial potential from superposition of free atoms
     Check: negative starting charge=   -0.065724

     starting charge   38.96630, renormalised to   40.00000

     negative rho (up, down):  6.747E-02 0.000E+00
     Starting wfcs are   35 randomized atomic wfcs

     total cpu time spent up to now is        1.9 secs

     Self-consistent Calculation

     iteration #  1     ecut=    50.00 Ry     beta= 0.70
     Davidson diagonalization with overlap
     ethr =  1.00E-02,  avg # of iterations =  1.9

     negative rho (up, down):  6.572E-02 0.000E+00

     total cpu time spent up to now is        4.9 secs

     total energy              =    -286.37640914 Ry
     Harris-Foulkes estimate   =    -287.20268978 Ry
     estimated scf accuracy    <       1.04021909 Ry

     iteration #  2     ecut=    50.00 Ry     beta= 0.70
     Davidson diagonalization with overlap
     ethr =  2.60E-03,  avg # of iterations =  4.0

     negative rho (up, down):  6.517E-02 0.000E+00

     total cpu time spent up to now is       11.2 secs

     total energy              =    -283.81428882 Ry
     Harris-Foulkes estimate   =    -288.90718876 Ry
     estimated scf accuracy    <      30.30062281 Ry

     iteration #  3     ecut=    50.00 Ry     beta= 0.70
     Davidson diagonalization with overlap
     ethr =  2.60E-03,  avg # of iterations =  4.2

     negative rho (up, down):  6.661E-02 0.000E+00

     total cpu time spent up to now is       17.2 secs

     total energy              =    -286.92833155 Ry
     Harris-Foulkes estimate   =    -287.05967992 Ry
     estimated scf accuracy    <       0.40740311 Ry

     iteration #  4     ecut=    50.00 Ry     beta= 0.70
     Davidson diagonalization with overlap
     ethr =  1.02E-03,  avg # of iterations =  2.4

     negative rho (up, down):  6.750E-02 0.000E+00

     total cpu time spent up to now is       21.0 secs

     total energy              =    -286.93502284 Ry
     Harris-Foulkes estimate   =    -286.96722665 Ry
     estimated scf accuracy    <       0.18814917 Ry

     iteration #  5     ecut=    50.00 Ry     beta= 0.70
     Davidson diagonalization with overlap
     ethr =  4.70E-04,  avg # of iterations =  2.0

     negative rho (up, down):  6.758E-02 0.000E+00

     total cpu time spent up to now is       24.2 secs

     total energy              =    -286.93333234 Ry
     Harris-Foulkes estimate   =    -286.94346479 Ry
     estimated scf accuracy    <       0.05162910 Ry

     iteration #  6     ecut=    50.00 Ry     beta= 0.70
     Davidson diagonalization with overlap
     ethr =  1.29E-04,  avg # of iterations =  2.2

     negative rho (up, down):  6.762E-02 0.000E+00

     total cpu time spent up to now is       27.6 secs

     total energy              =    -286.93384813 Ry
     Harris-Foulkes estimate   =    -286.93625985 Ry
     estimated scf accuracy    <       0.00999443 Ry

     iteration #  7     ecut=    50.00 Ry     beta= 0.70
     Davidson diagonalization with overlap
     ethr =  2.50E-05,  avg # of iterations =  3.0

     negative rho (up, down):  6.768E-02 0.000E+00

     total cpu time spent up to now is       31.7 secs

     total energy              =    -286.93434219 Ry
     Harris-Foulkes estimate   =    -286.93473348 Ry
     estimated scf accuracy    <       0.00085020 Ry

     iteration #  8     ecut=    50.00 Ry     beta= 0.70
     Davidson diagonalization with overlap
     ethr =  2.13E-06,  avg # of iterations =  3.4

     negative rho (up, down):  6.769E-02 0.000E+00

     total cpu time spent up to now is       36.7 secs

     total energy              =    -286.93466304 Ry
     Harris-Foulkes estimate   =    -286.93474082 Ry
     estimated scf accuracy    <       0.00040952 Ry

     iteration #  9     ecut=    50.00 Ry     beta= 0.70
     Davidson diagonalization with overlap
     ethr =  1.02E-06,  avg # of iterations =  1.0

     negative rho (up, down):  6.769E-02 0.000E+00

     total cpu time spent up to now is       39.3 secs

     total energy              =    -286.93467624 Ry
     Harris-Foulkes estimate   =    -286.93467856 Ry
     estimated scf accuracy    <       0.00012274 Ry

     iteration # 10     ecut=    50.00 Ry     beta= 0.70
     Davidson diagonalization with overlap
     ethr =  3.07E-07,  avg # of iterations =  1.7

     negative rho (up, down):  6.770E-02 0.000E+00

     total cpu time spent up to now is       42.3 secs

     total energy              =    -286.93471347 Ry
     Harris-Foulkes estimate   =    -286.93474291 Ry
     estimated scf accuracy    <       0.00009741 Ry

     iteration # 11     ecut=    50.00 Ry     beta= 0.70
     Davidson diagonalization with overlap
     ethr =  2.44E-07,  avg # of iterations =  3.0

     negative rho (up, down):  6.770E-02 0.000E+00

     total cpu time spent up to now is       46.2 secs

     total energy              =    -286.93472732 Ry
     Harris-Foulkes estimate   =    -286.93472746 Ry
     estimated scf accuracy    <       0.00000056 Ry

     iteration # 12     ecut=    50.00 Ry     beta= 0.70
     Davidson diagonalization with overlap
     ethr =  1.41E-09,  avg # of iterations =  3.7

     negative rho (up, down):  6.770E-02 0.000E+00

     total cpu time spent up to now is       51.5 secs

     total energy              =    -286.93472778 Ry
     Harris-Foulkes estimate   =    -286.93472780 Ry
     estimated scf accuracy    <       0.00000007 Ry

     iteration # 13     ecut=    50.00 Ry     beta= 0.70
     Davidson diagonalization with overlap
     ethr =  1.75E-10,  avg # of iterations =  2.1

     negative rho (up, down):  6.770E-02 0.000E+00

     total cpu time spent up to now is       55.0 secs

     total energy              =    -286.93472777 Ry
     Harris-Foulkes estimate   =    -286.93472778 Ry
     estimated scf accuracy    <       0.00000004 Ry

     iteration # 14     ecut=    50.00 Ry     beta= 0.70
     Davidson diagonalization with overlap
     ethr =  9.78E-11,  avg # of iterations =  2.3

     negative rho (up, down):  6.770E-02 0.000E+00

     total cpu time spent up to now is       58.9 secs

     End of self-consistent calculation

          k = 0.0000 0.0000 0.0000 (  2969 PWs)   bands (ev):

   -50.0675 -26.2852 -26.2124 -26.2124 -26.2124  -9.3953  -8.6340  -8.6340
    -8.2147  -8.2147  -8.2147   4.6556   4.6556   4.6556   6.3674   6.3674
     6.3674   6.7991   6.7991   6.7991   8.6517   8.6517   8.6517  10.1336

     occupation numbers 
     1.0000   1.0000   1.0000   1.0000   1.0000   1.0000   1.0000   1.0000
     1.0000   1.0000   1.0000   1.0000   1.0000   1.0000   1.0000   1.0000
     1.0000   1.0000   1.0000   1.0000   0.0000   0.0000   0.0000   0.0000

          k = 0.0000 0.0000 0.0625 (  2970 PWs)   bands (ev):

   -50.0675 -26.2859 -26.2123 -26.2123 -26.2123  -9.3980  -8.6498  -8.6333
    -8.2140  -8.2140  -8.1843   4.6154   4.6578   4.6578   6.3274   6.3274
     6.3437   6.6928   6.7760   6.7760   8.6549   8.7186   8.7186  10.1338

     occupation numbers 
     1.0000   1.0000   1.0000   1.0000   1.0000   1.0000   1.0000   1.0000
     1.0000   1.0000   1.0000   1.0000   1.0000   1.0000   1.0000   1.0000
     1.0000   1.0000   1.0000   1.0000   0.0000   0.0000   0.0000   0.0000

          k = 0.0000 0.0000 0.1250 (  3006 PWs)   bands (ev):

   -50.0675 -26.2877 -26.2123 -26.2123 -26.2121  -9.4089  -8.6779  -8.6312
    -8.2120  -8.2120  -8.1115   4.5005   4.6647   4.6647   6.2121   6.2121
     6.2780   6.4261   6.7259   6.7259   8.6640   8.8948   8.8948  10.1344

     occupation numbers 
     1.0000   1.0000   1.0000   1.0000   1.0000   1.0000   1.0000   1.0000
     1.0000   1.0000   1.0000   1.0000   1.0000   1.0000   1.0000   1.0000
     1.0000   1.0000   1.0000   1.0000   0.0000   0.0000   0.0000   0.0000

          k = 0.0000 0.0000 0.1875 (  3006 PWs)   bands (ev):

   -50.0674 -26.2906 -26.2121 -26.2121 -26.2117  -9.4322  -8.6905  -8.6281
    -8.2091  -8.2091  -8.0243   4.3274   4.6772   4.6772   6.0440   6.0440
     6.0971   6.1838   6.6741   6.6741   8.6778   9.1305   9.1305  10.1352

     occupation numbers 
     1.0000   1.0000   1.0000   1.0000   1.0000   1.0000   1.0000   1.0000
     1.0000   1.0000   1.0000   1.0000   1.0000   1.0000   1.0000   1.0000
     1.0000   1.0000   1.0000   1.0000   0.0000   0.0000   0.0000   0.0000

          k = 0.0000 0.0000 0.2500 (  3006 PWs)   bands (ev):

   -50.0674 -26.2941 -26.2119 -26.2119 -26.2111  -9.4677  -8.6774  -8.6244
    -8.2056  -8.2056  -7.9404   4.1206   4.6963   4.6963   5.7802   5.8561
     5.8561   6.0782   6.6284   6.6284   8.6942   9.3810   9.3810  10.1361

     occupation numbers 
     1.0000   1.0000   1.0000   1.0000   1.0000   1.0000   1.0000   1.0000
     1.0000   1.0000   1.0000   1.0000   1.0000   1.0000   1.0000   1.0000
     1.0000   1.0000   1.0000   1.0000   0.0000   0.0000   0.0000   0.0000

          k = 0.0000 0.0000 0.3125 (  2994 PWs)   bands (ev):

   -50.0673 -26.2976 -26.2118 -26.2118 -26.2104  -9.5087  -8.6450  -8.6207
    -8.2021  -8.2021  -7.8694   3.9113   4.7225   4.7225   5.5165   5.6761
     5.6761   5.9777   6.5903   6.5903   8.7108   9.6119   9.6119  10.1370

     occupation numbers 
     1.0000   1.0000   1.0000   1.0000   1.0000   1.0000   1.0000   1.0000
     1.0000   1.0000   1.0000   1.0000   1.0000   1.0000   1.0000   1.0000
     1.0000   1.0000   1.0000   1.0000   0.0000   0.0000   0.0000   0.0000

          k = 0.0000 0.0000 0.3750 (  2982 PWs)   bands (ev):

   -50.0673 -26.3007 -26.2116 -26.2116 -26.2098  -9.5457  -8.6175  -8.6071
    -8.1992  -8.1992  -7.8166   3.7324   4.7536   4.7536   5.3237   5.5243
     5.5243   5.8961   6.5613   6.5613   8.7250   9.7970   9.7970  10.1378

     occupation numbers 
     1.0000   1.0000   1.0000   1.0000   1.0000   1.0000   1.0000   1.0000
     1.0000   1.0000   1.0000   1.0000   1.0000   1.0000   1.0000   1.0000
     1.0000   1.0000   1.0000   1.0000   0.0000   0.0000   0.0000   0.0000

          k = 0.0000 0.0000 0.4375 (  2978 PWs)   bands (ev):

   -50.0673 -26.3027 -26.2115 -26.2115 -26.2094  -9.5710  -8.6154  -8.5776
    -8.1972  -8.1972  -7.7845   3.6123   4.7821   4.7821   5.2071   5.4193
     5.4193   5.8433   6.5430   6.5430   8.7346   9.9166   9.9166  10.1383

     occupation numbers 
     1.0000   1.0000   1.0000   1.0000   1.0000   1.0000   1.0000   1.0000
     1.0000   1.0000   1.0000   1.0000   1.0000   1.0000   1.0000   1.0000
     1.0000   1.0000   1.0000   1.0000   0.0000   0.0000   0.0000   0.0000

          k = 0.0000 0.0000-0.5000 (  2946 PWs)   bands (ev):

   -50.0673 -26.3035 -26.2115 -26.2115 -26.2092  -9.5800  -8.6147  -8.5665
    -8.1965  -8.1965  -7.7737   3.5701   4.7945   4.7945   5.1683   5.3809
     5.3809   5.8251   6.5369   6.5369   8.7379   9.9580   9.9580  10.1385

     occupation numbers 
     1.0000   1.0000   1.0000   1.0000   1.0000   1.0000   1.0000   1.0000
     1.0000   1.0000   1.0000   1.0000   1.0000   1.0000   1.0000   1.0000
     1.0000   1.0000   1.0000   1.0000   0.0000   0.0000   0.0000   0.0000

          k = 0.0000 0.0625 0.0625 (  2979 PWs)   bands (ev):

   -50.0675 -26.2864 -26.2132 -26.2123 -26.2114  -9.4000  -8.6589  -8.6397
    -8.2133  -8.1882  -8.1795   4.5927   4.6422   4.6601   6.2371   6.2909
     6.3702   6.6356   6.7171   6.7498   8.7122   8.7309   8.7766  10.1846

     occupation numbers 
     1.0000   1.0000   1.0000   1.0000   1.0000   1.0000   1.0000   1.0000
     1.0000   1.0000   1.0000   1.0000   1.0000   1.0000   1.0000   1.0000
     1.0000   1.0000   1.0000   1.0000   0.0000   0.0000   0.0000   0.0000

          k = 0.0000 0.0625 0.1250 (  2992 PWs)   bands (ev):

   -50.0675 -26.2881 -26.2139 -26.2122 -26.2107  -9.4083  -8.6874  -8.6387
    -8.2113  -8.1835  -8.1111   4.4873   4.6389   4.6672   6.0769   6.1837
     6.3362   6.4221   6.6568   6.6926   8.7282   8.8985   8.9343  10.2042

     occupation numbers 
     1.0000   1.0000   1.0000   1.0000   1.0000   1.0000   1.0000   1.0000
     1.0000   1.0000   1.0000   1.0000   1.0000   1.0000   1.0000   1.0000
     1.0000   1.0000   1.0000   1.0000   0.0000   0.0000   0.0000   0.0000

          k = 0.0000 0.0625 0.1875 (  2999 PWs)   bands (ev):

   -50.0674 -26.2906 -26.2142 -26.2121 -26.2101  -9.4280  -8.7043  -8.6336
    -8.2084  -8.1813  -8.0252   4.3181   4.6457   4.6800   5.8587   6.0232
     6.1229   6.2950   6.6047   6.6341   8.7413   9.1330   9.1536  10.2082

     occupation numbers 
     1.0000   1.0000   1.0000   1.0000   1.0000   1.0000   1.0000   1.0000
     1.0000   1.0000   1.0000   1.0000   1.0000   1.0000   1.0000   1.0000
     1.0000   1.0000   1.0000   1.0000   0.0000   0.0000   0.0000   0.0000

          k = 0.0000 0.0625 0.2500 (  2999 PWs)   bands (ev):

   -50.0674 -26.2938 -26.2142 -26.2119 -26.2097  -9.4600  -8.6966  -8.6272
    -8.2049  -8.1785  -7.9425   4.1144   4.6588   4.6996   5.6004   5.8403
     5.8949   6.1998   6.5596   6.5841   8.7567   9.3824   9.3932  10.2100

     occupation numbers 
     1.0000   1.0000   1.0000   1.0000   1.0000   1.0000   1.0000   1.0000
     1.0000   1.0000   1.0000   1.0000   1.0000   1.0000   1.0000   1.0000
     1.0000   1.0000   1.0000   1.0000   0.0000   0.0000   0.0000   0.0000

          k = 0.0000 0.0625 0.3125 (  2996 PWs)   bands (ev):

   -50.0673 -26.2971 -26.2138 -26.2117 -26.2095  -9.4983  -8.6697  -8.6204
    -8.2014  -8.1752  -7.8726   3.9071   4.6789   4.7264   5.3534   5.6632
     5.7176   6.1032   6.5224   6.5434   8.7722   9.6127   9.6182  10.2109

     occupation numbers 
     1.0000   1.0000   1.0000   1.0000   1.0000   1.0000   1.0000   1.0000
     1.0000   1.0000   1.0000   1.0000   1.0000   1.0000   1.0000   1.0000
     1.0000   1.0000   1.0000   1.0000   0.0000   0.0000   0.0000   0.0000

          k = 0.0000 0.0625 0.3750 (  2993 PWs)   bands (ev):

   -50.0673 -26.2999 -26.2132 -26.2116 -26.2096  -9.5335  -8.6373  -8.6138
    -8.1984  -8.1718  -7.8207   3.7292   4.7069   4.7582   5.1547   5.5128
     5.5866   6.0219   6.4942   6.5130   8.7855   9.7973   9.8010  10.2111

     occupation numbers 
     1.0000   1.0000   1.0000   1.0000   1.0000   1.0000   1.0000   1.0000
     1.0000   1.0000   1.0000   1.0000   1.0000   1.0000   1.0000   1.0000
     1.0000   1.0000   1.0000   1.0000   0.0000   0.0000   0.0000   0.0000

          k = 0.0000 0.0625 0.4375 (  2988 PWs)   bands (ev):

   -50.0673 -26.3019 -26.2126 -26.2115 -26.2097  -9.5578  -8.6172  -8.6040
    -8.1964  -8.1692  -7.7891   3.6096   4.7404   4.7876   5.0186   5.4081
     5.5046   5.9682   6.4764   6.4939   8.7945   9.9167   9.9204  10.2106

     occupation numbers 
     1.0000   1.0000   1.0000   1.0000   1.0000   1.0000   1.0000   1.0000
     1.0000   1.0000   1.0000   1.0000   1.0000   1.0000   1.0000   1.0000
     1.0000   1.0000   1.0000   1.0000   0.0000   0.0000   0.0000   0.0000

          k = 0.0000 0.0625-0.5000 (  2976 PWs)   bands (ev):

   -50.0672 -26.3026 -26.2124 -26.2115 -26.2099  -9.5664  -8.6136  -8.5965
    -8.1957  -8.1681  -7.7785   3.5676   4.7603   4.8004   4.9647   5.3696
     5.4765   5.9496   6.4702   6.4875   8.7976   9.9579   9.9621  10.2101

     occupation numbers 
     1.0000   1.0000   1.0000   1.0000   1.0000   1.0000   1.0000   1.0000
     1.0000   1.0000   1.0000   1.0000   1.0000   1.0000   1.0000   1.0000
     1.0000   1.0000   1.0000   1.0000   0.0000   0.0000   0.0000   0.0000

          k = 0.0000 0.1250 0.1250 (  2999 PWs)   bands (ev):

   -50.0674 -26.2891 -26.2155 -26.2121 -26.2096  -9.4093  -8.7177  -8.6407
    -8.2093  -8.1249  -8.1004   4.4244   4.5908   4.6749   5.8587   6.0974
     6.3177   6.3644   6.5553   6.6165   8.8750   8.9315   9.0509  10.3072

     occupation numbers 
     1.0000   1.0000   1.0000   1.0000   1.0000   1.0000   1.0000   1.0000
     1.0000   1.0000   1.0000   1.0000   1.0000   1.0000   1.0000   1.0000
     1.0000   1.0000   1.0000   1.0000   0.0000   0.0000   0.0000   0.0000

          k = 0.0000 0.1250 0.1875 (  2996 PWs)   bands (ev):

   -50.0674 -26.2908 -26.2168 -26.2120 -26.2089  -9.4183  -8.7447  -8.6333
    -8.2063  -8.1156  -8.0268   4.2829   4.5658   4.6888   5.6008   5.9596
     6.1123   6.3520   6.5048   6.5373   8.9078   9.1413   9.2290  10.3505

     occupation numbers 
     1.0000   1.0000   1.0000   1.0000   1.0000   1.0000   1.0000   1.0000
     1.0000   1.0000   1.0000   1.0000   1.0000   1.0000   1.0000   1.0000
     1.0000   1.0000   1.0000   1.0000   0.0000   0.0000   0.0000   0.0000

          k = 0.0000 0.1250 0.2500 (  2997 PWs)   bands (ev):

   -50.0674 -26.2931 -26.2173 -26.2118 -26.2089  -9.4391  -8.7496  -8.6230
    -8.2028  -8.1142  -7.9479   4.0929   4.5580   4.7097   5.3317   5.7931
     5.9118   6.3306   6.4485   6.4722   8.9221   9.3869   9.4386  10.3668

     occupation numbers 
     1.0000   1.0000   1.0000   1.0000   1.0000   1.0000   1.0000   1.0000
     1.0000   1.0000   1.0000   1.0000   1.0000   1.0000   1.0000   1.0000
     1.0000   1.0000   1.0000   1.0000   0.0000   0.0000   0.0000   0.0000

          k = 0.0000 0.1250 0.3125 (  3002 PWs)   bands (ev):

   -50.0673 -26.2956 -26.2172 -26.2117 -26.2093  -9.4684  -8.7328  -8.6138
    -8.1993  -8.1118  -7.8811   3.8933   4.5597   4.7382   5.0879   5.6256
     5.7552   6.2995   6.3898   6.4223   8.9355   9.6150   9.6460  10.3740

     occupation numbers 
     1.0000   1.0000   1.0000   1.0000   1.0000   1.0000   1.0000   1.0000
     1.0000   1.0000   1.0000   1.0000   1.0000   1.0000   1.0000   1.0000
     1.0000   1.0000   1.0000   1.0000   0.0000   0.0000   0.0000   0.0000

          k = 0.0000 0.1250 0.3750 (  2993 PWs)   bands (ev):

   -50.0673 -26.2978 -26.2165 -26.2115 -26.2101  -9.4978  -8.7047  -8.6090
    -8.1963  -8.1082  -7.8314   3.7193   4.5724   4.7722   4.8926   5.4799
     5.6450   6.2616   6.3460   6.3864   8.9468   9.7982   9.8203  10.3766

     occupation numbers 
     1.0000   1.0000   1.0000   1.0000   1.0000   1.0000   1.0000   1.0000
     1.0000   1.0000   1.0000   1.0000   1.0000   1.0000   1.0000   1.0000
     1.0000   1.0000   1.0000   1.0000   0.0000   0.0000   0.0000   0.0000

          k = 0.0000 0.1250 0.4375 (  2993 PWs)   bands (ev):

   -50.0672 -26.2994 -26.2154 -26.2114 -26.2111  -9.5189  -8.6779  -8.6098
    -8.1943  -8.1048  -7.8012   3.6013   4.6019   4.7512   4.8040   5.3765
     5.5794   6.2294   6.3220   6.3646   8.9544   9.9168   9.9367  10.3767

     occupation numbers 
     1.0000   1.0000   1.0000   1.0000   1.0000   1.0000   1.0000   1.0000
     1.0000   1.0000   1.0000   1.0000   1.0000   1.0000   1.0000   1.0000
     1.0000   1.0000   1.0000   1.0000   0.0000   0.0000   0.0000   0.0000

          k = 0.0000 0.1250-0.5000 (  2992 PWs)   bands (ev):

   -50.0672 -26.3000 -26.2148 -26.2117 -26.2114  -9.5265  -8.6659  -8.6122
    -8.1936  -8.1034  -7.7911   3.5596   4.6542   4.6614   4.8180   5.3378
     5.5577   6.2170   6.3144   6.3572   8.9570   9.9578   9.9777  10.3763

     occupation numbers 
     1.0000   1.0000   1.0000   1.0000   1.0000   1.0000   1.0000   1.0000
     1.0000   1.0000   1.0000   1.0000   1.0000   1.0000   1.0000   1.0000
     1.0000   1.0000   1.0000   1.0000   0.0000   0.0000   0.0000   0.0000

          k = 0.0000 0.1875 0.1875 (  3007 PWs)   bands (ev):

   -50.0674 -26.2913 -26.2190 -26.2118 -26.2086  -9.4101  -8.7872  -8.6241
    -8.2033  -8.0487  -8.0178   4.1965   4.4806   4.7042   5.3199   5.8532
     6.0438   6.2468   6.4282   6.5410   9.1008   9.1849   9.3586  10.4514

     occupation numbers 
     1.0000   1.0000   1.0000   1.0000   1.0000   1.0000   1.0000   1.0000
     1.0000   1.0000   1.0000   1.0000   1.0000   1.0000   1.0000   1.0000
     1.0000   1.0000   1.0000   1.0000   0.0000   0.0000   0.0000   0.0000

          k = 0.0000 0.1875 0.2500 (  2996 PWs)   bands (ev):

   -50.0673 -26.2921 -26.2205 -26.2117 -26.2091  -9.4112  -8.8096  -8.6131
    -8.1998  -8.0385  -7.9545   4.0457   4.4270   4.7272   5.0424   5.7148
     5.9087   6.2003   6.3356   6.5605   9.1436   9.3959   9.5273  10.5022

     occupation numbers 
     1.0000   1.0000   1.0000   1.0000   1.0000   1.0000   1.0000   1.0000
     1.0000   1.0000   1.0000   1.0000   1.0000   1.0000   1.0000   1.0000
     1.0000   1.0000   1.0000   1.0000   0.0000   0.0000   0.0000   0.0000

          k = 0.0000 0.1875 0.3125 (  2999 PWs)   bands (ev):

   -50.0673 -26.2933 -26.2210 -26.2115 -26.2102  -9.4237  -8.8060  -8.6060
    -8.1962  -8.0372  -7.8920   3.8654   4.3979   4.7583   4.8018   5.5659
     5.7856   6.1799   6.2665   6.5501   9.1567   9.6188   9.7067  10.5275

     occupation numbers 
     1.0000   1.0000   1.0000   1.0000   1.0000   1.0000   1.0000   1.0000
     1.0000   1.0000   1.0000   1.0000   1.0000   1.0000   1.0000   1.0000
     1.0000   1.0000   1.0000   1.0000   0.0000   0.0000   0.0000   0.0000

          k = 0.0000 0.1875 0.3750 (  2999 PWs)   bands (ev):

   -50.0672 -26.2945 -26.2205 -26.2118 -26.2114  -9.4418  -8.7842  -8.6061
    -8.1931  -8.0342  -7.8451   3.7002   4.3809   4.6222   4.7958   5.4299
     5.6987   6.1651   6.2189   6.5267   9.1661   9.7998   9.8648  10.5400

     occupation numbers 
     1.0000   1.0000   1.0000   1.0000   1.0000   1.0000   1.0000   1.0000
     1.0000   1.0000   1.0000   1.0000   1.0000   1.0000   1.0000   1.0000
     1.0000   1.0000   1.0000   1.0000   0.0000   0.0000   0.0000   0.0000

          k = 0.0000 0.1875 0.4375 (  2990 PWs)   bands (ev):

   -50.0672 -26.2955 -26.2193 -26.2136 -26.2113  -9.4569  -8.7588  -8.6124
    -8.1911  -8.0307  -7.8165   3.5855   4.3716   4.5131   4.8316   5.3297
     5.6479   6.1551   6.1909   6.5061   9.1722   9.9171   9.9733  10.5452

     occupation numbers 
     1.0000   1.0000   1.0000   1.0000   1.0000   1.0000   1.0000   1.0000
     1.0000   1.0000   1.0000   1.0000   1.0000   1.0000   1.0000   1.0000
     1.0000   1.0000   1.0000   1.0000   0.0000   0.0000   0.0000   0.0000

          k = 0.0000 0.1875-0.5000 (  2992 PWs)   bands (ev):

   -50.0672 -26.2959 -26.2184 -26.2147 -26.2113  -9.4627  -8.7471  -8.6167
    -8.1904  -8.0290  -7.8069   3.5446   4.3687   4.4766   4.8478   5.2910
     5.6312   6.1516   6.1816   6.4980   9.1744   9.9577  10.0119  10.5464

     occupation numbers 
     1.0000   1.0000   1.0000   1.0000   1.0000   1.0000   1.0000   1.0000
     1.0000   1.0000   1.0000   1.0000   1.0000   1.0000   1.0000   1.0000
     1.0000   1.0000   1.0000   1.0000   0.0000   0.0000   0.0000   0.0000

          k = 0.0000 0.2500 0.2500 (  3003 PWs)   bands (ev):

   -50.0673 -26.2912 -26.2231 -26.2115 -26.2102  -9.3859  -8.8536  -8.6047
    -8.1961  -7.9740  -7.9523   3.9527   4.3121   4.7529   4.7581   5.6093
     5.8665   6.1011   6.2096   6.6576   9.3500   9.4373   9.6549  10.5844

     occupation numbers 
     1.0000   1.0000   1.0000   1.0000   1.0000   1.0000   1.0000   1.0000
     1.0000   1.0000   1.0000   1.0000   1.0000   1.0000   1.0000   1.0000
     1.0000   1.0000   1.0000   1.0000   0.0000   0.0000   0.0000   0.0000

          k = 0.0000 0.2500 0.3125 (  3003 PWs)   bands (ev):

   -50.0672 -26.2907 -26.2246 -26.2121 -26.2114  -9.3722  -8.8697  -8.6037
    -8.1925  -7.9664  -7.9012   3.8126   4.2383   4.5152   4.7873   5.4879
     5.8013   6.0621   6.1113   6.7113   9.3927   9.6252   9.8016  10.6300

     occupation numbers 
     1.0000   1.0000   1.0000   1.0000   1.0000   1.0000   1.0000   1.0000
     1.0000   1.0000   1.0000   1.0000   1.0000   1.0000   1.0000   1.0000
     1.0000   1.0000   1.0000   1.0000   0.0000   0.0000   0.0000   0.0000

          k = 0.0000 0.2500 0.3750 (  2993 PWs)   bands (ev):

   -50.0672 -26.2905 -26.2247 -26.2146 -26.2112  -9.3713  -8.8592  -8.6126
    -8.1894  -7.9640  -7.8565   3.6657   4.1857   4.3484   4.8290   5.3689
     5.7486   6.0435   6.0449   6.7343   9.4022   9.8019   9.9381  10.6546

     occupation numbers 
     1.0000   1.0000   1.0000   1.0000   1.0000   1.0000   1.0000   1.0000
     1.0000   1.0000   1.0000   1.0000   1.0000   1.0000   1.0000   1.0000
     1.0000   1.0000   1.0000   1.0000   0.0000   0.0000   0.0000   0.0000

          k = 0.0000 0.2500 0.4375 (  2993 PWs)   bands (ev):

   -50.0671 -26.2905 -26.2237 -26.2172 -26.2111  -9.3761  -8.8370  -8.6273
    -8.1873  -7.9605  -7.8291   3.5578   4.1345   4.2721   4.8702   5.2750
     5.7179   6.0042   6.0352   6.7412   9.4072   9.9177  10.0348  10.6665

     occupation numbers 
     1.0000   1.0000   1.0000   1.0000   1.0000   1.0000   1.0000   1.0000
     1.0000   1.0000   1.0000   1.0000   1.0000   1.0000   1.0000   1.0000
     1.0000   1.0000   1.0000   1.0000   0.0000   0.0000   0.0000   0.0000

          k = 0.0000 0.2500-0.5000 (  3004 PWs)   bands (ev):

   -50.0671 -26.2906 -26.2227 -26.2187 -26.2111  -9.3787  -8.8255  -8.6353
    -8.1866  -7.9588  -7.8199   3.5184   4.1107   4.2541   4.8898   5.2367
     5.7081   5.9913   6.0317   6.7422   9.4089   9.9578  10.0697  10.6700

     occupation numbers 
     1.0000   1.0000   1.0000   1.0000   1.0000   1.0000   1.0000   1.0000
     1.0000   1.0000   1.0000   1.0000   1.0000   1.0000   1.0000   1.0000
     1.0000   1.0000   1.0000   1.0000   0.0000   0.0000   0.0000   0.0000

          k = 0.0000 0.3125 0.3125 (  2995 PWs)   bands (ev):

   -50.0672 -26.2881 -26.2272 -26.2149 -26.2112  -9.3254  -8.9100  -8.6128
    -8.1888  -7.9091  -7.9031   3.7212   4.1195   4.2631   4.8255   5.3970
     5.7990   5.9797   6.0010   6.8218   9.5880   9.6557   9.9184  10.6902

     occupation numbers 
     1.0000   1.0000   1.0000   1.0000   1.0000   1.0000   1.0000   1.0000
     1.0000   1.0000   1.0000   1.0000   1.0000   1.0000   1.0000   1.0000
     1.0000   1.0000   1.0000   1.0000   0.0000   0.0000   0.0000   0.0000

          k = 0.0000 0.3125 0.3750 (  2999 PWs)   bands (ev):

   -50.0671 -26.2862 -26.2283 -26.2182 -26.2111  -9.2947  -8.9187  -8.6346
    -8.1856  -7.9048  -7.8618   3.6050   4.0297   4.0986   4.8717   5.3024
     5.7898   5.8835   5.9751   6.8878   9.6213   9.8049  10.0326  10.7239

     occupation numbers 
     1.0000   1.0000   1.0000   1.0000   1.0000   1.0000   1.0000   1.0000
     1.0000   1.0000   1.0000   1.0000   1.0000   1.0000   1.0000   1.0000
     1.0000   1.0000   1.0000   1.0000   0.0000   0.0000   0.0000   0.0000

          k = 0.0000 0.3125 0.4375 (  3001 PWs)   bands (ev):

   -50.0671 -26.2850 -26.2279 -26.2215 -26.2110  -9.2820  -8.9040  -8.6616
    -8.1835  -7.9011  -7.8347   3.5094   3.9352   4.0507   4.9192   5.2204
     5.7840   5.8262   5.9637   6.9209   9.6262   9.9184  10.1161  10.7408

     occupation numbers 
     1.0000   1.0000   1.0000   1.0000   1.0000   1.0000   1.0000   1.0000
     1.0000   1.0000   1.0000   1.0000   1.0000   1.0000   1.0000   1.0000
     1.0000   1.0000   1.0000   1.0000   0.0000   0.0000   0.0000   0.0000

          k = 0.0000 0.3125-0.5000 (  3006 PWs)   bands (ev):

   -50.0671 -26.2846 -26.2269 -26.2234 -26.2109  -9.2794  -8.8929  -8.6753
    -8.1828  -7.8993  -7.8256   3.4730   3.8997   4.0406   4.9437   5.1835
     5.7825   5.8073   5.9602   6.9308   9.6276   9.9581  10.1467  10.7460

     occupation numbers 
     1.0000   1.0000   1.0000   1.0000   1.0000   1.0000   1.0000   1.0000
     1.0000   1.0000   1.0000   1.0000   1.0000   1.0000   1.0000   1.0000
     1.0000   1.0000   1.0000   1.0000   0.0000   0.0000   0.0000   0.0000

          k = 0.0000 0.3750 0.3750 (  3006 PWs)   bands (ev):

   -50.0671 -26.2823 -26.2307 -26.2222 -26.2109  -9.2260  -8.9524  -8.6725
    -8.1825  -7.8617  -7.8593   3.5177   3.8941   3.9477   4.9227   5.2349
     5.7557   5.8197   5.9413   6.9878   9.7843   9.8214  10.1286  10.7630

     occupation numbers 
     1.0000   1.0000   1.0000   1.0000   1.0000   1.0000   1.0000   1.0000
     1.0000   1.0000   1.0000   1.0000   1.0000   1.0000   1.0000   1.0000
     1.0000   1.0000   1.0000   1.0000   0.0000   0.0000   0.0000   0.0000

          k = 0.0000 0.3750 0.4375 (  3015 PWs)   bands (ev):

[...]
     1.0000   1.0000   1.0000   1.0000   0.0000   0.0000   0.0000   0.0000

          k = 0.2500 0.3125 0.3125 (  3006 PWs)   bands (ev):

   -50.0670 -26.2811 -26.2267 -26.2235 -26.2172  -9.1805  -8.7841  -8.6837
    -8.1518  -8.0492  -7.9116   3.6694   4.1369   4.2907   4.3946   4.7130
     4.7211   6.5540   6.5968   6.8844   9.8360   9.8903   9.9743  11.9697

     occupation numbers 
     1.0000   1.0000   1.0000   1.0000   1.0000   1.0000   1.0000   1.0000
     1.0000   1.0000   1.0000   1.0000   1.0000   1.0000   1.0000   1.0000
     1.0000   1.0000   1.0000   1.0000   0.0000   0.0000   0.0000   0.0000

          k = 0.2500 0.3125 0.3750 (  3011 PWs)   bands (ev):

   -50.0670 -26.2789 -26.2282 -26.2239 -26.2199  -9.1351  -8.8038  -8.6413
    -8.1995  -8.0223  -7.9226   3.5694   4.0580   4.2057   4.3303   4.5813
     4.7413   6.5771   6.6346   6.9351   9.8764  10.0000  10.0866  11.9964

     occupation numbers 
     1.0000   1.0000   1.0000   1.0000   1.0000   1.0000   1.0000   1.0000
     1.0000   1.0000   1.0000   1.0000   1.0000   1.0000   1.0000   1.0000
     1.0000   1.0000   1.0000   1.0000   0.0000   0.0000   0.0000   0.0000

          k = 0.2500 0.3125 0.4375 (  3011 PWs)   bands (ev):

   -50.0669 -26.2776 -26.2282 -26.2250 -26.2216  -9.1055  -8.8182  -8.6004
    -8.2459  -7.9904  -7.9395   3.4761   4.0317   4.1098   4.3435   4.4882
     4.7620   6.5896   6.6525   6.9632   9.8899  10.0903  10.1693  11.9978

     occupation numbers 
     1.0000   1.0000   1.0000   1.0000   1.0000   1.0000   1.0000   1.0000
     1.0000   1.0000   1.0000   1.0000   1.0000   1.0000   1.0000   1.0000
     1.0000   1.0000   1.0000   1.0000   0.0000   0.0000   0.0000   0.0000

          k = 0.2500 0.3125-0.5000 (  3016 PWs)   bands (ev):

   -50.0669 -26.2771 -26.2274 -26.2265 -26.2220  -9.0955  -8.8228  -8.5826
    -8.2659  -7.9641  -7.9603   3.4390   4.0473   4.0553   4.3588   4.4478
     4.7697   6.5939   6.6573   6.9718   9.8942  10.1231  10.1998  11.9969

     occupation numbers 
     1.0000   1.0000   1.0000   1.0000   1.0000   1.0000   1.0000   1.0000
     1.0000   1.0000   1.0000   1.0000   1.0000   1.0000   1.0000   1.0000
     1.0000   1.0000   1.0000   1.0000   0.0000   0.0000   0.0000   0.0000

          k = 0.2500 0.3750 0.3750 (  3005 PWs)   bands (ev):

   -50.0669 -26.2759 -26.2302 -26.2258 -26.2213  -9.0665  -8.8127  -8.6304
    -8.2226  -8.0208  -7.9392   3.4888   3.9592   4.0743   4.3298   4.5801
     4.6222   6.6205   6.6694   7.0189   9.9968  10.0293  10.1817  12.0642

     occupation numbers 
     1.0000   1.0000   1.0000   1.0000   1.0000   1.0000   1.0000   1.0000
     1.0000   1.0000   1.0000   1.0000   1.0000   1.0000   1.0000   1.0000
     1.0000   1.0000   1.0000   1.0000   0.0000   0.0000   0.0000   0.0000

          k = 0.2500 0.3750 0.4375 (  3014 PWs)   bands (ev):

   -50.0669 -26.2739 -26.2309 -26.2282 -26.2218  -9.0147  -8.8240  -8.6189
    -8.2501  -8.0034  -7.9587   3.4064   3.9093   3.9936   4.3510   4.4989
     4.6257   6.6463   6.6847   7.0705  10.0224  10.1073  10.2533  12.0814

     occupation numbers 
     1.0000   1.0000   1.0000   1.0000   1.0000   1.0000   1.0000   1.0000
     1.0000   1.0000   1.0000   1.0000   1.0000   1.0000   1.0000   1.0000
     1.0000   1.0000   1.0000   1.0000   0.0000   0.0000   0.0000   0.0000

          k = 0.2500 0.3750-0.5000 (  3020 PWs)   bands (ev):

   -50.0669 -26.2731 -26.2302 -26.2301 -26.2219  -8.9948  -8.8290  -8.6144
    -8.2621  -7.9856  -7.9761   3.3722   3.8980   3.9645   4.3707   4.4557
     4.6322   6.6557   6.6882   7.0874  10.0269  10.1399  10.2799  12.0842

     occupation numbers 
     1.0000   1.0000   1.0000   1.0000   1.0000   1.0000   1.0000   1.0000
     1.0000   1.0000   1.0000   1.0000   1.0000   1.0000   1.0000   1.0000
     1.0000   1.0000   1.0000   1.0000   0.0000   0.0000   0.0000   0.0000

          k = 0.2500 0.4375 0.4375 (  3018 PWs)   bands (ev):

   -50.0669 -26.2712 -26.2325 -26.2308 -26.2218  -8.9342  -8.8307  -8.6513
    -8.2532  -8.0027  -7.9770   3.3335   3.8389   3.9249   4.3778   4.5022
     4.5415   6.6808   6.6991   7.1381  10.1115  10.1214  10.3176  12.1056

     occupation numbers 
     1.0000   1.0000   1.0000   1.0000   1.0000   1.0000   1.0000   1.0000
     1.0000   1.0000   1.0000   1.0000   1.0000   1.0000   1.0000   1.0000
     1.0000   1.0000   1.0000   1.0000   0.0000   0.0000   0.0000   0.0000

          k = 0.2500 0.4375-0.5000 (  3010 PWs)   bands (ev):

   -50.0669 -26.2701 -26.2325 -26.2324 -26.2218  -8.8962  -8.8346  -8.6717
    -8.2542  -7.9946  -7.9905   3.3024   3.8192   3.9013   4.4023   4.4705
     4.5328   6.6937   6.7022   7.1606  10.1199  10.1501  10.3417  12.1100

     occupation numbers 
     1.0000   1.0000   1.0000   1.0000   1.0000   1.0000   1.0000   1.0000
     1.0000   1.0000   1.0000   1.0000   1.0000   1.0000   1.0000   1.0000
     1.0000   1.0000   1.0000   1.0000   0.0000   0.0000   0.0000   0.0000

          k = 0.2500-0.5000-0.5000 (  3024 PWs)   bands (ev):

   -50.0669 -26.2690 -26.2333 -26.2333 -26.2218  -8.8368  -8.8368  -8.7177
    -8.2502  -7.9965  -7.9965   3.2726   3.7967   3.8792   4.4366   4.4766
     4.4766   6.7065   6.7065   7.1851  10.1535  10.1535  10.3650  12.1146

     occupation numbers 
     1.0000   1.0000   1.0000   1.0000   1.0000   1.0000   1.0000   1.0000
     1.0000   1.0000   1.0000   1.0000   1.0000   1.0000   1.0000   1.0000
     1.0000   1.0000   1.0000   1.0000   0.0000   0.0000   0.0000   0.0000

          k = 0.3125 0.3125 0.3125 (  3007 PWs)   bands (ev):

   -50.0670 -26.2783 -26.2265 -26.2265 -26.2199  -9.1199  -8.7209  -8.7209
    -8.1179  -8.1179  -7.9275   3.6144   4.1464   4.1464   4.3371   4.5591
     4.5591   6.6713   6.6713   6.9357   9.9476  10.0070  10.0070  12.3653

     occupation numbers 
     1.0000   1.0000   1.0000   1.0000   1.0000   1.0000   1.0000   1.0000
     1.0000   1.0000   1.0000   1.0000   1.0000   1.0000   1.0000   1.0000
     1.0000   1.0000   1.0000   1.0000   0.0000   0.0000   0.0000   0.0000

          k = 0.3125 0.3125 0.3750 (  3015 PWs)   bands (ev):

   -50.0669 -26.2760 -26.2286 -26.2264 -26.2227  -9.0639  -8.7571  -8.6530
    -8.1904  -8.0796  -7.9494   3.5242   4.0426   4.1579   4.2157   4.4418
     4.5519   6.7076   6.7530   6.9830   9.9975  10.0892  10.1191  12.3512

     occupation numbers 
     1.0000   1.0000   1.0000   1.0000   1.0000   1.0000   1.0000   1.0000
     1.0000   1.0000   1.0000   1.0000   1.0000   1.0000   1.0000   1.0000
     1.0000   1.0000   1.0000   1.0000   0.0000   0.0000   0.0000   0.0000

          k = 0.3125 0.3125 0.4375 (  3009 PWs)   bands (ev):

   -50.0669 -26.2744 -26.2293 -26.2263 -26.2251  -9.0221  -8.7853  -8.5920
    -8.2545  -8.0427  -7.9752   3.4347   4.0080   4.1196   4.1701   4.3652
     4.5700   6.7247   6.8001   7.0121  10.0131  10.1670  10.2014  12.3402

     occupation numbers 
     1.0000   1.0000   1.0000   1.0000   1.0000   1.0000   1.0000   1.0000
     1.0000   1.0000   1.0000   1.0000   1.0000   1.0000   1.0000   1.0000
     1.0000   1.0000   1.0000   1.0000   0.0000   0.0000   0.0000   0.0000

          k = 0.3125 0.3125-0.5000 (  3012 PWs)   bands (ev):

   -50.0669 -26.2738 -26.2293 -26.2263 -26.2262  -9.0059  -8.7966  -8.5642
    -8.2834  -8.0170  -7.9970   3.3983   4.0097   4.0776   4.1764   4.3374
     4.5779   6.7300   6.8153   7.0215  10.0178  10.1960  10.2317  12.3359

     occupation numbers 
     1.0000   1.0000   1.0000   1.0000   1.0000   1.0000   1.0000   1.0000
     1.0000   1.0000   1.0000   1.0000   1.0000   1.0000   1.0000   1.0000
     1.0000   1.0000   1.0000   1.0000   0.0000   0.0000   0.0000   0.0000

          k = 0.3125 0.3750 0.3750 (  3010 PWs)   bands (ev):

   -50.0669 -26.2733 -26.2300 -26.2277 -26.2249  -8.9938  -8.7412  -8.6379
    -8.2120  -8.1006  -7.9804   3.4465   3.9649   4.1084   4.1506   4.4129
     4.4330   6.7899   6.8226   7.0429  10.1006  10.1304  10.2035  12.4859

     occupation numbers 
     1.0000   1.0000   1.0000   1.0000   1.0000   1.0000   1.0000   1.0000
     1.0000   1.0000   1.0000   1.0000   1.0000   1.0000   1.0000   1.0000
     1.0000   1.0000   1.0000   1.0000   0.0000   0.0000   0.0000   0.0000

          k = 0.3125 0.3750 0.4375 (  3013 PWs)   bands (ev):

   -50.0668 -26.2715 -26.2310 -26.2290 -26.2259  -8.9354  -8.7610  -8.5953
    -8.2625  -8.0800  -8.0127   3.3657   3.9117   4.0673   4.1300   4.3426
     4.4396   6.8234   6.8691   7.0880  10.1271  10.1982  10.2747  12.5008

     occupation numbers 
     1.0000   1.0000   1.0000   1.0000   1.0000   1.0000   1.0000   1.0000
     1.0000   1.0000   1.0000   1.0000   1.0000   1.0000   1.0000   1.0000
     1.0000   1.0000   1.0000   1.0000   0.0000   0.0000   0.0000   0.0000

          k = 0.3125 0.3750-0.5000 (  3010 PWs)   bands (ev):

   -50.0668 -26.2709 -26.2311 -26.2299 -26.2261  -8.9091  -8.7758  -8.5727
    -8.2881  -8.0574  -8.0370   3.3319   3.8983   4.0442   4.1328   4.3143
     4.4474   6.8320   6.8856   7.1040  10.1323  10.2271  10.3014  12.5007

     occupation numbers 
     1.0000   1.0000   1.0000   1.0000   1.0000   1.0000   1.0000   1.0000
     1.0000   1.0000   1.0000   1.0000   1.0000   1.0000   1.0000   1.0000
     1.0000   1.0000   1.0000   1.0000   0.0000   0.0000   0.0000   0.0000

          k = 0.3125 0.4375 0.4375 (  3015 PWs)   bands (ev):

   -50.0668 -26.2694 -26.2323 -26.2313 -26.2260  -8.8570  -8.7543  -8.6059
    -8.2754  -8.0893  -8.0475   3.2936   3.8421   4.0183   4.1327   4.3553
     4.3602   6.8807   6.8972   7.1498  10.2056  10.2148  10.3385  12.5370

     occupation numbers 
     1.0000   1.0000   1.0000   1.0000   1.0000   1.0000   1.0000   1.0000
     1.0000   1.0000   1.0000   1.0000   1.0000   1.0000   1.0000   1.0000
     1.0000   1.0000   1.0000   1.0000   0.0000   0.0000   0.0000   0.0000

          k = 0.3125 0.4375-0.5000 (  3014 PWs)   bands (ev):

   -50.0668 -26.2687 -26.2326 -26.2323 -26.2260  -8.8149  -8.7630  -8.6125
    -8.2825  -8.0792  -8.0711   3.2629   3.8217   3.9994   4.1377   4.3283
     4.3658   6.8950   6.9099   7.1719  10.2145  10.2402  10.3626  12.5411

     occupation numbers 
     1.0000   1.0000   1.0000   1.0000   1.0000   1.0000   1.0000   1.0000
     1.0000   1.0000   1.0000   1.0000   1.0000   1.0000   1.0000   1.0000
     1.0000   1.0000   1.0000   1.0000   0.0000   0.0000   0.0000   0.0000

          k = 0.3125-0.5000-0.5000 (  3024 PWs)   bands (ev):

   -50.0668 -26.2679 -26.2331 -26.2331 -26.2260  -8.7589  -8.7589  -8.6508
    -8.2779  -8.0854  -8.0854   3.2335   3.7990   3.9817   4.1434   4.3364
     4.3364   6.9162   6.9162   7.1963  10.2445  10.2445  10.3859  12.5458

     occupation numbers 
     1.0000   1.0000   1.0000   1.0000   1.0000   1.0000   1.0000   1.0000
     1.0000   1.0000   1.0000   1.0000   1.0000   1.0000   1.0000   1.0000
     1.0000   1.0000   1.0000   1.0000   0.0000   0.0000   0.0000   0.0000

          k = 0.3750 0.3750 0.3750 (  3022 PWs)   bands (ev):

   -50.0668 -26.2710 -26.2298 -26.2298 -26.2276  -8.9196  -8.6626  -8.6626
    -8.1863  -8.1863  -8.0249   3.3744   3.9709   3.9709   4.1483   4.3232
     4.3232   6.9153   6.9153   7.0801  10.1930  10.2281  10.2281  12.8259

     occupation numbers 
     1.0000   1.0000   1.0000   1.0000   1.0000   1.0000   1.0000   1.0000
     1.0000   1.0000   1.0000   1.0000   1.0000   1.0000   1.0000   1.0000
     1.0000   1.0000   1.0000   1.0000   0.0000   0.0000   0.0000   0.0000

          k = 0.3750 0.3750 0.4375 (  3015 PWs)   bands (ev):

   -50.0668 -26.2694 -26.2315 -26.2297 -26.2292  -8.8525  -8.6990  -8.5883
    -8.2653  -8.1523  -8.0686   3.2992   3.8977   3.9762   4.1114   4.2549
     4.3210   6.9556   6.9916   7.1182  10.2262  10.2792  10.3005  12.8091

     occupation numbers 
     1.0000   1.0000   1.0000   1.0000   1.0000   1.0000   1.0000   1.0000
     1.0000   1.0000   1.0000   1.0000   1.0000   1.0000   1.0000   1.0000
     1.0000   1.0000   1.0000   1.0000   0.0000   0.0000   0.0000   0.0000

          k = 0.3750 0.3750-0.5000 (  3016 PWs)   bands (ev):

   -50.0668 -26.2688 -26.2320 -26.2297 -26.2297  -8.8165  -8.7245  -8.5515
    -8.3037  -8.1229  -8.1009   3.2674   3.8781   3.9784   4.0923   4.2315
     4.3279   6.9661   7.0171   7.1338  10.2319  10.3043  10.3274  12.8022

     occupation numbers 
     1.0000   1.0000   1.0000   1.0000   1.0000   1.0000   1.0000   1.0000
     1.0000   1.0000   1.0000   1.0000   1.0000   1.0000   1.0000   1.0000
     1.0000   1.0000   1.0000   1.0000   0.0000   0.0000   0.0000   0.0000

          k = 0.3750 0.4375 0.4375 (  3018 PWs)   bands (ev):

   -50.0668 -26.2679 -26.2321 -26.2316 -26.2296  -8.7750  -8.6693  -8.5801
    -8.2839  -8.1831  -8.1202   3.2306   3.8450   3.9455   4.0966   4.2427
     4.2554   7.0333   7.0457   7.1619  10.2955  10.3044  10.3566  12.8959

     occupation numbers 
     1.0000   1.0000   1.0000   1.0000   1.0000   1.0000   1.0000   1.0000
     1.0000   1.0000   1.0000   1.0000   1.0000   1.0000   1.0000   1.0000
     1.0000   1.0000   1.0000   1.0000   0.0000   0.0000   0.0000   0.0000

          k = 0.3750 0.4375-0.5000 (  3024 PWs)   bands (ev):

   -50.0668 -26.2674 -26.2327 -26.2321 -26.2296  -8.7264  -8.6861  -8.5646
    -8.3053  -8.1671  -8.1567   3.2014   3.8233   3.9440   4.0824   4.2249
     4.2571   7.0497   7.0679   7.1824  10.3047  10.3268  10.3807  12.8988

     occupation numbers 
     1.0000   1.0000   1.0000   1.0000   1.0000   1.0000   1.0000   1.0000
     1.0000   1.0000   1.0000   1.0000   1.0000   1.0000   1.0000   1.0000
     1.0000   1.0000   1.0000   1.0000   0.0000   0.0000   0.0000   0.0000

          k = 0.3750-0.5000-0.5000 (  3016 PWs)   bands (ev):

   -50.0668 -26.2669 -26.2330 -26.2330 -26.2296  -8.6717  -8.6717  -8.5930
    -8.3012  -8.1819  -8.1819   3.1733   3.8009   3.9413   4.0694   4.2332
     4.2332   7.0780   7.0780   7.2060  10.3317  10.3317  10.4039  12.9052

     occupation numbers 
     1.0000   1.0000   1.0000   1.0000   1.0000   1.0000   1.0000   1.0000
     1.0000   1.0000   1.0000   1.0000   1.0000   1.0000   1.0000   1.0000
     1.0000   1.0000   1.0000   1.0000   0.0000   0.0000   0.0000   0.0000

          k = 0.4375 0.4375 0.4375 (  3031 PWs)   bands (ev):

   -50.0667 -26.2669 -26.2320 -26.2320 -26.2318  -8.6962  -8.5864  -8.5864
    -8.2717  -8.2717  -8.1863   3.1665   3.8471   3.8471   4.1349   4.1912
     4.1912   7.1286   7.1286   7.1793  10.3598  10.3709  10.3709  13.1491

     occupation numbers 
     1.0000   1.0000   1.0000   1.0000   1.0000   1.0000   1.0000   1.0000
     1.0000   1.0000   1.0000   1.0000   1.0000   1.0000   1.0000   1.0000
     1.0000   1.0000   1.0000   1.0000   0.0000   0.0000   0.0000   0.0000

          k = 0.4375 0.4375-0.5000 (  3032 PWs)   bands (ev):

   -50.0667 -26.2665 -26.2328 -26.2320 -26.2320  -8.6403  -8.6172  -8.5429
    -8.3173  -8.2419  -8.2345   3.1394   3.8183   3.8480   4.1306   4.1695
     4.1921   7.1468   7.1610   7.1952  10.3714  10.3883  10.3957  13.1360

     occupation numbers 
     1.0000   1.0000   1.0000   1.0000   1.0000   1.0000   1.0000   1.0000
     1.0000   1.0000   1.0000   1.0000   1.0000   1.0000   1.0000   1.0000
     1.0000   1.0000   1.0000   1.0000   0.0000   0.0000   0.0000   0.0000

          k = 0.4375-0.5000-0.5000 (  3036 PWs)   bands (ev):

   -50.0667 -26.2662 -26.2328 -26.2328 -26.2320  -8.5859  -8.5859  -8.5537
    -8.3166  -8.2738  -8.2738   3.1130   3.8022   3.8344   4.1284   4.1703
     4.1703   7.1799   7.1799   7.2124  10.3962  10.3962  10.4160  13.1688

     occupation numbers 
     1.0000   1.0000   1.0000   1.0000   1.0000   1.0000   1.0000   1.0000
     1.0000   1.0000   1.0000   1.0000   1.0000   1.0000   1.0000   1.0000
     1.0000   1.0000   1.0000   1.0000   0.0000   0.0000   0.0000   0.0000

          k =-0.5000-0.5000-0.5000 (  3016 PWs)   bands (ev):

   -50.0667 -26.2660 -26.2328 -26.2328 -26.2328  -8.5398  -8.5398  -8.5398
    -8.3220  -8.3220  -8.3220   3.0874   3.8027   3.8027   4.1492   4.1492
     4.1492   7.2147   7.2147   7.2147  10.4203  10.4203  10.4203  13.3390

     occupation numbers 
     1.0000   1.0000   1.0000   1.0000   1.0000   1.0000   1.0000   1.0000
     1.0000   1.0000   1.0000   1.0000   1.0000   1.0000   1.0000   1.0000
     1.0000   1.0000   1.0000   1.0000   0.0000   0.0000   0.0000   0.0000

     the Fermi energy is     7.4167 ev

!    total energy              =    -286.93472777 Ry
     Harris-Foulkes estimate   =    -286.93472778 Ry
     estimated scf accuracy    <          8.3E-09 Ry

     The total energy is the sum of the following terms:

     one-electron contribution =     -99.27228787 Ry
     hartree contribution      =      67.39834043 Ry
     xc contribution           =     -57.86220126 Ry
     ewald contribution        =    -197.19857907 Ry
     smearing contrib. (-TS)   =       0.00000000 Ry

     convergence has been achieved in  14 iterations
 
     init_run     :      1.55s CPU      1.73s WALL (       1 calls)
     electrons    :     52.15s CPU     57.05s WALL (       1 calls)

     Called by init_run:
     wfcinit      :      1.45s CPU      1.57s WALL (       1 calls)
     wfcinit:atom :      0.01s CPU      0.01s WALL (     165 calls)
     wfcinit:wfcr :      1.39s CPU      1.50s WALL (     165 calls)
     potinit      :      0.01s CPU      0.01s WALL (       1 calls)
     hinit0       :      0.07s CPU      0.12s WALL (       1 calls)

     Called by electrons:
     c_bands      :     48.00s CPU     52.65s WALL (      14 calls)
     sum_band     :      3.99s CPU      4.22s WALL (      14 calls)
     v_of_rho     :      0.02s CPU      0.03s WALL (      15 calls)
     v_h          :      0.00s CPU      0.00s WALL (      15 calls)
     v_xc         :      0.02s CPU      0.03s WALL (      15 calls)
     newd         :      0.13s CPU      0.14s WALL (      15 calls)
     mix_rho      :      0.01s CPU      0.01s WALL (      14 calls)

     Called by c_bands:
     init_us_2    :      0.43s CPU      0.46s WALL (    4785 calls)
     cegterg      :     46.27s CPU     50.87s WALL (    2310 calls)

     Called by sum_band:
     sum_band:bec :      0.05s CPU      0.05s WALL (    2310 calls)
     addusdens    :      0.13s CPU      0.14s WALL (      14 calls)

     Called by *egterg:
     h_psi        :     17.11s CPU     18.03s WALL (    8562 calls)
     s_psi        :      0.51s CPU      0.54s WALL (    8562 calls)
     g_psi        :      0.12s CPU      0.12s WALL (    6087 calls)
     cdiaghg      :     24.29s CPU     27.05s WALL (    8397 calls)
     cegterg:over :      3.12s CPU      4.04s WALL (    6087 calls)
     cegterg:upda :      1.17s CPU      1.21s WALL (    6087 calls)
     cegterg:last :      0.48s CPU      0.50s WALL (    2310 calls)
     cdiaghg:chol :      0.73s CPU      0.85s WALL (    8397 calls)
     cdiaghg:inve :      0.42s CPU      0.50s WALL (    8397 calls)
     cdiaghg:para :      1.29s CPU      1.40s WALL (   16794 calls)

     Called by h_psi:
     h_psi:pot    :     17.06s CPU     17.97s WALL (    8562 calls)
     h_psi:calbec :      0.84s CPU      0.89s WALL (    8562 calls)
     vloc_psi     :     15.65s CPU     16.48s WALL (    8562 calls)
     add_vuspsi   :      0.54s CPU      0.57s WALL (    8562 calls)

     General routines
     calbec       :      1.10s CPU      1.17s WALL (   10872 calls)
     fft          :      0.02s CPU      0.06s WALL (     166 calls)
     ffts         :      0.00s CPU      0.00s WALL (      14 calls)
     fftw         :     17.71s CPU     18.67s WALL (  336496 calls)
 
     Parallel routines
     fft_scatt_xy :      1.39s CPU      1.47s WALL (  336676 calls)
     fft_scatt_yz :     11.12s CPU     11.78s WALL (  336676 calls)
 
     PWSCF        :    53.80s CPU        58.99s WALL

 
   This run was terminated on:  21:46:42   6Feb2019            

=------------------------------------------------------------------------------=
   JOB DONE.
=------------------------------------------------------------------------------=
