
     Program PWSCF v.6.3MaX starts on  6Feb2019 at 21:58:47 

     This program is part of the open-source Quantum ESPRESSO suite
     for quantum simulation of materials; please cite
         "P. Giannozzi et al., J. Phys.:Condens. Matter 21 395502 (2009);
         "P. Giannozzi et al., J. Phys.:Condens. Matter 29 465901 (2017);
          URL http://www.quantum-espresso.org", 
     in publications or presentations arising from this work. More details at
     http://www.quantum-espresso.org/quote

     Parallel version (MPI & OpenMP), running on      20 processor cores
     Number of MPI processes:                20
     Threads/MPI process:                     1

     MPI processes distributed on     1 nodes
     R & G space division:  proc/nbgrp/npool/nimage =      20
     Reading input from /home/azadoks/dftman/projects/SrTiO3 Convergence/EOSWorkflows/599c7fa72078/2edb3f639498/pwscf.in
Warning: card &IONS ignored
Warning: card / ignored
Warning: card &CELL ignored
Warning: card / ignored

     Current dimensions of program PWSCF are:
     Max number of different atomic species (ntypx) = 10
     Max number of k-points (npk) =  40000
     Max angular momentum in pseudopotentials (lmaxx) =  3
     Message from routine iosys:
     minimal I/O required, wf_collect reset to FALSE

     Subspace diagonalization in iterative solution of the eigenvalue problem:
     one sub-group per band group will be used
     scalapack distributed-memory algorithm (size of sub-group:  3*  3 procs)

 
     Parallelization info
     --------------------
     sticks:   dense  smooth     PW     G-vecs:    dense   smooth      PW
     Min          54      54     16                 1358     1358     218
     Max          55      55     17                 1363     1363     221
     Sum        1093    1093    325                27201    27201    4385
 


     bravais-lattice index     =            0
     lattice parameter (alat)  =       8.2836  a.u.
     unit-cell volume          =     568.3987 (a.u.)^3
     number of atoms/cell      =            5
     number of atomic types    =            3
     number of electrons       =        40.00
     number of Kohn-Sham states=           24
     kinetic-energy cutoff     =      50.0000  Ry
     charge density cutoff     =     200.0000  Ry
     convergence threshold     =      1.0E-08
     mixing beta               =       0.7000
     number of iterations used =            8  plain     mixing
     Exchange-correlation      =  SLA  PW   PBX  PBC ( 1  4  3  4 0 0)

     celldm(1)=   8.283573  celldm(2)=   0.000000  celldm(3)=   0.000000
     celldm(4)=   0.000000  celldm(5)=   0.000000  celldm(6)=   0.000000

     crystal axes: (cart. coord. in units of alat)
               a(1) = (   1.000000   0.000000   0.000000 )  
               a(2) = (   0.000000   1.000000   0.000000 )  
               a(3) = (   0.000000   0.000000   1.000000 )  

     reciprocal axes: (cart. coord. in units 2 pi/alat)
               b(1) = (  1.000000  0.000000  0.000000 )  
               b(2) = (  0.000000  1.000000  0.000000 )  
               b(3) = (  0.000000  0.000000  1.000000 )  


     PseudoPot. # 1 for O  read from file:
     /home/azadoks/.local/share/pseudo/GBRV_PBE_US/o_pbe_v1.2.uspp.F.UPF
     MD5 check sum: 734c27235a0248c51dbae37a1fbe46ec
     Pseudo is Ultrasoft + core correction, Zval =  6.0
     Generated by new atomic code, or converted to UPF format
     Using radial grid of  737 points,  5 beta functions with: 
                l(1) =   0
                l(2) =   0
                l(3) =   1
                l(4) =   1
                l(5) =   2
     Q(r) pseudized with  8 coefficients,  rinner =    0.900   0.900   0.900
                                                       0.900   0.900

     PseudoPot. # 2 for Sr read from file:
     /home/azadoks/.local/share/pseudo/GBRV_PBE_US/sr_pbe_v1.uspp.F.UPF
     MD5 check sum: 6b418c05fbe9db5448babca5e47b7a5b
     Pseudo is Ultrasoft + core correction, Zval = 10.0
     Generated by new atomic code, or converted to UPF format
     Using radial grid of  883 points,  6 beta functions with: 
                l(1) =   0
                l(2) =   0
                l(3) =   1
                l(4) =   1
                l(5) =   2
                l(6) =   2
     Q(r) pseudized with  6 coefficients,  rinner =    1.400   1.400   1.400
                                                       1.400   1.400

     PseudoPot. # 3 for Ti read from file:
     /home/azadoks/.local/share/pseudo/GBRV_PBE_US/ti_pbe_v1.4.uspp.F.UPF
     MD5 check sum: 88a00a6731bd790ddea75d31a80cb452
     Pseudo is Ultrasoft + core correction, Zval = 12.0
     Generated by new atomic code, or converted to UPF format
     Using radial grid of  851 points,  6 beta functions with: 
                l(1) =   0
                l(2) =   0
                l(3) =   1
                l(4) =   1
                l(5) =   2
                l(6) =   2
     Q(r) pseudized with  6 coefficients,  rinner =    1.000   1.000   1.000
                                                       1.000   1.000

     atomic species   valence    mass     pseudopotential
        O              6.00    15.99940     O ( 1.00)
        Sr            10.00    87.62000     Sr( 1.00)
        Ti            12.00    47.86700     Ti( 1.00)

     48 Sym. Ops., with inversion, found


                                    s                        frac. trans.

      isym =  1     identity                                     

 cryst.   s( 1) = (     1          0          0      )
                  (     0          1          0      )
                  (     0          0          1      )

 cart.    s( 1) = (  1.0000000  0.0000000  0.0000000 )
                  (  0.0000000  1.0000000  0.0000000 )
                  (  0.0000000  0.0000000  1.0000000 )


      isym =  2     180 deg rotation - cart. axis [0,0,1]        

 cryst.   s( 2) = (    -1          0          0      )
                  (     0         -1          0      )
                  (     0          0          1      )

 cart.    s( 2) = ( -1.0000000  0.0000000  0.0000000 )
                  (  0.0000000 -1.0000000  0.0000000 )
                  (  0.0000000  0.0000000  1.0000000 )


      isym =  3     180 deg rotation - cart. axis [0,1,0]        

 cryst.   s( 3) = (    -1          0          0      )
                  (     0          1          0      )
                  (     0          0         -1      )

 cart.    s( 3) = ( -1.0000000  0.0000000  0.0000000 )
                  (  0.0000000  1.0000000  0.0000000 )
                  (  0.0000000  0.0000000 -1.0000000 )


      isym =  4     180 deg rotation - cart. axis [1,0,0]        

 cryst.   s( 4) = (     1          0          0      )
                  (     0         -1          0      )
                  (     0          0         -1      )

 cart.    s( 4) = (  1.0000000  0.0000000  0.0000000 )
                  (  0.0000000 -1.0000000  0.0000000 )
                  (  0.0000000  0.0000000 -1.0000000 )


      isym =  5     180 deg rotation - cart. axis [1,1,0]        

 cryst.   s( 5) = (     0          1          0      )
                  (     1          0          0      )
                  (     0          0         -1      )

 cart.    s( 5) = (  0.0000000  1.0000000  0.0000000 )
                  (  1.0000000  0.0000000  0.0000000 )
                  (  0.0000000  0.0000000 -1.0000000 )


      isym =  6     180 deg rotation - cart. axis [1,-1,0]       

 cryst.   s( 6) = (     0         -1          0      )
                  (    -1          0          0      )
                  (     0          0         -1      )

 cart.    s( 6) = (  0.0000000 -1.0000000  0.0000000 )
                  ( -1.0000000  0.0000000  0.0000000 )
                  (  0.0000000  0.0000000 -1.0000000 )


      isym =  7      90 deg rotation - cart. axis [0,0,-1]       

 cryst.   s( 7) = (     0         -1          0      )
                  (     1          0          0      )
                  (     0          0          1      )

 cart.    s( 7) = (  0.0000000  1.0000000  0.0000000 )
                  ( -1.0000000  0.0000000  0.0000000 )
                  (  0.0000000  0.0000000  1.0000000 )


      isym =  8      90 deg rotation - cart. axis [0,0,1]        

 cryst.   s( 8) = (     0          1          0      )
                  (    -1          0          0      )
                  (     0          0          1      )

 cart.    s( 8) = (  0.0000000 -1.0000000  0.0000000 )
                  (  1.0000000  0.0000000  0.0000000 )
                  (  0.0000000  0.0000000  1.0000000 )


      isym =  9     180 deg rotation - cart. axis [1,0,1]        

 cryst.   s( 9) = (     0          0          1      )
                  (     0         -1          0      )
                  (     1          0          0      )

 cart.    s( 9) = (  0.0000000  0.0000000  1.0000000 )
                  (  0.0000000 -1.0000000  0.0000000 )
                  (  1.0000000  0.0000000  0.0000000 )


      isym = 10     180 deg rotation - cart. axis [-1,0,1]       

 cryst.   s(10) = (     0          0         -1      )
                  (     0         -1          0      )
                  (    -1          0          0      )

 cart.    s(10) = (  0.0000000  0.0000000 -1.0000000 )
                  (  0.0000000 -1.0000000  0.0000000 )
                  ( -1.0000000  0.0000000  0.0000000 )


      isym = 11      90 deg rotation - cart. axis [0,1,0]        

 cryst.   s(11) = (     0          0         -1      )
                  (     0          1          0      )
                  (     1          0          0      )

 cart.    s(11) = (  0.0000000  0.0000000  1.0000000 )
                  (  0.0000000  1.0000000  0.0000000 )
                  ( -1.0000000  0.0000000  0.0000000 )


      isym = 12      90 deg rotation - cart. axis [0,-1,0]       

 cryst.   s(12) = (     0          0          1      )
                  (     0          1          0      )
                  (    -1          0          0      )

 cart.    s(12) = (  0.0000000  0.0000000 -1.0000000 )
                  (  0.0000000  1.0000000  0.0000000 )
                  (  1.0000000  0.0000000  0.0000000 )


      isym = 13     180 deg rotation - cart. axis [0,1,1]        

 cryst.   s(13) = (    -1          0          0      )
                  (     0          0          1      )
                  (     0          1          0      )

 cart.    s(13) = ( -1.0000000  0.0000000  0.0000000 )
                  (  0.0000000  0.0000000  1.0000000 )
                  (  0.0000000  1.0000000  0.0000000 )


      isym = 14     180 deg rotation - cart. axis [0,1,-1]       

 cryst.   s(14) = (    -1          0          0      )
                  (     0          0         -1      )
                  (     0         -1          0      )

 cart.    s(14) = ( -1.0000000  0.0000000  0.0000000 )
                  (  0.0000000  0.0000000 -1.0000000 )
                  (  0.0000000 -1.0000000  0.0000000 )


      isym = 15      90 deg rotation - cart. axis [-1,0,0]       

 cryst.   s(15) = (     1          0          0      )
                  (     0          0         -1      )
                  (     0          1          0      )

 cart.    s(15) = (  1.0000000  0.0000000  0.0000000 )
                  (  0.0000000  0.0000000  1.0000000 )
                  (  0.0000000 -1.0000000  0.0000000 )


      isym = 16      90 deg rotation - cart. axis [1,0,0]        

 cryst.   s(16) = (     1          0          0      )
                  (     0          0          1      )
                  (     0         -1          0      )

 cart.    s(16) = (  1.0000000  0.0000000  0.0000000 )
                  (  0.0000000  0.0000000 -1.0000000 )
                  (  0.0000000  1.0000000  0.0000000 )


      isym = 17     120 deg rotation - cart. axis [-1,-1,-1]     

 cryst.   s(17) = (     0          0          1      )
                  (     1          0          0      )
                  (     0          1          0      )

 cart.    s(17) = (  0.0000000  1.0000000  0.0000000 )
                  (  0.0000000  0.0000000  1.0000000 )
                  (  1.0000000  0.0000000  0.0000000 )


      isym = 18     120 deg rotation - cart. axis [-1,1,1]       

 cryst.   s(18) = (     0          0         -1      )
                  (    -1          0          0      )
                  (     0          1          0      )

 cart.    s(18) = (  0.0000000 -1.0000000  0.0000000 )
                  (  0.0000000  0.0000000  1.0000000 )
                  ( -1.0000000  0.0000000  0.0000000 )


      isym = 19     120 deg rotation - cart. axis [1,1,-1]       

 cryst.   s(19) = (     0          0         -1      )
                  (     1          0          0      )
                  (     0         -1          0      )

 cart.    s(19) = (  0.0000000  1.0000000  0.0000000 )
                  (  0.0000000  0.0000000 -1.0000000 )
                  ( -1.0000000  0.0000000  0.0000000 )


      isym = 20     120 deg rotation - cart. axis [1,-1,1]       

 cryst.   s(20) = (     0          0          1      )
                  (    -1          0          0      )
                  (     0         -1          0      )

 cart.    s(20) = (  0.0000000 -1.0000000  0.0000000 )
                  (  0.0000000  0.0000000 -1.0000000 )
                  (  1.0000000  0.0000000  0.0000000 )


      isym = 21     120 deg rotation - cart. axis [1,1,1]        

 cryst.   s(21) = (     0          1          0      )
                  (     0          0          1      )
                  (     1          0          0      )

 cart.    s(21) = (  0.0000000  0.0000000  1.0000000 )
                  (  1.0000000  0.0000000  0.0000000 )
                  (  0.0000000  1.0000000  0.0000000 )


      isym = 22     120 deg rotation - cart. axis [-1,1,-1]      

 cryst.   s(22) = (     0         -1          0      )
                  (     0          0         -1      )
                  (     1          0          0      )

 cart.    s(22) = (  0.0000000  0.0000000  1.0000000 )
                  ( -1.0000000  0.0000000  0.0000000 )
                  (  0.0000000 -1.0000000  0.0000000 )


      isym = 23     120 deg rotation - cart. axis [1,-1,-1]      

 cryst.   s(23) = (     0         -1          0      )
                  (     0          0          1      )
                  (    -1          0          0      )

 cart.    s(23) = (  0.0000000  0.0000000 -1.0000000 )
                  ( -1.0000000  0.0000000  0.0000000 )
                  (  0.0000000  1.0000000  0.0000000 )


      isym = 24     120 deg rotation - cart. axis [-1,-1,1]      

 cryst.   s(24) = (     0          1          0      )
                  (     0          0         -1      )
                  (    -1          0          0      )

 cart.    s(24) = (  0.0000000  0.0000000 -1.0000000 )
                  (  1.0000000  0.0000000  0.0000000 )
                  (  0.0000000 -1.0000000  0.0000000 )


      isym = 25     inversion                                    

 cryst.   s(25) = (    -1          0          0      )
                  (     0         -1          0      )
                  (     0          0         -1      )

 cart.    s(25) = ( -1.0000000  0.0000000  0.0000000 )
                  (  0.0000000 -1.0000000  0.0000000 )
                  (  0.0000000  0.0000000 -1.0000000 )


      isym = 26     inv. 180 deg rotation - cart. axis [0,0,1]   

 cryst.   s(26) = (     1          0          0      )
                  (     0          1          0      )
                  (     0          0         -1      )

 cart.    s(26) = (  1.0000000  0.0000000  0.0000000 )
                  (  0.0000000  1.0000000  0.0000000 )
                  (  0.0000000  0.0000000 -1.0000000 )


      isym = 27     inv. 180 deg rotation - cart. axis [0,1,0]   

 cryst.   s(27) = (     1          0          0      )
                  (     0         -1          0      )
                  (     0          0          1      )

 cart.    s(27) = (  1.0000000  0.0000000  0.0000000 )
                  (  0.0000000 -1.0000000  0.0000000 )
                  (  0.0000000  0.0000000  1.0000000 )


      isym = 28     inv. 180 deg rotation - cart. axis [1,0,0]   

 cryst.   s(28) = (    -1          0          0      )
                  (     0          1          0      )
                  (     0          0          1      )

 cart.    s(28) = ( -1.0000000  0.0000000  0.0000000 )
                  (  0.0000000  1.0000000  0.0000000 )
                  (  0.0000000  0.0000000  1.0000000 )


      isym = 29     inv. 180 deg rotation - cart. axis [1,1,0]   

 cryst.   s(29) = (     0         -1          0      )
                  (    -1          0          0      )
                  (     0          0          1      )

 cart.    s(29) = (  0.0000000 -1.0000000  0.0000000 )
                  ( -1.0000000  0.0000000  0.0000000 )
                  (  0.0000000  0.0000000  1.0000000 )


      isym = 30     inv. 180 deg rotation - cart. axis [1,-1,0]  

 cryst.   s(30) = (     0          1          0      )
                  (     1          0          0      )
                  (     0          0          1      )

 cart.    s(30) = (  0.0000000  1.0000000  0.0000000 )
                  (  1.0000000  0.0000000  0.0000000 )
                  (  0.0000000  0.0000000  1.0000000 )


      isym = 31     inv.  90 deg rotation - cart. axis [0,0,-1]  

 cryst.   s(31) = (     0          1          0      )
                  (    -1          0          0      )
                  (     0          0         -1      )

 cart.    s(31) = (  0.0000000 -1.0000000  0.0000000 )
                  (  1.0000000  0.0000000  0.0000000 )
                  (  0.0000000  0.0000000 -1.0000000 )


      isym = 32     inv.  90 deg rotation - cart. axis [0,0,1]   

 cryst.   s(32) = (     0         -1          0      )
                  (     1          0          0      )
                  (     0          0         -1      )

 cart.    s(32) = (  0.0000000  1.0000000  0.0000000 )
                  ( -1.0000000  0.0000000  0.0000000 )
                  (  0.0000000  0.0000000 -1.0000000 )


      isym = 33     inv. 180 deg rotation - cart. axis [1,0,1]   

 cryst.   s(33) = (     0          0         -1      )
                  (     0          1          0      )
                  (    -1          0          0      )

 cart.    s(33) = (  0.0000000  0.0000000 -1.0000000 )
                  (  0.0000000  1.0000000  0.0000000 )
                  ( -1.0000000  0.0000000  0.0000000 )


      isym = 34     inv. 180 deg rotation - cart. axis [-1,0,1]  

 cryst.   s(34) = (     0          0          1      )
                  (     0          1          0      )
                  (     1          0          0      )

 cart.    s(34) = (  0.0000000  0.0000000  1.0000000 )
                  (  0.0000000  1.0000000  0.0000000 )
                  (  1.0000000  0.0000000  0.0000000 )


      isym = 35     inv.  90 deg rotation - cart. axis [0,1,0]   

 cryst.   s(35) = (     0          0          1      )
                  (     0         -1          0      )
                  (    -1          0          0      )

 cart.    s(35) = (  0.0000000  0.0000000 -1.0000000 )
                  (  0.0000000 -1.0000000  0.0000000 )
                  (  1.0000000  0.0000000  0.0000000 )


      isym = 36     inv.  90 deg rotation - cart. axis [0,-1,0]  

 cryst.   s(36) = (     0          0         -1      )
                  (     0         -1          0      )
                  (     1          0          0      )

 cart.    s(36) = (  0.0000000  0.0000000  1.0000000 )
                  (  0.0000000 -1.0000000  0.0000000 )
                  ( -1.0000000  0.0000000  0.0000000 )


      isym = 37     inv. 180 deg rotation - cart. axis [0,1,1]   

 cryst.   s(37) = (     1          0          0      )
                  (     0          0         -1      )
                  (     0         -1          0      )

 cart.    s(37) = (  1.0000000  0.0000000  0.0000000 )
                  (  0.0000000  0.0000000 -1.0000000 )
                  (  0.0000000 -1.0000000  0.0000000 )


      isym = 38     inv. 180 deg rotation - cart. axis [0,1,-1]  

 cryst.   s(38) = (     1          0          0      )
                  (     0          0          1      )
                  (     0          1          0      )

 cart.    s(38) = (  1.0000000  0.0000000  0.0000000 )
                  (  0.0000000  0.0000000  1.0000000 )
                  (  0.0000000  1.0000000  0.0000000 )


      isym = 39     inv.  90 deg rotation - cart. axis [-1,0,0]  

 cryst.   s(39) = (    -1          0          0      )
                  (     0          0          1      )
                  (     0         -1          0      )

 cart.    s(39) = ( -1.0000000  0.0000000  0.0000000 )
                  (  0.0000000  0.0000000 -1.0000000 )
                  (  0.0000000  1.0000000  0.0000000 )


      isym = 40     inv.  90 deg rotation - cart. axis [1,0,0]   

 cryst.   s(40) = (    -1          0          0      )
                  (     0          0         -1      )
                  (     0          1          0      )

 cart.    s(40) = ( -1.0000000  0.0000000  0.0000000 )
                  (  0.0000000  0.0000000  1.0000000 )
                  (  0.0000000 -1.0000000  0.0000000 )


      isym = 41     inv. 120 deg rotation - cart. axis [-1,-1,-1]

 cryst.   s(41) = (     0          0         -1      )
                  (    -1          0          0      )
                  (     0         -1          0      )

 cart.    s(41) = (  0.0000000 -1.0000000  0.0000000 )
                  (  0.0000000  0.0000000 -1.0000000 )
                  ( -1.0000000  0.0000000  0.0000000 )


      isym = 42     inv. 120 deg rotation - cart. axis [-1,1,1]  

 cryst.   s(42) = (     0          0          1      )
                  (     1          0          0      )
                  (     0         -1          0      )

 cart.    s(42) = (  0.0000000  1.0000000  0.0000000 )
                  (  0.0000000  0.0000000 -1.0000000 )
                  (  1.0000000  0.0000000  0.0000000 )


      isym = 43     inv. 120 deg rotation - cart. axis [1,1,-1]  

 cryst.   s(43) = (     0          0          1      )
                  (    -1          0          0      )
                  (     0          1          0      )

 cart.    s(43) = (  0.0000000 -1.0000000  0.0000000 )
                  (  0.0000000  0.0000000  1.0000000 )
                  (  1.0000000  0.0000000  0.0000000 )


      isym = 44     inv. 120 deg rotation - cart. axis [1,-1,1]  

 cryst.   s(44) = (     0          0         -1      )
                  (     1          0          0      )
                  (     0          1          0      )

 cart.    s(44) = (  0.0000000  1.0000000  0.0000000 )
                  (  0.0000000  0.0000000  1.0000000 )
                  ( -1.0000000  0.0000000  0.0000000 )


      isym = 45     inv. 120 deg rotation - cart. axis [1,1,1]   

 cryst.   s(45) = (     0         -1          0      )
                  (     0          0         -1      )
                  (    -1          0          0      )

 cart.    s(45) = (  0.0000000  0.0000000 -1.0000000 )
                  ( -1.0000000  0.0000000  0.0000000 )
                  (  0.0000000 -1.0000000  0.0000000 )


      isym = 46     inv. 120 deg rotation - cart. axis [-1,1,-1] 

 cryst.   s(46) = (     0          1          0      )
                  (     0          0          1      )
                  (    -1          0          0      )

 cart.    s(46) = (  0.0000000  0.0000000 -1.0000000 )
                  (  1.0000000  0.0000000  0.0000000 )
                  (  0.0000000  1.0000000  0.0000000 )


      isym = 47     inv. 120 deg rotation - cart. axis [1,-1,-1] 

 cryst.   s(47) = (     0          1          0      )
                  (     0          0         -1      )
                  (     1          0          0      )

 cart.    s(47) = (  0.0000000  0.0000000  1.0000000 )
                  (  1.0000000  0.0000000  0.0000000 )
                  (  0.0000000 -1.0000000  0.0000000 )


      isym = 48     inv. 120 deg rotation - cart. axis [-1,-1,1] 

 cryst.   s(48) = (     0         -1          0      )
                  (     0          0          1      )
                  (     1          0          0      )

 cart.    s(48) = (  0.0000000  0.0000000  1.0000000 )
                  ( -1.0000000  0.0000000  0.0000000 )
                  (  0.0000000  1.0000000  0.0000000 )


   Cartesian axes

     site n.     atom                  positions (alat units)
         1           O   tau(   1) = (   0.5000000   0.0000000   0.5000000  )
         2           O   tau(   2) = (   0.5000000   0.5000000   0.0000000  )
         3           O   tau(   3) = (   0.0000000   0.5000000   0.5000000  )
         4           Ti  tau(   4) = (   0.5000000   0.5000000   0.5000000  )
         5           Sr  tau(   5) = (   0.0000000   0.0000000   0.0000000  )

   Crystallographic axes

     site n.     atom                  positions (cryst. coord.)
         1           O   tau(   1) = (  0.5000000  0.0000000  0.5000000  )
         2           O   tau(   2) = (  0.5000000  0.5000000  0.0000000  )
         3           O   tau(   3) = (  0.0000000  0.5000000  0.5000000  )
         4           Ti  tau(   4) = (  0.5000000  0.5000000  0.5000000  )
         5           Sr  tau(   5) = (  0.0000000  0.0000000  0.0000000  )

     number of k points=   455  Marzari-Vanderbilt smearing, width (Ry)=  0.0010
                       cart. coord. in units 2pi/alat
        k(    1) = (   0.0000000   0.0000000   0.0000000), wk =   0.0001447
        k(    2) = (   0.0000000   0.0000000   0.0416667), wk =   0.0008681
        k(    3) = (   0.0000000   0.0000000   0.0833333), wk =   0.0008681
        k(    4) = (   0.0000000   0.0000000   0.1250000), wk =   0.0008681
        k(    5) = (   0.0000000   0.0000000   0.1666667), wk =   0.0008681
        k(    6) = (   0.0000000   0.0000000   0.2083333), wk =   0.0008681
        k(    7) = (   0.0000000   0.0000000   0.2500000), wk =   0.0008681
        k(    8) = (   0.0000000   0.0000000   0.2916667), wk =   0.0008681
        k(    9) = (   0.0000000   0.0000000   0.3333333), wk =   0.0008681
        k(   10) = (   0.0000000   0.0000000   0.3750000), wk =   0.0008681
        k(   11) = (   0.0000000   0.0000000   0.4166667), wk =   0.0008681
        k(   12) = (   0.0000000   0.0000000   0.4583333), wk =   0.0008681
        k(   13) = (   0.0000000   0.0000000  -0.5000000), wk =   0.0004340
        k(   14) = (   0.0000000   0.0416667   0.0416667), wk =   0.0017361
        k(   15) = (   0.0000000   0.0416667   0.0833333), wk =   0.0034722
        k(   16) = (   0.0000000   0.0416667   0.1250000), wk =   0.0034722
        k(   17) = (   0.0000000   0.0416667   0.1666667), wk =   0.0034722
        k(   18) = (   0.0000000   0.0416667   0.2083333), wk =   0.0034722
        k(   19) = (   0.0000000   0.0416667   0.2500000), wk =   0.0034722
        k(   20) = (   0.0000000   0.0416667   0.2916667), wk =   0.0034722
        k(   21) = (   0.0000000   0.0416667   0.3333333), wk =   0.0034722
        k(   22) = (   0.0000000   0.0416667   0.3750000), wk =   0.0034722
        k(   23) = (   0.0000000   0.0416667   0.4166667), wk =   0.0034722
        k(   24) = (   0.0000000   0.0416667   0.4583333), wk =   0.0034722
        k(   25) = (   0.0000000   0.0416667  -0.5000000), wk =   0.0017361
        k(   26) = (   0.0000000   0.0833333   0.0833333), wk =   0.0017361
        k(   27) = (   0.0000000   0.0833333   0.1250000), wk =   0.0034722
        k(   28) = (   0.0000000   0.0833333   0.1666667), wk =   0.0034722
        k(   29) = (   0.0000000   0.0833333   0.2083333), wk =   0.0034722
        k(   30) = (   0.0000000   0.0833333   0.2500000), wk =   0.0034722
        k(   31) = (   0.0000000   0.0833333   0.2916667), wk =   0.0034722
        k(   32) = (   0.0000000   0.0833333   0.3333333), wk =   0.0034722
        k(   33) = (   0.0000000   0.0833333   0.3750000), wk =   0.0034722
        k(   34) = (   0.0000000   0.0833333   0.4166667), wk =   0.0034722
        k(   35) = (   0.0000000   0.0833333   0.4583333), wk =   0.0034722
        k(   36) = (   0.0000000   0.0833333  -0.5000000), wk =   0.0017361
        k(   37) = (   0.0000000   0.1250000   0.1250000), wk =   0.0017361
        k(   38) = (   0.0000000   0.1250000   0.1666667), wk =   0.0034722
        k(   39) = (   0.0000000   0.1250000   0.2083333), wk =   0.0034722
        k(   40) = (   0.0000000   0.1250000   0.2500000), wk =   0.0034722
        k(   41) = (   0.0000000   0.1250000   0.2916667), wk =   0.0034722
        k(   42) = (   0.0000000   0.1250000   0.3333333), wk =   0.0034722
        k(   43) = (   0.0000000   0.1250000   0.3750000), wk =   0.0034722
        k(   44) = (   0.0000000   0.1250000   0.4166667), wk =   0.0034722
        k(   45) = (   0.0000000   0.1250000   0.4583333), wk =   0.0034722
        k(   46) = (   0.0000000   0.1250000  -0.5000000), wk =   0.0017361
        k(   47) = (   0.0000000   0.1666667   0.1666667), wk =   0.0017361
        k(   48) = (   0.0000000   0.1666667   0.2083333), wk =   0.0034722
        k(   49) = (   0.0000000   0.1666667   0.2500000), wk =   0.0034722
        k(   50) = (   0.0000000   0.1666667   0.2916667), wk =   0.0034722
        k(   51) = (   0.0000000   0.1666667   0.3333333), wk =   0.0034722
        k(   52) = (   0.0000000   0.1666667   0.3750000), wk =   0.0034722
        k(   53) = (   0.0000000   0.1666667   0.4166667), wk =   0.0034722
        k(   54) = (   0.0000000   0.1666667   0.4583333), wk =   0.0034722
        k(   55) = (   0.0000000   0.1666667  -0.5000000), wk =   0.0017361
        k(   56) = (   0.0000000   0.2083333   0.2083333), wk =   0.0017361
        k(   57) = (   0.0000000   0.2083333   0.2500000), wk =   0.0034722
        k(   58) = (   0.0000000   0.2083333   0.2916667), wk =   0.0034722
        k(   59) = (   0.0000000   0.2083333   0.3333333), wk =   0.0034722
        k(   60) = (   0.0000000   0.2083333   0.3750000), wk =   0.0034722
        k(   61) = (   0.0000000   0.2083333   0.4166667), wk =   0.0034722
        k(   62) = (   0.0000000   0.2083333   0.4583333), wk =   0.0034722
        k(   63) = (   0.0000000   0.2083333  -0.5000000), wk =   0.0017361
        k(   64) = (   0.0000000   0.2500000   0.2500000), wk =   0.0017361
        k(   65) = (   0.0000000   0.2500000   0.2916667), wk =   0.0034722
        k(   66) = (   0.0000000   0.2500000   0.3333333), wk =   0.0034722
        k(   67) = (   0.0000000   0.2500000   0.3750000), wk =   0.0034722
        k(   68) = (   0.0000000   0.2500000   0.4166667), wk =   0.0034722
        k(   69) = (   0.0000000   0.2500000   0.4583333), wk =   0.0034722
        k(   70) = (   0.0000000   0.2500000  -0.5000000), wk =   0.0017361
        k(   71) = (   0.0000000   0.2916667   0.2916667), wk =   0.0017361
        k(   72) = (   0.0000000   0.2916667   0.3333333), wk =   0.0034722
        k(   73) = (   0.0000000   0.2916667   0.3750000), wk =   0.0034722
        k(   74) = (   0.0000000   0.2916667   0.4166667), wk =   0.0034722
        k(   75) = (   0.0000000   0.2916667   0.4583333), wk =   0.0034722
        k(   76) = (   0.0000000   0.2916667  -0.5000000), wk =   0.0017361
        k(   77) = (   0.0000000   0.3333333   0.3333333), wk =   0.0017361
        k(   78) = (   0.0000000   0.3333333   0.3750000), wk =   0.0034722
        k(   79) = (   0.0000000   0.3333333   0.4166667), wk =   0.0034722
        k(   80) = (   0.0000000   0.3333333   0.4583333), wk =   0.0034722
        k(   81) = (   0.0000000   0.3333333  -0.5000000), wk =   0.0017361
        k(   82) = (   0.0000000   0.3750000   0.3750000), wk =   0.0017361
        k(   83) = (   0.0000000   0.3750000   0.4166667), wk =   0.0034722
        k(   84) = (   0.0000000   0.3750000   0.4583333), wk =   0.0034722
        k(   85) = (   0.0000000   0.3750000  -0.5000000), wk =   0.0017361
        k(   86) = (   0.0000000   0.4166667   0.4166667), wk =   0.0017361
        k(   87) = (   0.0000000   0.4166667   0.4583333), wk =   0.0034722
        k(   88) = (   0.0000000   0.4166667  -0.5000000), wk =   0.0017361
        k(   89) = (   0.0000000   0.4583333   0.4583333), wk =   0.0017361
        k(   90) = (   0.0000000   0.4583333  -0.5000000), wk =   0.0017361
        k(   91) = (   0.0000000  -0.5000000  -0.5000000), wk =   0.0004340
        k(   92) = (   0.0416667   0.0416667   0.0416667), wk =   0.0011574
        k(   93) = (   0.0416667   0.0416667   0.0833333), wk =   0.0034722
        k(   94) = (   0.0416667   0.0416667   0.1250000), wk =   0.0034722
        k(   95) = (   0.0416667   0.0416667   0.1666667), wk =   0.0034722
        k(   96) = (   0.0416667   0.0416667   0.2083333), wk =   0.0034722
        k(   97) = (   0.0416667   0.0416667   0.2500000), wk =   0.0034722
        k(   98) = (   0.0416667   0.0416667   0.2916667), wk =   0.0034722
        k(   99) = (   0.0416667   0.0416667   0.3333333), wk =   0.0034722
        k(  100) = (   0.0416667   0.0416667   0.3750000), wk =   0.0034722
        k(  101) = (   0.0416667   0.0416667   0.4166667), wk =   0.0034722
        k(  102) = (   0.0416667   0.0416667   0.4583333), wk =   0.0034722
        k(  103) = (   0.0416667   0.0416667  -0.5000000), wk =   0.0017361
        k(  104) = (   0.0416667   0.0833333   0.0833333), wk =   0.0034722
        k(  105) = (   0.0416667   0.0833333   0.1250000), wk =   0.0069444
        k(  106) = (   0.0416667   0.0833333   0.1666667), wk =   0.0069444
        k(  107) = (   0.0416667   0.0833333   0.2083333), wk =   0.0069444
        k(  108) = (   0.0416667   0.0833333   0.2500000), wk =   0.0069444
        k(  109) = (   0.0416667   0.0833333   0.2916667), wk =   0.0069444
        k(  110) = (   0.0416667   0.0833333   0.3333333), wk =   0.0069444
        k(  111) = (   0.0416667   0.0833333   0.3750000), wk =   0.0069444
        k(  112) = (   0.0416667   0.0833333   0.4166667), wk =   0.0069444
        k(  113) = (   0.0416667   0.0833333   0.4583333), wk =   0.0069444
        k(  114) = (   0.0416667   0.0833333  -0.5000000), wk =   0.0034722
        k(  115) = (   0.0416667   0.1250000   0.1250000), wk =   0.0034722
        k(  116) = (   0.0416667   0.1250000   0.1666667), wk =   0.0069444
        k(  117) = (   0.0416667   0.1250000   0.2083333), wk =   0.0069444
        k(  118) = (   0.0416667   0.1250000   0.2500000), wk =   0.0069444
        k(  119) = (   0.0416667   0.1250000   0.2916667), wk =   0.0069444
        k(  120) = (   0.0416667   0.1250000   0.3333333), wk =   0.0069444
        k(  121) = (   0.0416667   0.1250000   0.3750000), wk =   0.0069444
        k(  122) = (   0.0416667   0.1250000   0.4166667), wk =   0.0069444
        k(  123) = (   0.0416667   0.1250000   0.4583333), wk =   0.0069444
        k(  124) = (   0.0416667   0.1250000  -0.5000000), wk =   0.0034722
        k(  125) = (   0.0416667   0.1666667   0.1666667), wk =   0.0034722
        k(  126) = (   0.0416667   0.1666667   0.2083333), wk =   0.0069444
        k(  127) = (   0.0416667   0.1666667   0.2500000), wk =   0.0069444
        k(  128) = (   0.0416667   0.1666667   0.2916667), wk =   0.0069444
        k(  129) = (   0.0416667   0.1666667   0.3333333), wk =   0.0069444
        k(  130) = (   0.0416667   0.1666667   0.3750000), wk =   0.0069444
        k(  131) = (   0.0416667   0.1666667   0.4166667), wk =   0.0069444
        k(  132) = (   0.0416667   0.1666667   0.4583333), wk =   0.0069444
        k(  133) = (   0.0416667   0.1666667  -0.5000000), wk =   0.0034722
        k(  134) = (   0.0416667   0.2083333   0.2083333), wk =   0.0034722
        k(  135) = (   0.0416667   0.2083333   0.2500000), wk =   0.0069444
        k(  136) = (   0.0416667   0.2083333   0.2916667), wk =   0.0069444
        k(  137) = (   0.0416667   0.2083333   0.3333333), wk =   0.0069444
        k(  138) = (   0.0416667   0.2083333   0.3750000), wk =   0.0069444
        k(  139) = (   0.0416667   0.2083333   0.4166667), wk =   0.0069444
        k(  140) = (   0.0416667   0.2083333   0.4583333), wk =   0.0069444
        k(  141) = (   0.0416667   0.2083333  -0.5000000), wk =   0.0034722
        k(  142) = (   0.0416667   0.2500000   0.2500000), wk =   0.0034722
        k(  143) = (   0.0416667   0.2500000   0.2916667), wk =   0.0069444
        k(  144) = (   0.0416667   0.2500000   0.3333333), wk =   0.0069444
        k(  145) = (   0.0416667   0.2500000   0.3750000), wk =   0.0069444
        k(  146) = (   0.0416667   0.2500000   0.4166667), wk =   0.0069444
        k(  147) = (   0.0416667   0.2500000   0.4583333), wk =   0.0069444
        k(  148) = (   0.0416667   0.2500000  -0.5000000), wk =   0.0034722
        k(  149) = (   0.0416667   0.2916667   0.2916667), wk =   0.0034722
        k(  150) = (   0.0416667   0.2916667   0.3333333), wk =   0.0069444
        k(  151) = (   0.0416667   0.2916667   0.3750000), wk =   0.0069444
        k(  152) = (   0.0416667   0.2916667   0.4166667), wk =   0.0069444
        k(  153) = (   0.0416667   0.2916667   0.4583333), wk =   0.0069444
        k(  154) = (   0.0416667   0.2916667  -0.5000000), wk =   0.0034722
        k(  155) = (   0.0416667   0.3333333   0.3333333), wk =   0.0034722
        k(  156) = (   0.0416667   0.3333333   0.3750000), wk =   0.0069444
        k(  157) = (   0.0416667   0.3333333   0.4166667), wk =   0.0069444
        k(  158) = (   0.0416667   0.3333333   0.4583333), wk =   0.0069444
        k(  159) = (   0.0416667   0.3333333  -0.5000000), wk =   0.0034722
        k(  160) = (   0.0416667   0.3750000   0.3750000), wk =   0.0034722
        k(  161) = (   0.0416667   0.3750000   0.4166667), wk =   0.0069444
        k(  162) = (   0.0416667   0.3750000   0.4583333), wk =   0.0069444
        k(  163) = (   0.0416667   0.3750000  -0.5000000), wk =   0.0034722
        k(  164) = (   0.0416667   0.4166667   0.4166667), wk =   0.0034722
        k(  165) = (   0.0416667   0.4166667   0.4583333), wk =   0.0069444
        k(  166) = (   0.0416667   0.4166667  -0.5000000), wk =   0.0034722
        k(  167) = (   0.0416667   0.4583333   0.4583333), wk =   0.0034722
        k(  168) = (   0.0416667   0.4583333  -0.5000000), wk =   0.0034722
        k(  169) = (   0.0416667  -0.5000000  -0.5000000), wk =   0.0008681
        k(  170) = (   0.0833333   0.0833333   0.0833333), wk =   0.0011574
        k(  171) = (   0.0833333   0.0833333   0.1250000), wk =   0.0034722
        k(  172) = (   0.0833333   0.0833333   0.1666667), wk =   0.0034722
        k(  173) = (   0.0833333   0.0833333   0.2083333), wk =   0.0034722
        k(  174) = (   0.0833333   0.0833333   0.2500000), wk =   0.0034722
        k(  175) = (   0.0833333   0.0833333   0.2916667), wk =   0.0034722
        k(  176) = (   0.0833333   0.0833333   0.3333333), wk =   0.0034722
        k(  177) = (   0.0833333   0.0833333   0.3750000), wk =   0.0034722
        k(  178) = (   0.0833333   0.0833333   0.4166667), wk =   0.0034722
        k(  179) = (   0.0833333   0.0833333   0.4583333), wk =   0.0034722
        k(  180) = (   0.0833333   0.0833333  -0.5000000), wk =   0.0017361
        k(  181) = (   0.0833333   0.1250000   0.1250000), wk =   0.0034722
        k(  182) = (   0.0833333   0.1250000   0.1666667), wk =   0.0069444
        k(  183) = (   0.0833333   0.1250000   0.2083333), wk =   0.0069444
        k(  184) = (   0.0833333   0.1250000   0.2500000), wk =   0.0069444
        k(  185) = (   0.0833333   0.1250000   0.2916667), wk =   0.0069444
        k(  186) = (   0.0833333   0.1250000   0.3333333), wk =   0.0069444
        k(  187) = (   0.0833333   0.1250000   0.3750000), wk =   0.0069444
        k(  188) = (   0.0833333   0.1250000   0.4166667), wk =   0.0069444
        k(  189) = (   0.0833333   0.1250000   0.4583333), wk =   0.0069444
        k(  190) = (   0.0833333   0.1250000  -0.5000000), wk =   0.0034722
        k(  191) = (   0.0833333   0.1666667   0.1666667), wk =   0.0034722
        k(  192) = (   0.0833333   0.1666667   0.2083333), wk =   0.0069444
        k(  193) = (   0.0833333   0.1666667   0.2500000), wk =   0.0069444
        k(  194) = (   0.0833333   0.1666667   0.2916667), wk =   0.0069444
        k(  195) = (   0.0833333   0.1666667   0.3333333), wk =   0.0069444
        k(  196) = (   0.0833333   0.1666667   0.3750000), wk =   0.0069444
        k(  197) = (   0.0833333   0.1666667   0.4166667), wk =   0.0069444
        k(  198) = (   0.0833333   0.1666667   0.4583333), wk =   0.0069444
        k(  199) = (   0.0833333   0.1666667  -0.5000000), wk =   0.0034722
        k(  200) = (   0.0833333   0.2083333   0.2083333), wk =   0.0034722
        k(  201) = (   0.0833333   0.2083333   0.2500000), wk =   0.0069444
        k(  202) = (   0.0833333   0.2083333   0.2916667), wk =   0.0069444
        k(  203) = (   0.0833333   0.2083333   0.3333333), wk =   0.0069444
        k(  204) = (   0.0833333   0.2083333   0.3750000), wk =   0.0069444
        k(  205) = (   0.0833333   0.2083333   0.4166667), wk =   0.0069444
        k(  206) = (   0.0833333   0.2083333   0.4583333), wk =   0.0069444
        k(  207) = (   0.0833333   0.2083333  -0.5000000), wk =   0.0034722
        k(  208) = (   0.0833333   0.2500000   0.2500000), wk =   0.0034722
        k(  209) = (   0.0833333   0.2500000   0.2916667), wk =   0.0069444
        k(  210) = (   0.0833333   0.2500000   0.3333333), wk =   0.0069444
        k(  211) = (   0.0833333   0.2500000   0.3750000), wk =   0.0069444
        k(  212) = (   0.0833333   0.2500000   0.4166667), wk =   0.0069444
        k(  213) = (   0.0833333   0.2500000   0.4583333), wk =   0.0069444
        k(  214) = (   0.0833333   0.2500000  -0.5000000), wk =   0.0034722
        k(  215) = (   0.0833333   0.2916667   0.2916667), wk =   0.0034722
        k(  216) = (   0.0833333   0.2916667   0.3333333), wk =   0.0069444
        k(  217) = (   0.0833333   0.2916667   0.3750000), wk =   0.0069444
        k(  218) = (   0.0833333   0.2916667   0.4166667), wk =   0.0069444
        k(  219) = (   0.0833333   0.2916667   0.4583333), wk =   0.0069444
        k(  220) = (   0.0833333   0.2916667  -0.5000000), wk =   0.0034722
        k(  221) = (   0.0833333   0.3333333   0.3333333), wk =   0.0034722
        k(  222) = (   0.0833333   0.3333333   0.3750000), wk =   0.0069444
        k(  223) = (   0.0833333   0.3333333   0.4166667), wk =   0.0069444
        k(  224) = (   0.0833333   0.3333333   0.4583333), wk =   0.0069444
        k(  225) = (   0.0833333   0.3333333  -0.5000000), wk =   0.0034722
        k(  226) = (   0.0833333   0.3750000   0.3750000), wk =   0.0034722
        k(  227) = (   0.0833333   0.3750000   0.4166667), wk =   0.0069444
        k(  228) = (   0.0833333   0.3750000   0.4583333), wk =   0.0069444
        k(  229) = (   0.0833333   0.3750000  -0.5000000), wk =   0.0034722
        k(  230) = (   0.0833333   0.4166667   0.4166667), wk =   0.0034722
        k(  231) = (   0.0833333   0.4166667   0.4583333), wk =   0.0069444
        k(  232) = (   0.0833333   0.4166667  -0.5000000), wk =   0.0034722
        k(  233) = (   0.0833333   0.4583333   0.4583333), wk =   0.0034722
        k(  234) = (   0.0833333   0.4583333  -0.5000000), wk =   0.0034722
        k(  235) = (   0.0833333  -0.5000000  -0.5000000), wk =   0.0008681
        k(  236) = (   0.1250000   0.1250000   0.1250000), wk =   0.0011574
        k(  237) = (   0.1250000   0.1250000   0.1666667), wk =   0.0034722
        k(  238) = (   0.1250000   0.1250000   0.2083333), wk =   0.0034722
        k(  239) = (   0.1250000   0.1250000   0.2500000), wk =   0.0034722
        k(  240) = (   0.1250000   0.1250000   0.2916667), wk =   0.0034722
        k(  241) = (   0.1250000   0.1250000   0.3333333), wk =   0.0034722
        k(  242) = (   0.1250000   0.1250000   0.3750000), wk =   0.0034722
        k(  243) = (   0.1250000   0.1250000   0.4166667), wk =   0.0034722
        k(  244) = (   0.1250000   0.1250000   0.4583333), wk =   0.0034722
        k(  245) = (   0.1250000   0.1250000  -0.5000000), wk =   0.0017361
        k(  246) = (   0.1250000   0.1666667   0.1666667), wk =   0.0034722
        k(  247) = (   0.1250000   0.1666667   0.2083333), wk =   0.0069444
        k(  248) = (   0.1250000   0.1666667   0.2500000), wk =   0.0069444
        k(  249) = (   0.1250000   0.1666667   0.2916667), wk =   0.0069444
        k(  250) = (   0.1250000   0.1666667   0.3333333), wk =   0.0069444
        k(  251) = (   0.1250000   0.1666667   0.3750000), wk =   0.0069444
        k(  252) = (   0.1250000   0.1666667   0.4166667), wk =   0.0069444
        k(  253) = (   0.1250000   0.1666667   0.4583333), wk =   0.0069444
        k(  254) = (   0.1250000   0.1666667  -0.5000000), wk =   0.0034722
        k(  255) = (   0.1250000   0.2083333   0.2083333), wk =   0.0034722
        k(  256) = (   0.1250000   0.2083333   0.2500000), wk =   0.0069444
        k(  257) = (   0.1250000   0.2083333   0.2916667), wk =   0.0069444
        k(  258) = (   0.1250000   0.2083333   0.3333333), wk =   0.0069444
        k(  259) = (   0.1250000   0.2083333   0.3750000), wk =   0.0069444
        k(  260) = (   0.1250000   0.2083333   0.4166667), wk =   0.0069444
        k(  261) = (   0.1250000   0.2083333   0.4583333), wk =   0.0069444
        k(  262) = (   0.1250000   0.2083333  -0.5000000), wk =   0.0034722
        k(  263) = (   0.1250000   0.2500000   0.2500000), wk =   0.0034722
        k(  264) = (   0.1250000   0.2500000   0.2916667), wk =   0.0069444
        k(  265) = (   0.1250000   0.2500000   0.3333333), wk =   0.0069444
        k(  266) = (   0.1250000   0.2500000   0.3750000), wk =   0.0069444
        k(  267) = (   0.1250000   0.2500000   0.4166667), wk =   0.0069444
        k(  268) = (   0.1250000   0.2500000   0.4583333), wk =   0.0069444
        k(  269) = (   0.1250000   0.2500000  -0.5000000), wk =   0.0034722
        k(  270) = (   0.1250000   0.2916667   0.2916667), wk =   0.0034722
        k(  271) = (   0.1250000   0.2916667   0.3333333), wk =   0.0069444
        k(  272) = (   0.1250000   0.2916667   0.3750000), wk =   0.0069444
        k(  273) = (   0.1250000   0.2916667   0.4166667), wk =   0.0069444
        k(  274) = (   0.1250000   0.2916667   0.4583333), wk =   0.0069444
        k(  275) = (   0.1250000   0.2916667  -0.5000000), wk =   0.0034722
        k(  276) = (   0.1250000   0.3333333   0.3333333), wk =   0.0034722
        k(  277) = (   0.1250000   0.3333333   0.3750000), wk =   0.0069444
        k(  278) = (   0.1250000   0.3333333   0.4166667), wk =   0.0069444
        k(  279) = (   0.1250000   0.3333333   0.4583333), wk =   0.0069444
        k(  280) = (   0.1250000   0.3333333  -0.5000000), wk =   0.0034722
        k(  281) = (   0.1250000   0.3750000   0.3750000), wk =   0.0034722
        k(  282) = (   0.1250000   0.3750000   0.4166667), wk =   0.0069444
        k(  283) = (   0.1250000   0.3750000   0.4583333), wk =   0.0069444
        k(  284) = (   0.1250000   0.3750000  -0.5000000), wk =   0.0034722
        k(  285) = (   0.1250000   0.4166667   0.4166667), wk =   0.0034722
        k(  286) = (   0.1250000   0.4166667   0.4583333), wk =   0.0069444
        k(  287) = (   0.1250000   0.4166667  -0.5000000), wk =   0.0034722
        k(  288) = (   0.1250000   0.4583333   0.4583333), wk =   0.0034722
        k(  289) = (   0.1250000   0.4583333  -0.5000000), wk =   0.0034722
        k(  290) = (   0.1250000  -0.5000000  -0.5000000), wk =   0.0008681
        k(  291) = (   0.1666667   0.1666667   0.1666667), wk =   0.0011574
        k(  292) = (   0.1666667   0.1666667   0.2083333), wk =   0.0034722
        k(  293) = (   0.1666667   0.1666667   0.2500000), wk =   0.0034722
        k(  294) = (   0.1666667   0.1666667   0.2916667), wk =   0.0034722
        k(  295) = (   0.1666667   0.1666667   0.3333333), wk =   0.0034722
        k(  296) = (   0.1666667   0.1666667   0.3750000), wk =   0.0034722
        k(  297) = (   0.1666667   0.1666667   0.4166667), wk =   0.0034722
        k(  298) = (   0.1666667   0.1666667   0.4583333), wk =   0.0034722
        k(  299) = (   0.1666667   0.1666667  -0.5000000), wk =   0.0017361
        k(  300) = (   0.1666667   0.2083333   0.2083333), wk =   0.0034722
        k(  301) = (   0.1666667   0.2083333   0.2500000), wk =   0.0069444
        k(  302) = (   0.1666667   0.2083333   0.2916667), wk =   0.0069444
        k(  303) = (   0.1666667   0.2083333   0.3333333), wk =   0.0069444
        k(  304) = (   0.1666667   0.2083333   0.3750000), wk =   0.0069444
        k(  305) = (   0.1666667   0.2083333   0.4166667), wk =   0.0069444
        k(  306) = (   0.1666667   0.2083333   0.4583333), wk =   0.0069444
        k(  307) = (   0.1666667   0.2083333  -0.5000000), wk =   0.0034722
        k(  308) = (   0.1666667   0.2500000   0.2500000), wk =   0.0034722
        k(  309) = (   0.1666667   0.2500000   0.2916667), wk =   0.0069444
        k(  310) = (   0.1666667   0.2500000   0.3333333), wk =   0.0069444
        k(  311) = (   0.1666667   0.2500000   0.3750000), wk =   0.0069444
        k(  312) = (   0.1666667   0.2500000   0.4166667), wk =   0.0069444
        k(  313) = (   0.1666667   0.2500000   0.4583333), wk =   0.0069444
        k(  314) = (   0.1666667   0.2500000  -0.5000000), wk =   0.0034722
        k(  315) = (   0.1666667   0.2916667   0.2916667), wk =   0.0034722
        k(  316) = (   0.1666667   0.2916667   0.3333333), wk =   0.0069444
        k(  317) = (   0.1666667   0.2916667   0.3750000), wk =   0.0069444
        k(  318) = (   0.1666667   0.2916667   0.4166667), wk =   0.0069444
        k(  319) = (   0.1666667   0.2916667   0.4583333), wk =   0.0069444
        k(  320) = (   0.1666667   0.2916667  -0.5000000), wk =   0.0034722
        k(  321) = (   0.1666667   0.3333333   0.3333333), wk =   0.0034722
        k(  322) = (   0.1666667   0.3333333   0.3750000), wk =   0.0069444
        k(  323) = (   0.1666667   0.3333333   0.4166667), wk =   0.0069444
        k(  324) = (   0.1666667   0.3333333   0.4583333), wk =   0.0069444
        k(  325) = (   0.1666667   0.3333333  -0.5000000), wk =   0.0034722
        k(  326) = (   0.1666667   0.3750000   0.3750000), wk =   0.0034722
        k(  327) = (   0.1666667   0.3750000   0.4166667), wk =   0.0069444
        k(  328) = (   0.1666667   0.3750000   0.4583333), wk =   0.0069444
        k(  329) = (   0.1666667   0.3750000  -0.5000000), wk =   0.0034722
        k(  330) = (   0.1666667   0.4166667   0.4166667), wk =   0.0034722
        k(  331) = (   0.1666667   0.4166667   0.4583333), wk =   0.0069444
        k(  332) = (   0.1666667   0.4166667  -0.5000000), wk =   0.0034722
        k(  333) = (   0.1666667   0.4583333   0.4583333), wk =   0.0034722
        k(  334) = (   0.1666667   0.4583333  -0.5000000), wk =   0.0034722
        k(  335) = (   0.1666667  -0.5000000  -0.5000000), wk =   0.0008681
        k(  336) = (   0.2083333   0.2083333   0.2083333), wk =   0.0011574
        k(  337) = (   0.2083333   0.2083333   0.2500000), wk =   0.0034722
        k(  338) = (   0.2083333   0.2083333   0.2916667), wk =   0.0034722
        k(  339) = (   0.2083333   0.2083333   0.3333333), wk =   0.0034722
        k(  340) = (   0.2083333   0.2083333   0.3750000), wk =   0.0034722
        k(  341) = (   0.2083333   0.2083333   0.4166667), wk =   0.0034722
        k(  342) = (   0.2083333   0.2083333   0.4583333), wk =   0.0034722
        k(  343) = (   0.2083333   0.2083333  -0.5000000), wk =   0.0017361
        k(  344) = (   0.2083333   0.2500000   0.2500000), wk =   0.0034722
        k(  345) = (   0.2083333   0.2500000   0.2916667), wk =   0.0069444
        k(  346) = (   0.2083333   0.2500000   0.3333333), wk =   0.0069444
        k(  347) = (   0.2083333   0.2500000   0.3750000), wk =   0.0069444
        k(  348) = (   0.2083333   0.2500000   0.4166667), wk =   0.0069444
        k(  349) = (   0.2083333   0.2500000   0.4583333), wk =   0.0069444
        k(  350) = (   0.2083333   0.2500000  -0.5000000), wk =   0.0034722
        k(  351) = (   0.2083333   0.2916667   0.2916667), wk =   0.0034722
        k(  352) = (   0.2083333   0.2916667   0.3333333), wk =   0.0069444
        k(  353) = (   0.2083333   0.2916667   0.3750000), wk =   0.0069444
        k(  354) = (   0.2083333   0.2916667   0.4166667), wk =   0.0069444
        k(  355) = (   0.2083333   0.2916667   0.4583333), wk =   0.0069444
        k(  356) = (   0.2083333   0.2916667  -0.5000000), wk =   0.0034722
        k(  357) = (   0.2083333   0.3333333   0.3333333), wk =   0.0034722
        k(  358) = (   0.2083333   0.3333333   0.3750000), wk =   0.0069444
        k(  359) = (   0.2083333   0.3333333   0.4166667), wk =   0.0069444
        k(  360) = (   0.2083333   0.3333333   0.4583333), wk =   0.0069444
        k(  361) = (   0.2083333   0.3333333  -0.5000000), wk =   0.0034722
        k(  362) = (   0.2083333   0.3750000   0.3750000), wk =   0.0034722
        k(  363) = (   0.2083333   0.3750000   0.4166667), wk =   0.0069444
        k(  364) = (   0.2083333   0.3750000   0.4583333), wk =   0.0069444
        k(  365) = (   0.2083333   0.3750000  -0.5000000), wk =   0.0034722
        k(  366) = (   0.2083333   0.4166667   0.4166667), wk =   0.0034722
        k(  367) = (   0.2083333   0.4166667   0.4583333), wk =   0.0069444
        k(  368) = (   0.2083333   0.4166667  -0.5000000), wk =   0.0034722
        k(  369) = (   0.2083333   0.4583333   0.4583333), wk =   0.0034722
        k(  370) = (   0.2083333   0.4583333  -0.5000000), wk =   0.0034722
        k(  371) = (   0.2083333  -0.5000000  -0.5000000), wk =   0.0008681
        k(  372) = (   0.2500000   0.2500000   0.2500000), wk =   0.0011574
        k(  373) = (   0.2500000   0.2500000   0.2916667), wk =   0.0034722
        k(  374) = (   0.2500000   0.2500000   0.3333333), wk =   0.0034722
        k(  375) = (   0.2500000   0.2500000   0.3750000), wk =   0.0034722
        k(  376) = (   0.2500000   0.2500000   0.4166667), wk =   0.0034722
        k(  377) = (   0.2500000   0.2500000   0.4583333), wk =   0.0034722
        k(  378) = (   0.2500000   0.2500000  -0.5000000), wk =   0.0017361
        k(  379) = (   0.2500000   0.2916667   0.2916667), wk =   0.0034722
        k(  380) = (   0.2500000   0.2916667   0.3333333), wk =   0.0069444
        k(  381) = (   0.2500000   0.2916667   0.3750000), wk =   0.0069444
        k(  382) = (   0.2500000   0.2916667   0.4166667), wk =   0.0069444
        k(  383) = (   0.2500000   0.2916667   0.4583333), wk =   0.0069444
        k(  384) = (   0.2500000   0.2916667  -0.5000000), wk =   0.0034722
        k(  385) = (   0.2500000   0.3333333   0.3333333), wk =   0.0034722
        k(  386) = (   0.2500000   0.3333333   0.3750000), wk =   0.0069444
        k(  387) = (   0.2500000   0.3333333   0.4166667), wk =   0.0069444
        k(  388) = (   0.2500000   0.3333333   0.4583333), wk =   0.0069444
        k(  389) = (   0.2500000   0.3333333  -0.5000000), wk =   0.0034722
        k(  390) = (   0.2500000   0.3750000   0.3750000), wk =   0.0034722
        k(  391) = (   0.2500000   0.3750000   0.4166667), wk =   0.0069444
        k(  392) = (   0.2500000   0.3750000   0.4583333), wk =   0.0069444
        k(  393) = (   0.2500000   0.3750000  -0.5000000), wk =   0.0034722
        k(  394) = (   0.2500000   0.4166667   0.4166667), wk =   0.0034722
        k(  395) = (   0.2500000   0.4166667   0.4583333), wk =   0.0069444
        k(  396) = (   0.2500000   0.4166667  -0.5000000), wk =   0.0034722
        k(  397) = (   0.2500000   0.4583333   0.4583333), wk =   0.0034722
        k(  398) = (   0.2500000   0.4583333  -0.5000000), wk =   0.0034722
        k(  399) = (   0.2500000  -0.5000000  -0.5000000), wk =   0.0008681
        k(  400) = (   0.2916667   0.2916667   0.2916667), wk =   0.0011574
        k(  401) = (   0.2916667   0.2916667   0.3333333), wk =   0.0034722
        k(  402) = (   0.2916667   0.2916667   0.3750000), wk =   0.0034722
        k(  403) = (   0.2916667   0.2916667   0.4166667), wk =   0.0034722
        k(  404) = (   0.2916667   0.2916667   0.4583333), wk =   0.0034722
        k(  405) = (   0.2916667   0.2916667  -0.5000000), wk =   0.0017361
        k(  406) = (   0.2916667   0.3333333   0.3333333), wk =   0.0034722
        k(  407) = (   0.2916667   0.3333333   0.3750000), wk =   0.0069444
        k(  408) = (   0.2916667   0.3333333   0.4166667), wk =   0.0069444
        k(  409) = (   0.2916667   0.3333333   0.4583333), wk =   0.0069444
        k(  410) = (   0.2916667   0.3333333  -0.5000000), wk =   0.0034722
        k(  411) = (   0.2916667   0.3750000   0.3750000), wk =   0.0034722
        k(  412) = (   0.2916667   0.3750000   0.4166667), wk =   0.0069444
        k(  413) = (   0.2916667   0.3750000   0.4583333), wk =   0.0069444
        k(  414) = (   0.2916667   0.3750000  -0.5000000), wk =   0.0034722
        k(  415) = (   0.2916667   0.4166667   0.4166667), wk =   0.0034722
        k(  416) = (   0.2916667   0.4166667   0.4583333), wk =   0.0069444
        k(  417) = (   0.2916667   0.4166667  -0.5000000), wk =   0.0034722
        k(  418) = (   0.2916667   0.4583333   0.4583333), wk =   0.0034722
        k(  419) = (   0.2916667   0.4583333  -0.5000000), wk =   0.0034722
        k(  420) = (   0.2916667  -0.5000000  -0.5000000), wk =   0.0008681
        k(  421) = (   0.3333333   0.3333333   0.3333333), wk =   0.0011574
        k(  422) = (   0.3333333   0.3333333   0.3750000), wk =   0.0034722
        k(  423) = (   0.3333333   0.3333333   0.4166667), wk =   0.0034722
        k(  424) = (   0.3333333   0.3333333   0.4583333), wk =   0.0034722
        k(  425) = (   0.3333333   0.3333333  -0.5000000), wk =   0.0017361
        k(  426) = (   0.3333333   0.3750000   0.3750000), wk =   0.0034722
        k(  427) = (   0.3333333   0.3750000   0.4166667), wk =   0.0069444
        k(  428) = (   0.3333333   0.3750000   0.4583333), wk =   0.0069444
        k(  429) = (   0.3333333   0.3750000  -0.5000000), wk =   0.0034722
        k(  430) = (   0.3333333   0.4166667   0.4166667), wk =   0.0034722
        k(  431) = (   0.3333333   0.4166667   0.4583333), wk =   0.0069444
        k(  432) = (   0.3333333   0.4166667  -0.5000000), wk =   0.0034722
        k(  433) = (   0.3333333   0.4583333   0.4583333), wk =   0.0034722
        k(  434) = (   0.3333333   0.4583333  -0.5000000), wk =   0.0034722
        k(  435) = (   0.3333333  -0.5000000  -0.5000000), wk =   0.0008681
        k(  436) = (   0.3750000   0.3750000   0.3750000), wk =   0.0011574
        k(  437) = (   0.3750000   0.3750000   0.4166667), wk =   0.0034722
        k(  438) = (   0.3750000   0.3750000   0.4583333), wk =   0.0034722
        k(  439) = (   0.3750000   0.3750000  -0.5000000), wk =   0.0017361
        k(  440) = (   0.3750000   0.4166667   0.4166667), wk =   0.0034722
        k(  441) = (   0.3750000   0.4166667   0.4583333), wk =   0.0069444
        k(  442) = (   0.3750000   0.4166667  -0.5000000), wk =   0.0034722
        k(  443) = (   0.3750000   0.4583333   0.4583333), wk =   0.0034722
        k(  444) = (   0.3750000   0.4583333  -0.5000000), wk =   0.0034722
        k(  445) = (   0.3750000  -0.5000000  -0.5000000), wk =   0.0008681
        k(  446) = (   0.4166667   0.4166667   0.4166667), wk =   0.0011574
        k(  447) = (   0.4166667   0.4166667   0.4583333), wk =   0.0034722
        k(  448) = (   0.4166667   0.4166667  -0.5000000), wk =   0.0017361
        k(  449) = (   0.4166667   0.4583333   0.4583333), wk =   0.0034722
        k(  450) = (   0.4166667   0.4583333  -0.5000000), wk =   0.0034722
        k(  451) = (   0.4166667  -0.5000000  -0.5000000), wk =   0.0008681
        k(  452) = (   0.4583333   0.4583333   0.4583333), wk =   0.0011574
        k(  453) = (   0.4583333   0.4583333  -0.5000000), wk =   0.0017361
        k(  454) = (   0.4583333  -0.5000000  -0.5000000), wk =   0.0008681
        k(  455) = (  -0.5000000  -0.5000000  -0.5000000), wk =   0.0001447

                       cryst. coord.
        k(    1) = (   0.0000000   0.0000000   0.0000000), wk =   0.0001447
        k(    2) = (   0.0000000   0.0000000   0.0416667), wk =   0.0008681
        k(    3) = (   0.0000000   0.0000000   0.0833333), wk =   0.0008681
        k(    4) = (   0.0000000   0.0000000   0.1250000), wk =   0.0008681
        k(    5) = (   0.0000000   0.0000000   0.1666667), wk =   0.0008681
        k(    6) = (   0.0000000   0.0000000   0.2083333), wk =   0.0008681
        k(    7) = (   0.0000000   0.0000000   0.2500000), wk =   0.0008681
        k(    8) = (   0.0000000   0.0000000   0.2916667), wk =   0.0008681
        k(    9) = (   0.0000000   0.0000000   0.3333333), wk =   0.0008681
        k(   10) = (   0.0000000   0.0000000   0.3750000), wk =   0.0008681
        k(   11) = (   0.0000000   0.0000000   0.4166667), wk =   0.0008681
        k(   12) = (   0.0000000   0.0000000   0.4583333), wk =   0.0008681
        k(   13) = (   0.0000000   0.0000000  -0.5000000), wk =   0.0004340
        k(   14) = (   0.0000000   0.0416667   0.0416667), wk =   0.0017361
        k(   15) = (   0.0000000   0.0416667   0.0833333), wk =   0.0034722
        k(   16) = (   0.0000000   0.0416667   0.1250000), wk =   0.0034722
        k(   17) = (   0.0000000   0.0416667   0.1666667), wk =   0.0034722
        k(   18) = (   0.0000000   0.0416667   0.2083333), wk =   0.0034722
        k(   19) = (   0.0000000   0.0416667   0.2500000), wk =   0.0034722
        k(   20) = (   0.0000000   0.0416667   0.2916667), wk =   0.0034722
        k(   21) = (   0.0000000   0.0416667   0.3333333), wk =   0.0034722
        k(   22) = (   0.0000000   0.0416667   0.3750000), wk =   0.0034722
        k(   23) = (   0.0000000   0.0416667   0.4166667), wk =   0.0034722
        k(   24) = (   0.0000000   0.0416667   0.4583333), wk =   0.0034722
        k(   25) = (   0.0000000   0.0416667  -0.5000000), wk =   0.0017361
        k(   26) = (   0.0000000   0.0833333   0.0833333), wk =   0.0017361
        k(   27) = (   0.0000000   0.0833333   0.1250000), wk =   0.0034722
        k(   28) = (   0.0000000   0.0833333   0.1666667), wk =   0.0034722
        k(   29) = (   0.0000000   0.0833333   0.2083333), wk =   0.0034722
        k(   30) = (   0.0000000   0.0833333   0.2500000), wk =   0.0034722
        k(   31) = (   0.0000000   0.0833333   0.2916667), wk =   0.0034722
        k(   32) = (   0.0000000   0.0833333   0.3333333), wk =   0.0034722
        k(   33) = (   0.0000000   0.0833333   0.3750000), wk =   0.0034722
        k(   34) = (   0.0000000   0.0833333   0.4166667), wk =   0.0034722
        k(   35) = (   0.0000000   0.0833333   0.4583333), wk =   0.0034722
        k(   36) = (   0.0000000   0.0833333  -0.5000000), wk =   0.0017361
        k(   37) = (   0.0000000   0.1250000   0.1250000), wk =   0.0017361
        k(   38) = (   0.0000000   0.1250000   0.1666667), wk =   0.0034722
        k(   39) = (   0.0000000   0.1250000   0.2083333), wk =   0.0034722
        k(   40) = (   0.0000000   0.1250000   0.2500000), wk =   0.0034722
        k(   41) = (   0.0000000   0.1250000   0.2916667), wk =   0.0034722
        k(   42) = (   0.0000000   0.1250000   0.3333333), wk =   0.0034722
        k(   43) = (   0.0000000   0.1250000   0.3750000), wk =   0.0034722
        k(   44) = (   0.0000000   0.1250000   0.4166667), wk =   0.0034722
        k(   45) = (   0.0000000   0.1250000   0.4583333), wk =   0.0034722
        k(   46) = (   0.0000000   0.1250000  -0.5000000), wk =   0.0017361
        k(   47) = (   0.0000000   0.1666667   0.1666667), wk =   0.0017361
        k(   48) = (   0.0000000   0.1666667   0.2083333), wk =   0.0034722
        k(   49) = (   0.0000000   0.1666667   0.2500000), wk =   0.0034722
        k(   50) = (   0.0000000   0.1666667   0.2916667), wk =   0.0034722
        k(   51) = (   0.0000000   0.1666667   0.3333333), wk =   0.0034722
        k(   52) = (   0.0000000   0.1666667   0.3750000), wk =   0.0034722
        k(   53) = (   0.0000000   0.1666667   0.4166667), wk =   0.0034722
        k(   54) = (   0.0000000   0.1666667   0.4583333), wk =   0.0034722
        k(   55) = (   0.0000000   0.1666667  -0.5000000), wk =   0.0017361
        k(   56) = (   0.0000000   0.2083333   0.2083333), wk =   0.0017361
        k(   57) = (   0.0000000   0.2083333   0.2500000), wk =   0.0034722
        k(   58) = (   0.0000000   0.2083333   0.2916667), wk =   0.0034722
        k(   59) = (   0.0000000   0.2083333   0.3333333), wk =   0.0034722
        k(   60) = (   0.0000000   0.2083333   0.3750000), wk =   0.0034722
        k(   61) = (   0.0000000   0.2083333   0.4166667), wk =   0.0034722
        k(   62) = (   0.0000000   0.2083333   0.4583333), wk =   0.0034722
        k(   63) = (   0.0000000   0.2083333  -0.5000000), wk =   0.0017361
        k(   64) = (   0.0000000   0.2500000   0.2500000), wk =   0.0017361
        k(   65) = (   0.0000000   0.2500000   0.2916667), wk =   0.0034722
        k(   66) = (   0.0000000   0.2500000   0.3333333), wk =   0.0034722
        k(   67) = (   0.0000000   0.2500000   0.3750000), wk =   0.0034722
        k(   68) = (   0.0000000   0.2500000   0.4166667), wk =   0.0034722
        k(   69) = (   0.0000000   0.2500000   0.4583333), wk =   0.0034722
        k(   70) = (   0.0000000   0.2500000  -0.5000000), wk =   0.0017361
        k(   71) = (   0.0000000   0.2916667   0.2916667), wk =   0.0017361
        k(   72) = (   0.0000000   0.2916667   0.3333333), wk =   0.0034722
        k(   73) = (   0.0000000   0.2916667   0.3750000), wk =   0.0034722
        k(   74) = (   0.0000000   0.2916667   0.4166667), wk =   0.0034722
        k(   75) = (   0.0000000   0.2916667   0.4583333), wk =   0.0034722
        k(   76) = (   0.0000000   0.2916667  -0.5000000), wk =   0.0017361
        k(   77) = (   0.0000000   0.3333333   0.3333333), wk =   0.0017361
        k(   78) = (   0.0000000   0.3333333   0.3750000), wk =   0.0034722
        k(   79) = (   0.0000000   0.3333333   0.4166667), wk =   0.0034722
        k(   80) = (   0.0000000   0.3333333   0.4583333), wk =   0.0034722
        k(   81) = (   0.0000000   0.3333333  -0.5000000), wk =   0.0017361
        k(   82) = (   0.0000000   0.3750000   0.3750000), wk =   0.0017361
        k(   83) = (   0.0000000   0.3750000   0.4166667), wk =   0.0034722
        k(   84) = (   0.0000000   0.3750000   0.4583333), wk =   0.0034722
        k(   85) = (   0.0000000   0.3750000  -0.5000000), wk =   0.0017361
        k(   86) = (   0.0000000   0.4166667   0.4166667), wk =   0.0017361
        k(   87) = (   0.0000000   0.4166667   0.4583333), wk =   0.0034722
        k(   88) = (   0.0000000   0.4166667  -0.5000000), wk =   0.0017361
        k(   89) = (   0.0000000   0.4583333   0.4583333), wk =   0.0017361
        k(   90) = (   0.0000000   0.4583333  -0.5000000), wk =   0.0017361
        k(   91) = (   0.0000000  -0.5000000  -0.5000000), wk =   0.0004340
        k(   92) = (   0.0416667   0.0416667   0.0416667), wk =   0.0011574
        k(   93) = (   0.0416667   0.0416667   0.0833333), wk =   0.0034722
        k(   94) = (   0.0416667   0.0416667   0.1250000), wk =   0.0034722
        k(   95) = (   0.0416667   0.0416667   0.1666667), wk =   0.0034722
        k(   96) = (   0.0416667   0.0416667   0.2083333), wk =   0.0034722
        k(   97) = (   0.0416667   0.0416667   0.2500000), wk =   0.0034722
        k(   98) = (   0.0416667   0.0416667   0.2916667), wk =   0.0034722
        k(   99) = (   0.0416667   0.0416667   0.3333333), wk =   0.0034722
        k(  100) = (   0.0416667   0.0416667   0.3750000), wk =   0.0034722
        k(  101) = (   0.0416667   0.0416667   0.4166667), wk =   0.0034722
        k(  102) = (   0.0416667   0.0416667   0.4583333), wk =   0.0034722
        k(  103) = (   0.0416667   0.0416667  -0.5000000), wk =   0.0017361
        k(  104) = (   0.0416667   0.0833333   0.0833333), wk =   0.0034722
        k(  105) = (   0.0416667   0.0833333   0.1250000), wk =   0.0069444
        k(  106) = (   0.0416667   0.0833333   0.1666667), wk =   0.0069444
        k(  107) = (   0.0416667   0.0833333   0.2083333), wk =   0.0069444
        k(  108) = (   0.0416667   0.0833333   0.2500000), wk =   0.0069444
        k(  109) = (   0.0416667   0.0833333   0.2916667), wk =   0.0069444
        k(  110) = (   0.0416667   0.0833333   0.3333333), wk =   0.0069444
        k(  111) = (   0.0416667   0.0833333   0.3750000), wk =   0.0069444
        k(  112) = (   0.0416667   0.0833333   0.4166667), wk =   0.0069444
        k(  113) = (   0.0416667   0.0833333   0.4583333), wk =   0.0069444
        k(  114) = (   0.0416667   0.0833333  -0.5000000), wk =   0.0034722
        k(  115) = (   0.0416667   0.1250000   0.1250000), wk =   0.0034722
        k(  116) = (   0.0416667   0.1250000   0.1666667), wk =   0.0069444
        k(  117) = (   0.0416667   0.1250000   0.2083333), wk =   0.0069444
        k(  118) = (   0.0416667   0.1250000   0.2500000), wk =   0.0069444
        k(  119) = (   0.0416667   0.1250000   0.2916667), wk =   0.0069444
        k(  120) = (   0.0416667   0.1250000   0.3333333), wk =   0.0069444
        k(  121) = (   0.0416667   0.1250000   0.3750000), wk =   0.0069444
        k(  122) = (   0.0416667   0.1250000   0.4166667), wk =   0.0069444
        k(  123) = (   0.0416667   0.1250000   0.4583333), wk =   0.0069444
        k(  124) = (   0.0416667   0.1250000  -0.5000000), wk =   0.0034722
        k(  125) = (   0.0416667   0.1666667   0.1666667), wk =   0.0034722
        k(  126) = (   0.0416667   0.1666667   0.2083333), wk =   0.0069444
        k(  127) = (   0.0416667   0.1666667   0.2500000), wk =   0.0069444
        k(  128) = (   0.0416667   0.1666667   0.2916667), wk =   0.0069444
        k(  129) = (   0.0416667   0.1666667   0.3333333), wk =   0.0069444
        k(  130) = (   0.0416667   0.1666667   0.3750000), wk =   0.0069444
        k(  131) = (   0.0416667   0.1666667   0.4166667), wk =   0.0069444
        k(  132) = (   0.0416667   0.1666667   0.4583333), wk =   0.0069444
        k(  133) = (   0.0416667   0.1666667  -0.5000000), wk =   0.0034722
        k(  134) = (   0.0416667   0.2083333   0.2083333), wk =   0.0034722
        k(  135) = (   0.0416667   0.2083333   0.2500000), wk =   0.0069444
        k(  136) = (   0.0416667   0.2083333   0.2916667), wk =   0.0069444
        k(  137) = (   0.0416667   0.2083333   0.3333333), wk =   0.0069444
        k(  138) = (   0.0416667   0.2083333   0.3750000), wk =   0.0069444
        k(  139) = (   0.0416667   0.2083333   0.4166667), wk =   0.0069444
        k(  140) = (   0.0416667   0.2083333   0.4583333), wk =   0.0069444
        k(  141) = (   0.0416667   0.2083333  -0.5000000), wk =   0.0034722
        k(  142) = (   0.0416667   0.2500000   0.2500000), wk =   0.0034722
        k(  143) = (   0.0416667   0.2500000   0.2916667), wk =   0.0069444
        k(  144) = (   0.0416667   0.2500000   0.3333333), wk =   0.0069444
        k(  145) = (   0.0416667   0.2500000   0.3750000), wk =   0.0069444
        k(  146) = (   0.0416667   0.2500000   0.4166667), wk =   0.0069444
        k(  147) = (   0.0416667   0.2500000   0.4583333), wk =   0.0069444
        k(  148) = (   0.0416667   0.2500000  -0.5000000), wk =   0.0034722
        k(  149) = (   0.0416667   0.2916667   0.2916667), wk =   0.0034722
        k(  150) = (   0.0416667   0.2916667   0.3333333), wk =   0.0069444
        k(  151) = (   0.0416667   0.2916667   0.3750000), wk =   0.0069444
        k(  152) = (   0.0416667   0.2916667   0.4166667), wk =   0.0069444
        k(  153) = (   0.0416667   0.2916667   0.4583333), wk =   0.0069444
        k(  154) = (   0.0416667   0.2916667  -0.5000000), wk =   0.0034722
        k(  155) = (   0.0416667   0.3333333   0.3333333), wk =   0.0034722
        k(  156) = (   0.0416667   0.3333333   0.3750000), wk =   0.0069444
        k(  157) = (   0.0416667   0.3333333   0.4166667), wk =   0.0069444
        k(  158) = (   0.0416667   0.3333333   0.4583333), wk =   0.0069444
        k(  159) = (   0.0416667   0.3333333  -0.5000000), wk =   0.0034722
        k(  160) = (   0.0416667   0.3750000   0.3750000), wk =   0.0034722
        k(  161) = (   0.0416667   0.3750000   0.4166667), wk =   0.0069444
        k(  162) = (   0.0416667   0.3750000   0.4583333), wk =   0.0069444
        k(  163) = (   0.0416667   0.3750000  -0.5000000), wk =   0.0034722
        k(  164) = (   0.0416667   0.4166667   0.4166667), wk =   0.0034722
        k(  165) = (   0.0416667   0.4166667   0.4583333), wk =   0.0069444
        k(  166) = (   0.0416667   0.4166667  -0.5000000), wk =   0.0034722
        k(  167) = (   0.0416667   0.4583333   0.4583333), wk =   0.0034722
        k(  168) = (   0.0416667   0.4583333  -0.5000000), wk =   0.0034722
        k(  169) = (   0.0416667  -0.5000000  -0.5000000), wk =   0.0008681
        k(  170) = (   0.0833333   0.0833333   0.0833333), wk =   0.0011574
        k(  171) = (   0.0833333   0.0833333   0.1250000), wk =   0.0034722
        k(  172) = (   0.0833333   0.0833333   0.1666667), wk =   0.0034722
        k(  173) = (   0.0833333   0.0833333   0.2083333), wk =   0.0034722
        k(  174) = (   0.0833333   0.0833333   0.2500000), wk =   0.0034722
        k(  175) = (   0.0833333   0.0833333   0.2916667), wk =   0.0034722
        k(  176) = (   0.0833333   0.0833333   0.3333333), wk =   0.0034722
        k(  177) = (   0.0833333   0.0833333   0.3750000), wk =   0.0034722
        k(  178) = (   0.0833333   0.0833333   0.4166667), wk =   0.0034722
        k(  179) = (   0.0833333   0.0833333   0.4583333), wk =   0.0034722
        k(  180) = (   0.0833333   0.0833333  -0.5000000), wk =   0.0017361
        k(  181) = (   0.0833333   0.1250000   0.1250000), wk =   0.0034722
        k(  182) = (   0.0833333   0.1250000   0.1666667), wk =   0.0069444
        k(  183) = (   0.0833333   0.1250000   0.2083333), wk =   0.0069444
        k(  184) = (   0.0833333   0.1250000   0.2500000), wk =   0.0069444
        k(  185) = (   0.0833333   0.1250000   0.2916667), wk =   0.0069444
        k(  186) = (   0.0833333   0.1250000   0.3333333), wk =   0.0069444
        k(  187) = (   0.0833333   0.1250000   0.3750000), wk =   0.0069444
        k(  188) = (   0.0833333   0.1250000   0.4166667), wk =   0.0069444
        k(  189) = (   0.0833333   0.1250000   0.4583333), wk =   0.0069444
        k(  190) = (   0.0833333   0.1250000  -0.5000000), wk =   0.0034722
        k(  191) = (   0.0833333   0.1666667   0.1666667), wk =   0.0034722
        k(  192) = (   0.0833333   0.1666667   0.2083333), wk =   0.0069444
        k(  193) = (   0.0833333   0.1666667   0.2500000), wk =   0.0069444
        k(  194) = (   0.0833333   0.1666667   0.2916667), wk =   0.0069444
        k(  195) = (   0.0833333   0.1666667   0.3333333), wk =   0.0069444
        k(  196) = (   0.0833333   0.1666667   0.3750000), wk =   0.0069444
        k(  197) = (   0.0833333   0.1666667   0.4166667), wk =   0.0069444
        k(  198) = (   0.0833333   0.1666667   0.4583333), wk =   0.0069444
        k(  199) = (   0.0833333   0.1666667  -0.5000000), wk =   0.0034722
        k(  200) = (   0.0833333   0.2083333   0.2083333), wk =   0.0034722
        k(  201) = (   0.0833333   0.2083333   0.2500000), wk =   0.0069444
        k(  202) = (   0.0833333   0.2083333   0.2916667), wk =   0.0069444
        k(  203) = (   0.0833333   0.2083333   0.3333333), wk =   0.0069444
        k(  204) = (   0.0833333   0.2083333   0.3750000), wk =   0.0069444
        k(  205) = (   0.0833333   0.2083333   0.4166667), wk =   0.0069444
        k(  206) = (   0.0833333   0.2083333   0.4583333), wk =   0.0069444
        k(  207) = (   0.0833333   0.2083333  -0.5000000), wk =   0.0034722
        k(  208) = (   0.0833333   0.2500000   0.2500000), wk =   0.0034722
        k(  209) = (   0.0833333   0.2500000   0.2916667), wk =   0.0069444
        k(  210) = (   0.0833333   0.2500000   0.3333333), wk =   0.0069444
        k(  211) = (   0.0833333   0.2500000   0.3750000), wk =   0.0069444
        k(  212) = (   0.0833333   0.2500000   0.4166667), wk =   0.0069444
        k(  213) = (   0.0833333   0.2500000   0.4583333), wk =   0.0069444
        k(  214) = (   0.0833333   0.2500000  -0.5000000), wk =   0.0034722
        k(  215) = (   0.0833333   0.2916667   0.2916667), wk =   0.0034722
        k(  216) = (   0.0833333   0.2916667   0.3333333), wk =   0.0069444
        k(  217) = (   0.0833333   0.2916667   0.3750000), wk =   0.0069444
        k(  218) = (   0.0833333   0.2916667   0.4166667), wk =   0.0069444
        k(  219) = (   0.0833333   0.2916667   0.4583333), wk =   0.0069444
        k(  220) = (   0.0833333   0.2916667  -0.5000000), wk =   0.0034722
        k(  221) = (   0.0833333   0.3333333   0.3333333), wk =   0.0034722
        k(  222) = (   0.0833333   0.3333333   0.3750000), wk =   0.0069444
        k(  223) = (   0.0833333   0.3333333   0.4166667), wk =   0.0069444
        k(  224) = (   0.0833333   0.3333333   0.4583333), wk =   0.0069444
        k(  225) = (   0.0833333   0.3333333  -0.5000000), wk =   0.0034722
        k(  226) = (   0.0833333   0.3750000   0.3750000), wk =   0.0034722
        k(  227) = (   0.0833333   0.3750000   0.4166667), wk =   0.0069444
        k(  228) = (   0.0833333   0.3750000   0.4583333), wk =   0.0069444
        k(  229) = (   0.0833333   0.3750000  -0.5000000), wk =   0.0034722
        k(  230) = (   0.0833333   0.4166667   0.4166667), wk =   0.0034722
        k(  231) = (   0.0833333   0.4166667   0.4583333), wk =   0.0069444
        k(  232) = (   0.0833333   0.4166667  -0.5000000), wk =   0.0034722
        k(  233) = (   0.0833333   0.4583333   0.4583333), wk =   0.0034722
        k(  234) = (   0.0833333   0.4583333  -0.5000000), wk =   0.0034722
        k(  235) = (   0.0833333  -0.5000000  -0.5000000), wk =   0.0008681
        k(  236) = (   0.1250000   0.1250000   0.1250000), wk =   0.0011574
        k(  237) = (   0.1250000   0.1250000   0.1666667), wk =   0.0034722
        k(  238) = (   0.1250000   0.1250000   0.2083333), wk =   0.0034722
        k(  239) = (   0.1250000   0.1250000   0.2500000), wk =   0.0034722
        k(  240) = (   0.1250000   0.1250000   0.2916667), wk =   0.0034722
        k(  241) = (   0.1250000   0.1250000   0.3333333), wk =   0.0034722
        k(  242) = (   0.1250000   0.1250000   0.3750000), wk =   0.0034722
        k(  243) = (   0.1250000   0.1250000   0.4166667), wk =   0.0034722
        k(  244) = (   0.1250000   0.1250000   0.4583333), wk =   0.0034722
        k(  245) = (   0.1250000   0.1250000  -0.5000000), wk =   0.0017361
        k(  246) = (   0.1250000   0.1666667   0.1666667), wk =   0.0034722
        k(  247) = (   0.1250000   0.1666667   0.2083333), wk =   0.0069444
        k(  248) = (   0.1250000   0.1666667   0.2500000), wk =   0.0069444
        k(  249) = (   0.1250000   0.1666667   0.2916667), wk =   0.0069444
        k(  250) = (   0.1250000   0.1666667   0.3333333), wk =   0.0069444
        k(  251) = (   0.1250000   0.1666667   0.3750000), wk =   0.0069444
        k(  252) = (   0.1250000   0.1666667   0.4166667), wk =   0.0069444
        k(  253) = (   0.1250000   0.1666667   0.4583333), wk =   0.0069444
        k(  254) = (   0.1250000   0.1666667  -0.5000000), wk =   0.0034722
        k(  255) = (   0.1250000   0.2083333   0.2083333), wk =   0.0034722
        k(  256) = (   0.1250000   0.2083333   0.2500000), wk =   0.0069444
        k(  257) = (   0.1250000   0.2083333   0.2916667), wk =   0.0069444
        k(  258) = (   0.1250000   0.2083333   0.3333333), wk =   0.0069444
[...]
     1.0000   1.0000   1.0000   1.0000   0.0000   0.0000   0.0000   0.0000

          k = 0.3333 0.3750 0.3750 (  3384 PWs)   bands (ev):

   -51.7657 -28.0629 -27.8860 -27.8858 -27.8847 -10.2425 -10.1117 -10.0638
    -9.6429  -9.5916  -9.5599   2.3907   2.9881   3.0656   3.2179   3.4074
     3.4302   5.5899   5.6082   5.7763   8.3097   8.3391   8.3776  10.3894

     occupation numbers 
     1.0000   1.0000   1.0000   1.0000   1.0000   1.0000   1.0000   1.0000
     1.0000   1.0000   1.0000   1.0000   1.0000   1.0000   1.0000   1.0000
     1.0000   1.0000   1.0000   1.0000   0.0000   0.0000   0.0000   0.0000

          k = 0.3333 0.3750 0.4167 (  3385 PWs)   bands (ev):

   -51.7657 -28.0626 -27.8868 -27.8859 -27.8847 -10.2188 -10.1223 -10.0447
    -9.6664  -9.5900  -9.5599   2.3406   2.9524   3.0654   3.1825   3.3661
     3.4244   5.6145   5.6437   5.8016   8.3297   8.3728   8.4188  10.4023

     occupation numbers 
     1.0000   1.0000   1.0000   1.0000   1.0000   1.0000   1.0000   1.0000
     1.0000   1.0000   1.0000   1.0000   1.0000   1.0000   1.0000   1.0000
     1.0000   1.0000   1.0000   1.0000   0.0000   0.0000   0.0000   0.0000

          k = 0.3333 0.3750 0.4583 (  3384 PWs)   bands (ev):

   -51.7656 -28.0624 -27.8874 -27.8859 -27.8847 -10.2003 -10.1342 -10.0286
    -9.6846  -9.5929  -9.5548   2.3053   2.9328   3.0679   3.1571   3.3361
     3.4296   5.6260   5.6661   5.8183   8.3362   8.4006   8.4464  10.4033

     occupation numbers 
     1.0000   1.0000   1.0000   1.0000   1.0000   1.0000   1.0000   1.0000
     1.0000   1.0000   1.0000   1.0000   1.0000   1.0000   1.0000   1.0000
     1.0000   1.0000   1.0000   1.0000   0.0000   0.0000   0.0000   0.0000

          k = 0.3333 0.3750-0.5000 (  3382 PWs)   bands (ev):

   -51.7656 -28.0623 -27.8876 -27.8859 -27.8847 -10.1925 -10.1399 -10.0225
    -9.6914  -9.5945  -9.5525   2.2926   2.9267   3.0691   3.1481   3.3258
     3.4321   5.6295   5.6737   5.8241   8.3381   8.4105   8.4561  10.4030

     occupation numbers 
     1.0000   1.0000   1.0000   1.0000   1.0000   1.0000   1.0000   1.0000
     1.0000   1.0000   1.0000   1.0000   1.0000   1.0000   1.0000   1.0000
     1.0000   1.0000   1.0000   1.0000   0.0000   0.0000   0.0000   0.0000

          k = 0.3333 0.4167 0.4167 (  3378 PWs)   bands (ev):

   -51.7656 -28.0623 -27.8869 -27.8868 -27.8847 -10.1921 -10.1223 -10.0361
    -9.6876  -9.5846  -9.5694   2.2935   2.9148   3.0608   3.1526   3.3631
     3.3798   5.6519   5.6697   5.8330   8.3714   8.3857   8.4562  10.4368

     occupation numbers 
     1.0000   1.0000   1.0000   1.0000   1.0000   1.0000   1.0000   1.0000
     1.0000   1.0000   1.0000   1.0000   1.0000   1.0000   1.0000   1.0000
     1.0000   1.0000   1.0000   1.0000   0.0000   0.0000   0.0000   0.0000

          k = 0.3333 0.4167 0.4583 (  3384 PWs)   bands (ev):

   -51.7656 -28.0621 -27.8874 -27.8868 -27.8847 -10.1710 -10.1289 -10.0257
    -9.7055  -9.5863  -9.5684   2.2600   2.8927   3.0616   3.1302   3.3395
     3.3790   5.6686   5.6882   5.8545   8.3826   8.4092   8.4817  10.4466

     occupation numbers 
     1.0000   1.0000   1.0000   1.0000   1.0000   1.0000   1.0000   1.0000
     1.0000   1.0000   1.0000   1.0000   1.0000   1.0000   1.0000   1.0000
     1.0000   1.0000   1.0000   1.0000   0.0000   0.0000   0.0000   0.0000

          k = 0.3333 0.4167-0.5000 (  3384 PWs)   bands (ev):

   -51.7656 -28.0620 -27.8876 -27.8869 -27.8846 -10.1612 -10.1342 -10.0213
    -9.7124  -9.5883  -9.5664   2.2480   2.8857   3.0624   3.1222   3.3294
     3.3814   5.6729   5.6953   5.8620   8.3846   8.4192   8.4906  10.4486

     occupation numbers 
     1.0000   1.0000   1.0000   1.0000   1.0000   1.0000   1.0000   1.0000
     1.0000   1.0000   1.0000   1.0000   1.0000   1.0000   1.0000   1.0000
     1.0000   1.0000   1.0000   1.0000   0.0000   0.0000   0.0000   0.0000

          k = 0.3333 0.4583 0.4583 (  3390 PWs)   bands (ev):

   -51.7656 -28.0619 -27.8874 -27.8874 -27.8846 -10.1494 -10.1288 -10.0211
    -9.7236  -9.5804  -9.5764   2.2279   2.8688   3.0617   3.1096   3.3448
     3.3498   5.6932   5.6994   5.8793   8.4114   8.4153   8.5058  10.4611

     occupation numbers 
     1.0000   1.0000   1.0000   1.0000   1.0000   1.0000   1.0000   1.0000
     1.0000   1.0000   1.0000   1.0000   1.0000   1.0000   1.0000   1.0000
     1.0000   1.0000   1.0000   1.0000   0.0000   0.0000   0.0000   0.0000

          k = 0.3333 0.4583-0.5000 (  3390 PWs)   bands (ev):

   -51.7656 -28.0618 -27.8876 -27.8874 -27.8846 -10.1391 -10.1317 -10.0189
    -9.7307  -9.5816  -9.5757   2.2163   2.8611   3.0622   3.1021   3.3368
     3.3504   5.6991   5.7050   5.8880   8.4148   8.4238   8.5143  10.4644

     occupation numbers 
     1.0000   1.0000   1.0000   1.0000   1.0000   1.0000   1.0000   1.0000
     1.0000   1.0000   1.0000   1.0000   1.0000   1.0000   1.0000   1.0000
     1.0000   1.0000   1.0000   1.0000   0.0000   0.0000   0.0000   0.0000

          k = 0.3333-0.5000-0.5000 (  3376 PWs)   bands (ev):

   -51.7656 -28.0618 -27.8876 -27.8876 -27.8846 -10.1311 -10.1311 -10.0178
    -9.7378  -9.5789  -9.5789   2.2048   2.8531   3.0626   3.0948   3.3399
     3.3399   5.7079   5.7079   5.8971   8.4254   8.4254   8.5227  10.4682

     occupation numbers 
     1.0000   1.0000   1.0000   1.0000   1.0000   1.0000   1.0000   1.0000
     1.0000   1.0000   1.0000   1.0000   1.0000   1.0000   1.0000   1.0000
     1.0000   1.0000   1.0000   1.0000   0.0000   0.0000   0.0000   0.0000

          k = 0.3750 0.3750 0.3750 (  3374 PWs)   bands (ev):

   -51.7656 -28.0625 -27.8859 -27.8859 -27.8858 -10.2145 -10.0810 -10.0810
    -9.6244  -9.6244  -9.5745   2.3402   2.9918   2.9918   3.2159   3.3661
     3.3661   5.6561   5.6561   5.7980   8.3573   8.3909   8.3909  10.5834

     occupation numbers 
     1.0000   1.0000   1.0000   1.0000   1.0000   1.0000   1.0000   1.0000
     1.0000   1.0000   1.0000   1.0000   1.0000   1.0000   1.0000   1.0000
     1.0000   1.0000   1.0000   1.0000   0.0000   0.0000   0.0000   0.0000

          k = 0.3750 0.3750 0.4167 (  3381 PWs)   bands (ev):

   -51.7656 -28.0622 -27.8868 -27.8859 -27.8859 -10.1889 -10.0975 -10.0541
    -9.6530  -9.6160  -9.5807   2.2926   2.9453   2.9952   3.1947   3.3191
     3.3590   5.6834   5.7035   5.8203   8.3814   8.4158   8.4332  10.5768

     occupation numbers 
     1.0000   1.0000   1.0000   1.0000   1.0000   1.0000   1.0000   1.0000
     1.0000   1.0000   1.0000   1.0000   1.0000   1.0000   1.0000   1.0000
     1.0000   1.0000   1.0000   1.0000   0.0000   0.0000   0.0000   0.0000

          k = 0.3750 0.3750 0.4583 (  3384 PWs)   bands (ev):

   -51.7656 -28.0620 -27.8874 -27.8859 -27.8859 -10.1677 -10.1124 -10.0351
    -9.6731  -9.6173  -9.5785   2.2589   2.9208   2.9976   3.1744   3.2903
     3.3631   5.6968   5.7319   5.8366   8.3888   8.4403   8.4611  10.5722

     occupation numbers 
     1.0000   1.0000   1.0000   1.0000   1.0000   1.0000   1.0000   1.0000
     1.0000   1.0000   1.0000   1.0000   1.0000   1.0000   1.0000   1.0000
     1.0000   1.0000   1.0000   1.0000   0.0000   0.0000   0.0000   0.0000

          k = 0.3750 0.3750-0.5000 (  3384 PWs)   bands (ev):

   -51.7656 -28.0620 -27.8876 -27.8859 -27.8859 -10.1575 -10.1204 -10.0280
    -9.6805  -9.6189  -9.5766   2.2468   2.9132   2.9985   3.1667   3.2806
     3.3654   5.7008   5.7413   5.8425   8.3908   8.4494   8.4708  10.5706

     occupation numbers 
     1.0000   1.0000   1.0000   1.0000   1.0000   1.0000   1.0000   1.0000
     1.0000   1.0000   1.0000   1.0000   1.0000   1.0000   1.0000   1.0000
     1.0000   1.0000   1.0000   1.0000   0.0000   0.0000   0.0000   0.0000

          k = 0.3750 0.4167 0.4167 (  3386 PWs)   bands (ev):

   -51.7656 -28.0619 -27.8868 -27.8868 -27.8859 -10.1618 -10.0901 -10.0491
    -9.6653  -9.6195  -9.5952   2.2474   2.9169   2.9747   3.1833   3.3021
     3.3174   5.7292   5.7408   5.8434   8.4197   8.4343   8.4651  10.6434

     occupation numbers 
     1.0000   1.0000   1.0000   1.0000   1.0000   1.0000   1.0000   1.0000
     1.0000   1.0000   1.0000   1.0000   1.0000   1.0000   1.0000   1.0000
     1.0000   1.0000   1.0000   1.0000   0.0000   0.0000   0.0000   0.0000

          k = 0.3750 0.4167 0.4583 (  3388 PWs)   bands (ev):

   -51.7656 -28.0617 -27.8874 -27.8868 -27.8859 -10.1392 -10.0986 -10.0354
    -9.6832  -9.6207  -9.5981   2.2153   2.8931   2.9727   3.1665   3.2795
     3.3154   5.7478   5.7672   5.8623   8.4315   8.4554   8.4904  10.6530

     occupation numbers 
     1.0000   1.0000   1.0000   1.0000   1.0000   1.0000   1.0000   1.0000
     1.0000   1.0000   1.0000   1.0000   1.0000   1.0000   1.0000   1.0000
     1.0000   1.0000   1.0000   1.0000   0.0000   0.0000   0.0000   0.0000

          k = 0.3750 0.4167-0.5000 (  3388 PWs)   bands (ev):

   -51.7656 -28.0617 -27.8876 -27.8868 -27.8858 -10.1270 -10.1067 -10.0293
    -9.6903  -9.6229  -9.5969   2.2037   2.8851   2.9727   3.1597   3.2702
     3.3176   5.7525   5.7767   5.8694   8.4337   8.4645   8.4994  10.6540

     occupation numbers 
     1.0000   1.0000   1.0000   1.0000   1.0000   1.0000   1.0000   1.0000
     1.0000   1.0000   1.0000   1.0000   1.0000   1.0000   1.0000   1.0000
     1.0000   1.0000   1.0000   1.0000   0.0000   0.0000   0.0000   0.0000

          k = 0.3750 0.4583 0.4583 (  3399 PWs)   bands (ev):

   -51.7656 -28.0616 -27.8874 -27.8874 -27.8858 -10.1173 -10.0956 -10.0306
    -9.6996  -9.6164  -9.6099   2.1843   2.8700   2.9675   3.1509   3.2824
     3.2885   5.7774   5.7829   5.8846   8.4582   8.4620   8.5141  10.6758

     occupation numbers 
     1.0000   1.0000   1.0000   1.0000   1.0000   1.0000   1.0000   1.0000
     1.0000   1.0000   1.0000   1.0000   1.0000   1.0000   1.0000   1.0000
     1.0000   1.0000   1.0000   1.0000   0.0000   0.0000   0.0000   0.0000

          k = 0.3750 0.4583-0.5000 (  3392 PWs)   bands (ev):

   -51.7656 -28.0615 -27.8876 -27.8874 -27.8858 -10.1054 -10.0996 -10.0277
    -9.7064  -9.6179  -9.6105   2.1732   2.8621   2.9667   3.1444   3.2757
     3.2887   5.7838   5.7907   5.8931   8.4617   8.4698   8.5227  10.6802

     occupation numbers 
     1.0000   1.0000   1.0000   1.0000   1.0000   1.0000   1.0000   1.0000
     1.0000   1.0000   1.0000   1.0000   1.0000   1.0000   1.0000   1.0000
     1.0000   1.0000   1.0000   1.0000   0.0000   0.0000   0.0000   0.0000

          k = 0.3750-0.5000-0.5000 (  3412 PWs)   bands (ev):

   -51.7656 -28.0614 -27.8876 -27.8876 -27.8858 -10.0975 -10.0975 -10.0266
    -9.7132  -9.6154  -9.6154   2.1621   2.8541   2.9656   3.1380   3.2790
     3.2790   5.7943   5.7943   5.9020   8.4715   8.4715   8.5310  10.6856

     occupation numbers 
     1.0000   1.0000   1.0000   1.0000   1.0000   1.0000   1.0000   1.0000
     1.0000   1.0000   1.0000   1.0000   1.0000   1.0000   1.0000   1.0000
     1.0000   1.0000   1.0000   1.0000   0.0000   0.0000   0.0000   0.0000

          k = 0.4167 0.4167 0.4167 (  3394 PWs)   bands (ev):

   -51.7656 -28.0617 -27.8868 -27.8868 -27.8868 -10.1342 -10.0616 -10.0616
    -9.6498  -9.6498  -9.6151   2.2041   2.9187   2.9187   3.1943   3.2721
     3.2721   5.7853   5.7853   5.8579   8.4571   8.4741   8.4741  10.8035

     occupation numbers 
     1.0000   1.0000   1.0000   1.0000   1.0000   1.0000   1.0000   1.0000
     1.0000   1.0000   1.0000   1.0000   1.0000   1.0000   1.0000   1.0000
     1.0000   1.0000   1.0000   1.0000   0.0000   0.0000   0.0000   0.0000

          k = 0.4167 0.4167 0.4583 (  3401 PWs)   bands (ev):

   -51.7656 -28.0615 -27.8874 -27.8868 -27.8868 -10.1110 -10.0743 -10.0414
    -9.6713  -9.6457  -9.6230   2.1734   2.8882   2.9200   3.1862   3.2447
     3.2698   5.8053   5.8192   5.8736   8.4714   8.4901   8.5003  10.7994

     occupation numbers 
     1.0000   1.0000   1.0000   1.0000   1.0000   1.0000   1.0000   1.0000
     1.0000   1.0000   1.0000   1.0000   1.0000   1.0000   1.0000   1.0000
     1.0000   1.0000   1.0000   1.0000   0.0000   0.0000   0.0000   0.0000

          k = 0.4167 0.4167-0.5000 (  3396 PWs)   bands (ev):

   -51.7656 -28.0614 -27.8876 -27.8868 -27.8868 -10.0970 -10.0845 -10.0340
    -9.6792  -9.6473  -9.6228   2.1623   2.8786   2.9205   3.1807   3.2354
     3.2719   5.8105   5.8305   5.8804   8.4737   8.4983   8.5095  10.7979

     occupation numbers 
     1.0000   1.0000   1.0000   1.0000   1.0000   1.0000   1.0000   1.0000
     1.0000   1.0000   1.0000   1.0000   1.0000   1.0000   1.0000   1.0000
     1.0000   1.0000   1.0000   1.0000   0.0000   0.0000   0.0000   0.0000

          k = 0.4167 0.4583 0.4583 (  3394 PWs)   bands (ev):

   -51.7656 -28.0613 -27.8874 -27.8874 -27.8868 -10.0888 -10.0663 -10.0386
    -9.6811  -9.6479  -9.6387   2.1436   2.8711   2.9058   3.1820   3.2385
     3.2443   5.8388   5.8431   5.8895   8.4964   8.5003   8.5207  10.8470

     occupation numbers 
     1.0000   1.0000   1.0000   1.0000   1.0000   1.0000   1.0000   1.0000
     1.0000   1.0000   1.0000   1.0000   1.0000   1.0000   1.0000   1.0000
     1.0000   1.0000   1.0000   1.0000   0.0000   0.0000   0.0000   0.0000

          k = 0.4167 0.4583-0.5000 (  3392 PWs)   bands (ev):

   -51.7656 -28.0612 -27.8876 -27.8873 -27.8867 -10.0757 -10.0716 -10.0343
    -9.6878  -9.6494  -9.6407   2.1329   2.8627   2.9043   3.1767   3.2320
     3.2443   5.8458   5.8529   5.8973   8.5001   8.5075   8.5292  10.8523

     occupation numbers 
     1.0000   1.0000   1.0000   1.0000   1.0000   1.0000   1.0000   1.0000
     1.0000   1.0000   1.0000   1.0000   1.0000   1.0000   1.0000   1.0000
     1.0000   1.0000   1.0000   1.0000   0.0000   0.0000   0.0000   0.0000

          k = 0.4167-0.5000-0.5000 (  3396 PWs)   bands (ev):

   -51.7656 -28.0612 -27.8875 -27.8875 -27.8867 -10.0679 -10.0679 -10.0333
    -9.6942  -9.6472  -9.6472   2.1222   2.8549   2.9020   3.1713   3.2350
     3.2350   5.8576   5.8576   5.9059   8.5093   8.5093   8.5374  10.8610

     occupation numbers 
     1.0000   1.0000   1.0000   1.0000   1.0000   1.0000   1.0000   1.0000
     1.0000   1.0000   1.0000   1.0000   1.0000   1.0000   1.0000   1.0000
     1.0000   1.0000   1.0000   1.0000   0.0000   0.0000   0.0000   0.0000

          k = 0.4583 0.4583 0.4583 (  3400 PWs)   bands (ev):

   -51.7656 -28.0611 -27.8873 -27.8873 -27.8873 -10.0671 -10.0454 -10.0454
    -9.6702  -9.6702  -9.6580   2.1147   2.8717   2.8717   3.1962   3.2175
     3.2175   5.8762   5.8762   5.8960   8.5209   8.5255   8.5255  10.9614

     occupation numbers 
     1.0000   1.0000   1.0000   1.0000   1.0000   1.0000   1.0000   1.0000
     1.0000   1.0000   1.0000   1.0000   1.0000   1.0000   1.0000   1.0000
     1.0000   1.0000   1.0000   1.0000   0.0000   0.0000   0.0000   0.0000

          k = 0.4583 0.4583-0.5000 (  3390 PWs)   bands (ev):

   -51.7656 -28.0611 -27.8875 -27.8873 -27.8873 -10.0546 -10.0525 -10.0377
    -9.6783  -9.6694  -9.6620   2.1042   2.8609   2.8720   3.1942   3.2085
     3.2174   5.8835   5.8888   5.9020   8.5254   8.5313   8.5344  10.9607

     occupation numbers 
     1.0000   1.0000   1.0000   1.0000   1.0000   1.0000   1.0000   1.0000
     1.0000   1.0000   1.0000   1.0000   1.0000   1.0000   1.0000   1.0000
     1.0000   1.0000   1.0000   1.0000   0.0000   0.0000   0.0000   0.0000

          k = 0.4583-0.5000-0.5000 (  3408 PWs)   bands (ev):

   -51.7656 -28.0610 -27.8875 -27.8875 -27.8873 -10.0468 -10.0468 -10.0375
    -9.6822  -9.6698  -9.6698   2.0939   2.8554   2.8667   3.1923   3.2084
     3.2084   5.8961   5.8961   5.9082   8.5342   8.5342   8.5415  10.9807

     occupation numbers 
     1.0000   1.0000   1.0000   1.0000   1.0000   1.0000   1.0000   1.0000
     1.0000   1.0000   1.0000   1.0000   1.0000   1.0000   1.0000   1.0000
     1.0000   1.0000   1.0000   1.0000   0.0000   0.0000   0.0000   0.0000

          k =-0.5000-0.5000-0.5000 (  3448 PWs)   bands (ev):

   -51.7656 -28.0610 -27.8875 -27.8875 -27.8875 -10.0389 -10.0389 -10.0389
    -9.6781  -9.6781  -9.6781   2.0836   2.8555   2.8555   3.1995   3.1995
     3.1995   5.9090   5.9090   5.9090   8.5429   8.5429   8.5429  11.0248

     occupation numbers 
     1.0000   1.0000   1.0000   1.0000   1.0000   1.0000   1.0000   1.0000
     1.0000   1.0000   1.0000   1.0000   1.0000   1.0000   1.0000   1.0000
     1.0000   1.0000   1.0000   1.0000   0.0000   0.0000   0.0000   0.0000

     the Fermi energy is     6.1422 ev

!    total energy              =    -286.82476508 Ry
     Harris-Foulkes estimate   =    -286.82476508 Ry
     estimated scf accuracy    <          1.8E-09 Ry

     The total energy is the sum of the following terms:

     one-electron contribution =    -111.05940519 Ry
     hartree contribution      =      71.13529363 Ry
     xc contribution           =     -57.59001222 Ry
     ewald contribution        =    -189.31064130 Ry
     smearing contrib. (-TS)   =       0.00000000 Ry

     convergence has been achieved in  14 iterations
 
     init_run     :      3.70s CPU      4.06s WALL (       1 calls)
     electrons    :    148.90s CPU    163.55s WALL (       1 calls)

     Called by init_run:
     wfcinit      :      3.59s CPU      3.88s WALL (       1 calls)
     wfcinit:atom :      0.03s CPU      0.03s WALL (     455 calls)
     wfcinit:wfcr :      3.40s CPU      3.68s WALL (     455 calls)
     potinit      :      0.01s CPU      0.01s WALL (       1 calls)
     hinit0       :      0.08s CPU      0.13s WALL (       1 calls)

     Called by electrons:
     c_bands      :    136.70s CPU    150.68s WALL (      14 calls)
     sum_band     :     12.00s CPU     12.64s WALL (      14 calls)
     v_of_rho     :      0.03s CPU      0.03s WALL (      15 calls)
     v_h          :      0.00s CPU      0.00s WALL (      15 calls)
     v_xc         :      0.03s CPU      0.03s WALL (      15 calls)
     newd         :      0.15s CPU      0.16s WALL (      15 calls)
     mix_rho      :      0.01s CPU      0.01s WALL (      14 calls)

     Called by c_bands:
     init_us_2    :      1.35s CPU      1.41s WALL (   13195 calls)
     cegterg      :    131.36s CPU    145.20s WALL (    6370 calls)

     Called by sum_band:
     sum_band:bec :      0.14s CPU      0.14s WALL (    6370 calls)
     addusdens    :      0.15s CPU      0.16s WALL (      14 calls)

     Called by *egterg:
     h_psi        :     50.98s CPU     53.78s WALL (   23680 calls)
     s_psi        :      1.52s CPU      1.60s WALL (   23680 calls)
     g_psi        :      0.35s CPU      0.38s WALL (   16855 calls)
     cdiaghg      :     66.03s CPU     74.22s WALL (   23225 calls)
     cegterg:over :      8.62s CPU     11.41s WALL (   16855 calls)
     cegterg:upda :      3.38s CPU      3.49s WALL (   16855 calls)
     cegterg:last :      1.39s CPU      1.43s WALL (    6370 calls)
     cdiaghg:chol :      1.95s CPU      2.33s WALL (   23225 calls)
     cdiaghg:inve :      1.10s CPU      1.34s WALL (   23225 calls)
     cdiaghg:para :      3.72s CPU      4.05s WALL (   46450 calls)

     Called by h_psi:
     h_psi:pot    :     50.82s CPU     53.62s WALL (   23680 calls)
     h_psi:calbec :      2.36s CPU      2.48s WALL (   23680 calls)
     vloc_psi     :     46.79s CPU     49.38s WALL (   23680 calls)
     add_vuspsi   :      1.57s CPU      1.66s WALL (   23680 calls)

     General routines
     calbec       :      3.13s CPU      3.31s WALL (   30050 calls)
     fft          :      0.02s CPU      0.05s WALL (     166 calls)
     ffts         :      0.00s CPU      0.00s WALL (      14 calls)
     fftw         :     53.04s CPU     55.97s WALL (  922794 calls)
 
     Parallel routines
     fft_scatt_xy :      4.30s CPU      4.53s WALL (  922974 calls)
     fft_scatt_yz :     33.08s CPU     35.00s WALL (  922974 calls)
 
     PWSCF        :  2m32.70s CPU     2m47.81s WALL

 
   This run was terminated on:  22: 1:35   6Feb2019            

=------------------------------------------------------------------------------=
   JOB DONE.
=------------------------------------------------------------------------------=
