
     Program PWSCF v.6.3MaX starts on  6Feb2019 at 21:58:46 

     This program is part of the open-source Quantum ESPRESSO suite
     for quantum simulation of materials; please cite
         "P. Giannozzi et al., J. Phys.:Condens. Matter 21 395502 (2009);
         "P. Giannozzi et al., J. Phys.:Condens. Matter 29 465901 (2017);
          URL http://www.quantum-espresso.org", 
     in publications or presentations arising from this work. More details at
     http://www.quantum-espresso.org/quote

     Parallel version (MPI & OpenMP), running on      20 processor cores
     Number of MPI processes:                20
     Threads/MPI process:                     1

     MPI processes distributed on     1 nodes
     R & G space division:  proc/nbgrp/npool/nimage =      20
     Reading input from /home/azadoks/dftman/projects/SrTiO3 Convergence/EOSWorkflows/599c7fa72078/e56902d092fb/pwscf.in
Warning: card &IONS ignored
Warning: card / ignored
Warning: card &CELL ignored
Warning: card / ignored

     Current dimensions of program PWSCF are:
     Max number of different atomic species (ntypx) = 10
     Max number of k-points (npk) =  40000
     Max angular momentum in pseudopotentials (lmaxx) =  3
     Message from routine iosys:
     minimal I/O required, wf_collect reset to FALSE

     Subspace diagonalization in iterative solution of the eigenvalue problem:
     one sub-group per band group will be used
     scalapack distributed-memory algorithm (size of sub-group:  3*  3 procs)

 
     Parallelization info
     --------------------
     sticks:   dense  smooth     PW     G-vecs:    dense   smooth      PW
     Min          50      50     14                 1192     1192     192
     Max          51      51     15                 1194     1194     197
     Sum        1005    1005    293                23871    23871    3911
 


     bravais-lattice index     =            0
     lattice parameter (alat)  =       7.9522  a.u.
     unit-cell volume          =     502.8829 (a.u.)^3
     number of atoms/cell      =            5
     number of atomic types    =            3
     number of electrons       =        40.00
     number of Kohn-Sham states=           24
     kinetic-energy cutoff     =      50.0000  Ry
     charge density cutoff     =     200.0000  Ry
     convergence threshold     =      1.0E-08
     mixing beta               =       0.7000
     number of iterations used =            8  plain     mixing
     Exchange-correlation      =  SLA  PW   PBX  PBC ( 1  4  3  4 0 0)

     celldm(1)=   7.952230  celldm(2)=   0.000000  celldm(3)=   0.000000
     celldm(4)=   0.000000  celldm(5)=   0.000000  celldm(6)=   0.000000

     crystal axes: (cart. coord. in units of alat)
               a(1) = (   1.000000   0.000000   0.000000 )  
               a(2) = (   0.000000   1.000000   0.000000 )  
               a(3) = (   0.000000   0.000000   1.000000 )  

     reciprocal axes: (cart. coord. in units 2 pi/alat)
               b(1) = (  1.000000  0.000000  0.000000 )  
               b(2) = (  0.000000  1.000000  0.000000 )  
               b(3) = (  0.000000  0.000000  1.000000 )  


     PseudoPot. # 1 for O  read from file:
     /home/azadoks/.local/share/pseudo/GBRV_PBE_US/o_pbe_v1.2.uspp.F.UPF
     MD5 check sum: 734c27235a0248c51dbae37a1fbe46ec
     Pseudo is Ultrasoft + core correction, Zval =  6.0
     Generated by new atomic code, or converted to UPF format
     Using radial grid of  737 points,  5 beta functions with: 
                l(1) =   0
                l(2) =   0
                l(3) =   1
                l(4) =   1
                l(5) =   2
     Q(r) pseudized with  8 coefficients,  rinner =    0.900   0.900   0.900
                                                       0.900   0.900

     PseudoPot. # 2 for Sr read from file:
     /home/azadoks/.local/share/pseudo/GBRV_PBE_US/sr_pbe_v1.uspp.F.UPF
     MD5 check sum: 6b418c05fbe9db5448babca5e47b7a5b
     Pseudo is Ultrasoft + core correction, Zval = 10.0
     Generated by new atomic code, or converted to UPF format
     Using radial grid of  883 points,  6 beta functions with: 
                l(1) =   0
                l(2) =   0
                l(3) =   1
                l(4) =   1
                l(5) =   2
                l(6) =   2
     Q(r) pseudized with  6 coefficients,  rinner =    1.400   1.400   1.400
                                                       1.400   1.400

     PseudoPot. # 3 for Ti read from file:
     /home/azadoks/.local/share/pseudo/GBRV_PBE_US/ti_pbe_v1.4.uspp.F.UPF
     MD5 check sum: 88a00a6731bd790ddea75d31a80cb452
     Pseudo is Ultrasoft + core correction, Zval = 12.0
     Generated by new atomic code, or converted to UPF format
     Using radial grid of  851 points,  6 beta functions with: 
                l(1) =   0
                l(2) =   0
                l(3) =   1
                l(4) =   1
                l(5) =   2
                l(6) =   2
     Q(r) pseudized with  6 coefficients,  rinner =    1.000   1.000   1.000
                                                       1.000   1.000

     atomic species   valence    mass     pseudopotential
        O              6.00    15.99940     O ( 1.00)
        Sr            10.00    87.62000     Sr( 1.00)
        Ti            12.00    47.86700     Ti( 1.00)

     48 Sym. Ops., with inversion, found


                                    s                        frac. trans.

      isym =  1     identity                                     

 cryst.   s( 1) = (     1          0          0      )
                  (     0          1          0      )
                  (     0          0          1      )

 cart.    s( 1) = (  1.0000000  0.0000000  0.0000000 )
                  (  0.0000000  1.0000000  0.0000000 )
                  (  0.0000000  0.0000000  1.0000000 )


      isym =  2     180 deg rotation - cart. axis [0,0,1]        

 cryst.   s( 2) = (    -1          0          0      )
                  (     0         -1          0      )
                  (     0          0          1      )

 cart.    s( 2) = ( -1.0000000  0.0000000  0.0000000 )
                  (  0.0000000 -1.0000000  0.0000000 )
                  (  0.0000000  0.0000000  1.0000000 )


      isym =  3     180 deg rotation - cart. axis [0,1,0]        

 cryst.   s( 3) = (    -1          0          0      )
                  (     0          1          0      )
                  (     0          0         -1      )

 cart.    s( 3) = ( -1.0000000  0.0000000  0.0000000 )
                  (  0.0000000  1.0000000  0.0000000 )
                  (  0.0000000  0.0000000 -1.0000000 )


      isym =  4     180 deg rotation - cart. axis [1,0,0]        

 cryst.   s( 4) = (     1          0          0      )
                  (     0         -1          0      )
                  (     0          0         -1      )

 cart.    s( 4) = (  1.0000000  0.0000000  0.0000000 )
                  (  0.0000000 -1.0000000  0.0000000 )
                  (  0.0000000  0.0000000 -1.0000000 )


      isym =  5     180 deg rotation - cart. axis [1,1,0]        

 cryst.   s( 5) = (     0          1          0      )
                  (     1          0          0      )
                  (     0          0         -1      )

 cart.    s( 5) = (  0.0000000  1.0000000  0.0000000 )
                  (  1.0000000  0.0000000  0.0000000 )
                  (  0.0000000  0.0000000 -1.0000000 )


      isym =  6     180 deg rotation - cart. axis [1,-1,0]       

 cryst.   s( 6) = (     0         -1          0      )
                  (    -1          0          0      )
                  (     0          0         -1      )

 cart.    s( 6) = (  0.0000000 -1.0000000  0.0000000 )
                  ( -1.0000000  0.0000000  0.0000000 )
                  (  0.0000000  0.0000000 -1.0000000 )


      isym =  7      90 deg rotation - cart. axis [0,0,-1]       

 cryst.   s( 7) = (     0         -1          0      )
                  (     1          0          0      )
                  (     0          0          1      )

 cart.    s( 7) = (  0.0000000  1.0000000  0.0000000 )
                  ( -1.0000000  0.0000000  0.0000000 )
                  (  0.0000000  0.0000000  1.0000000 )


      isym =  8      90 deg rotation - cart. axis [0,0,1]        

 cryst.   s( 8) = (     0          1          0      )
                  (    -1          0          0      )
                  (     0          0          1      )

 cart.    s( 8) = (  0.0000000 -1.0000000  0.0000000 )
                  (  1.0000000  0.0000000  0.0000000 )
                  (  0.0000000  0.0000000  1.0000000 )


      isym =  9     180 deg rotation - cart. axis [1,0,1]        

 cryst.   s( 9) = (     0          0          1      )
                  (     0         -1          0      )
                  (     1          0          0      )

 cart.    s( 9) = (  0.0000000  0.0000000  1.0000000 )
                  (  0.0000000 -1.0000000  0.0000000 )
                  (  1.0000000  0.0000000  0.0000000 )


      isym = 10     180 deg rotation - cart. axis [-1,0,1]       

 cryst.   s(10) = (     0          0         -1      )
                  (     0         -1          0      )
                  (    -1          0          0      )

 cart.    s(10) = (  0.0000000  0.0000000 -1.0000000 )
                  (  0.0000000 -1.0000000  0.0000000 )
                  ( -1.0000000  0.0000000  0.0000000 )


      isym = 11      90 deg rotation - cart. axis [0,1,0]        

 cryst.   s(11) = (     0          0         -1      )
                  (     0          1          0      )
                  (     1          0          0      )

 cart.    s(11) = (  0.0000000  0.0000000  1.0000000 )
                  (  0.0000000  1.0000000  0.0000000 )
                  ( -1.0000000  0.0000000  0.0000000 )


      isym = 12      90 deg rotation - cart. axis [0,-1,0]       

 cryst.   s(12) = (     0          0          1      )
                  (     0          1          0      )
                  (    -1          0          0      )

 cart.    s(12) = (  0.0000000  0.0000000 -1.0000000 )
                  (  0.0000000  1.0000000  0.0000000 )
                  (  1.0000000  0.0000000  0.0000000 )


      isym = 13     180 deg rotation - cart. axis [0,1,1]        

 cryst.   s(13) = (    -1          0          0      )
                  (     0          0          1      )
                  (     0          1          0      )

 cart.    s(13) = ( -1.0000000  0.0000000  0.0000000 )
                  (  0.0000000  0.0000000  1.0000000 )
                  (  0.0000000  1.0000000  0.0000000 )


      isym = 14     180 deg rotation - cart. axis [0,1,-1]       

 cryst.   s(14) = (    -1          0          0      )
                  (     0          0         -1      )
                  (     0         -1          0      )

 cart.    s(14) = ( -1.0000000  0.0000000  0.0000000 )
                  (  0.0000000  0.0000000 -1.0000000 )
                  (  0.0000000 -1.0000000  0.0000000 )


      isym = 15      90 deg rotation - cart. axis [-1,0,0]       

 cryst.   s(15) = (     1          0          0      )
                  (     0          0         -1      )
                  (     0          1          0      )

 cart.    s(15) = (  1.0000000  0.0000000  0.0000000 )
                  (  0.0000000  0.0000000  1.0000000 )
                  (  0.0000000 -1.0000000  0.0000000 )


      isym = 16      90 deg rotation - cart. axis [1,0,0]        

 cryst.   s(16) = (     1          0          0      )
                  (     0          0          1      )
                  (     0         -1          0      )

 cart.    s(16) = (  1.0000000  0.0000000  0.0000000 )
                  (  0.0000000  0.0000000 -1.0000000 )
                  (  0.0000000  1.0000000  0.0000000 )


      isym = 17     120 deg rotation - cart. axis [-1,-1,-1]     

 cryst.   s(17) = (     0          0          1      )
                  (     1          0          0      )
                  (     0          1          0      )

 cart.    s(17) = (  0.0000000  1.0000000  0.0000000 )
                  (  0.0000000  0.0000000  1.0000000 )
                  (  1.0000000  0.0000000  0.0000000 )


      isym = 18     120 deg rotation - cart. axis [-1,1,1]       

 cryst.   s(18) = (     0          0         -1      )
                  (    -1          0          0      )
                  (     0          1          0      )

 cart.    s(18) = (  0.0000000 -1.0000000  0.0000000 )
                  (  0.0000000  0.0000000  1.0000000 )
                  ( -1.0000000  0.0000000  0.0000000 )


      isym = 19     120 deg rotation - cart. axis [1,1,-1]       

 cryst.   s(19) = (     0          0         -1      )
                  (     1          0          0      )
                  (     0         -1          0      )

 cart.    s(19) = (  0.0000000  1.0000000  0.0000000 )
                  (  0.0000000  0.0000000 -1.0000000 )
                  ( -1.0000000  0.0000000  0.0000000 )


      isym = 20     120 deg rotation - cart. axis [1,-1,1]       

 cryst.   s(20) = (     0          0          1      )
                  (    -1          0          0      )
                  (     0         -1          0      )

 cart.    s(20) = (  0.0000000 -1.0000000  0.0000000 )
                  (  0.0000000  0.0000000 -1.0000000 )
                  (  1.0000000  0.0000000  0.0000000 )


      isym = 21     120 deg rotation - cart. axis [1,1,1]        

 cryst.   s(21) = (     0          1          0      )
                  (     0          0          1      )
                  (     1          0          0      )

 cart.    s(21) = (  0.0000000  0.0000000  1.0000000 )
                  (  1.0000000  0.0000000  0.0000000 )
                  (  0.0000000  1.0000000  0.0000000 )


      isym = 22     120 deg rotation - cart. axis [-1,1,-1]      

 cryst.   s(22) = (     0         -1          0      )
                  (     0          0         -1      )
                  (     1          0          0      )

 cart.    s(22) = (  0.0000000  0.0000000  1.0000000 )
                  ( -1.0000000  0.0000000  0.0000000 )
                  (  0.0000000 -1.0000000  0.0000000 )


      isym = 23     120 deg rotation - cart. axis [1,-1,-1]      

 cryst.   s(23) = (     0         -1          0      )
                  (     0          0          1      )
                  (    -1          0          0      )

 cart.    s(23) = (  0.0000000  0.0000000 -1.0000000 )
                  ( -1.0000000  0.0000000  0.0000000 )
                  (  0.0000000  1.0000000  0.0000000 )


      isym = 24     120 deg rotation - cart. axis [-1,-1,1]      

 cryst.   s(24) = (     0          1          0      )
                  (     0          0         -1      )
                  (    -1          0          0      )

 cart.    s(24) = (  0.0000000  0.0000000 -1.0000000 )
                  (  1.0000000  0.0000000  0.0000000 )
                  (  0.0000000 -1.0000000  0.0000000 )


      isym = 25     inversion                                    

 cryst.   s(25) = (    -1          0          0      )
                  (     0         -1          0      )
                  (     0          0         -1      )

 cart.    s(25) = ( -1.0000000  0.0000000  0.0000000 )
                  (  0.0000000 -1.0000000  0.0000000 )
                  (  0.0000000  0.0000000 -1.0000000 )


      isym = 26     inv. 180 deg rotation - cart. axis [0,0,1]   

 cryst.   s(26) = (     1          0          0      )
                  (     0          1          0      )
                  (     0          0         -1      )

 cart.    s(26) = (  1.0000000  0.0000000  0.0000000 )
                  (  0.0000000  1.0000000  0.0000000 )
                  (  0.0000000  0.0000000 -1.0000000 )


      isym = 27     inv. 180 deg rotation - cart. axis [0,1,0]   

 cryst.   s(27) = (     1          0          0      )
                  (     0         -1          0      )
                  (     0          0          1      )

 cart.    s(27) = (  1.0000000  0.0000000  0.0000000 )
                  (  0.0000000 -1.0000000  0.0000000 )
                  (  0.0000000  0.0000000  1.0000000 )


      isym = 28     inv. 180 deg rotation - cart. axis [1,0,0]   

 cryst.   s(28) = (    -1          0          0      )
                  (     0          1          0      )
                  (     0          0          1      )

 cart.    s(28) = ( -1.0000000  0.0000000  0.0000000 )
                  (  0.0000000  1.0000000  0.0000000 )
                  (  0.0000000  0.0000000  1.0000000 )


      isym = 29     inv. 180 deg rotation - cart. axis [1,1,0]   

 cryst.   s(29) = (     0         -1          0      )
                  (    -1          0          0      )
                  (     0          0          1      )

 cart.    s(29) = (  0.0000000 -1.0000000  0.0000000 )
                  ( -1.0000000  0.0000000  0.0000000 )
                  (  0.0000000  0.0000000  1.0000000 )


      isym = 30     inv. 180 deg rotation - cart. axis [1,-1,0]  

 cryst.   s(30) = (     0          1          0      )
                  (     1          0          0      )
                  (     0          0          1      )

 cart.    s(30) = (  0.0000000  1.0000000  0.0000000 )
                  (  1.0000000  0.0000000  0.0000000 )
                  (  0.0000000  0.0000000  1.0000000 )


      isym = 31     inv.  90 deg rotation - cart. axis [0,0,-1]  

 cryst.   s(31) = (     0          1          0      )
                  (    -1          0          0      )
                  (     0          0         -1      )

 cart.    s(31) = (  0.0000000 -1.0000000  0.0000000 )
                  (  1.0000000  0.0000000  0.0000000 )
                  (  0.0000000  0.0000000 -1.0000000 )


      isym = 32     inv.  90 deg rotation - cart. axis [0,0,1]   

 cryst.   s(32) = (     0         -1          0      )
                  (     1          0          0      )
                  (     0          0         -1      )

 cart.    s(32) = (  0.0000000  1.0000000  0.0000000 )
                  ( -1.0000000  0.0000000  0.0000000 )
                  (  0.0000000  0.0000000 -1.0000000 )


      isym = 33     inv. 180 deg rotation - cart. axis [1,0,1]   

 cryst.   s(33) = (     0          0         -1      )
                  (     0          1          0      )
                  (    -1          0          0      )

 cart.    s(33) = (  0.0000000  0.0000000 -1.0000000 )
                  (  0.0000000  1.0000000  0.0000000 )
                  ( -1.0000000  0.0000000  0.0000000 )


      isym = 34     inv. 180 deg rotation - cart. axis [-1,0,1]  

 cryst.   s(34) = (     0          0          1      )
                  (     0          1          0      )
                  (     1          0          0      )

 cart.    s(34) = (  0.0000000  0.0000000  1.0000000 )
                  (  0.0000000  1.0000000  0.0000000 )
                  (  1.0000000  0.0000000  0.0000000 )


      isym = 35     inv.  90 deg rotation - cart. axis [0,1,0]   

 cryst.   s(35) = (     0          0          1      )
                  (     0         -1          0      )
                  (    -1          0          0      )

 cart.    s(35) = (  0.0000000  0.0000000 -1.0000000 )
                  (  0.0000000 -1.0000000  0.0000000 )
                  (  1.0000000  0.0000000  0.0000000 )


      isym = 36     inv.  90 deg rotation - cart. axis [0,-1,0]  

 cryst.   s(36) = (     0          0         -1      )
                  (     0         -1          0      )
                  (     1          0          0      )

 cart.    s(36) = (  0.0000000  0.0000000  1.0000000 )
                  (  0.0000000 -1.0000000  0.0000000 )
                  ( -1.0000000  0.0000000  0.0000000 )


      isym = 37     inv. 180 deg rotation - cart. axis [0,1,1]   

 cryst.   s(37) = (     1          0          0      )
                  (     0          0         -1      )
                  (     0         -1          0      )

 cart.    s(37) = (  1.0000000  0.0000000  0.0000000 )
                  (  0.0000000  0.0000000 -1.0000000 )
                  (  0.0000000 -1.0000000  0.0000000 )


      isym = 38     inv. 180 deg rotation - cart. axis [0,1,-1]  

 cryst.   s(38) = (     1          0          0      )
                  (     0          0          1      )
                  (     0          1          0      )

 cart.    s(38) = (  1.0000000  0.0000000  0.0000000 )
                  (  0.0000000  0.0000000  1.0000000 )
                  (  0.0000000  1.0000000  0.0000000 )


      isym = 39     inv.  90 deg rotation - cart. axis [-1,0,0]  

 cryst.   s(39) = (    -1          0          0      )
                  (     0          0          1      )
                  (     0         -1          0      )

 cart.    s(39) = ( -1.0000000  0.0000000  0.0000000 )
                  (  0.0000000  0.0000000 -1.0000000 )
                  (  0.0000000  1.0000000  0.0000000 )


      isym = 40     inv.  90 deg rotation - cart. axis [1,0,0]   

 cryst.   s(40) = (    -1          0          0      )
                  (     0          0         -1      )
                  (     0          1          0      )

 cart.    s(40) = ( -1.0000000  0.0000000  0.0000000 )
                  (  0.0000000  0.0000000  1.0000000 )
                  (  0.0000000 -1.0000000  0.0000000 )


      isym = 41     inv. 120 deg rotation - cart. axis [-1,-1,-1]

 cryst.   s(41) = (     0          0         -1      )
                  (    -1          0          0      )
                  (     0         -1          0      )

 cart.    s(41) = (  0.0000000 -1.0000000  0.0000000 )
                  (  0.0000000  0.0000000 -1.0000000 )
                  ( -1.0000000  0.0000000  0.0000000 )


      isym = 42     inv. 120 deg rotation - cart. axis [-1,1,1]  

 cryst.   s(42) = (     0          0          1      )
                  (     1          0          0      )
                  (     0         -1          0      )

 cart.    s(42) = (  0.0000000  1.0000000  0.0000000 )
                  (  0.0000000  0.0000000 -1.0000000 )
                  (  1.0000000  0.0000000  0.0000000 )


      isym = 43     inv. 120 deg rotation - cart. axis [1,1,-1]  

 cryst.   s(43) = (     0          0          1      )
                  (    -1          0          0      )
                  (     0          1          0      )

 cart.    s(43) = (  0.0000000 -1.0000000  0.0000000 )
                  (  0.0000000  0.0000000  1.0000000 )
                  (  1.0000000  0.0000000  0.0000000 )


      isym = 44     inv. 120 deg rotation - cart. axis [1,-1,1]  

 cryst.   s(44) = (     0          0         -1      )
                  (     1          0          0      )
                  (     0          1          0      )

 cart.    s(44) = (  0.0000000  1.0000000  0.0000000 )
                  (  0.0000000  0.0000000  1.0000000 )
                  ( -1.0000000  0.0000000  0.0000000 )


      isym = 45     inv. 120 deg rotation - cart. axis [1,1,1]   

 cryst.   s(45) = (     0         -1          0      )
                  (     0          0         -1      )
                  (    -1          0          0      )

 cart.    s(45) = (  0.0000000  0.0000000 -1.0000000 )
                  ( -1.0000000  0.0000000  0.0000000 )
                  (  0.0000000 -1.0000000  0.0000000 )


      isym = 46     inv. 120 deg rotation - cart. axis [-1,1,-1] 

 cryst.   s(46) = (     0          1          0      )
                  (     0          0          1      )
                  (    -1          0          0      )

 cart.    s(46) = (  0.0000000  0.0000000 -1.0000000 )
                  (  1.0000000  0.0000000  0.0000000 )
                  (  0.0000000  1.0000000  0.0000000 )


      isym = 47     inv. 120 deg rotation - cart. axis [1,-1,-1] 

 cryst.   s(47) = (     0          1          0      )
                  (     0          0         -1      )
                  (     1          0          0      )

 cart.    s(47) = (  0.0000000  0.0000000  1.0000000 )
                  (  1.0000000  0.0000000  0.0000000 )
                  (  0.0000000 -1.0000000  0.0000000 )


      isym = 48     inv. 120 deg rotation - cart. axis [-1,-1,1] 

 cryst.   s(48) = (     0         -1          0      )
                  (     0          0          1      )
                  (     1          0          0      )

 cart.    s(48) = (  0.0000000  0.0000000  1.0000000 )
                  ( -1.0000000  0.0000000  0.0000000 )
                  (  0.0000000  1.0000000  0.0000000 )


   Cartesian axes

     site n.     atom                  positions (alat units)
         1           O   tau(   1) = (   0.5000000   0.0000000   0.5000000  )
         2           O   tau(   2) = (   0.5000000   0.5000000   0.0000000  )
         3           O   tau(   3) = (   0.0000000   0.5000000   0.5000000  )
         4           Ti  tau(   4) = (   0.5000000   0.5000000   0.5000000  )
         5           Sr  tau(   5) = (   0.0000000   0.0000000   0.0000000  )

   Crystallographic axes

     site n.     atom                  positions (cryst. coord.)
         1           O   tau(   1) = (  0.5000000  0.0000000  0.5000000  )
         2           O   tau(   2) = (  0.5000000  0.5000000  0.0000000  )
         3           O   tau(   3) = (  0.0000000  0.5000000  0.5000000  )
         4           Ti  tau(   4) = (  0.5000000  0.5000000  0.5000000  )
         5           Sr  tau(   5) = (  0.0000000  0.0000000  0.0000000  )

     number of k points=   455  Marzari-Vanderbilt smearing, width (Ry)=  0.0010
                       cart. coord. in units 2pi/alat
        k(    1) = (   0.0000000   0.0000000   0.0000000), wk =   0.0001447
        k(    2) = (   0.0000000   0.0000000   0.0416667), wk =   0.0008681
        k(    3) = (   0.0000000   0.0000000   0.0833333), wk =   0.0008681
        k(    4) = (   0.0000000   0.0000000   0.1250000), wk =   0.0008681
        k(    5) = (   0.0000000   0.0000000   0.1666667), wk =   0.0008681
        k(    6) = (   0.0000000   0.0000000   0.2083333), wk =   0.0008681
        k(    7) = (   0.0000000   0.0000000   0.2500000), wk =   0.0008681
        k(    8) = (   0.0000000   0.0000000   0.2916667), wk =   0.0008681
        k(    9) = (   0.0000000   0.0000000   0.3333333), wk =   0.0008681
        k(   10) = (   0.0000000   0.0000000   0.3750000), wk =   0.0008681
        k(   11) = (   0.0000000   0.0000000   0.4166667), wk =   0.0008681
        k(   12) = (   0.0000000   0.0000000   0.4583333), wk =   0.0008681
        k(   13) = (   0.0000000   0.0000000  -0.5000000), wk =   0.0004340
        k(   14) = (   0.0000000   0.0416667   0.0416667), wk =   0.0017361
        k(   15) = (   0.0000000   0.0416667   0.0833333), wk =   0.0034722
        k(   16) = (   0.0000000   0.0416667   0.1250000), wk =   0.0034722
        k(   17) = (   0.0000000   0.0416667   0.1666667), wk =   0.0034722
        k(   18) = (   0.0000000   0.0416667   0.2083333), wk =   0.0034722
        k(   19) = (   0.0000000   0.0416667   0.2500000), wk =   0.0034722
        k(   20) = (   0.0000000   0.0416667   0.2916667), wk =   0.0034722
        k(   21) = (   0.0000000   0.0416667   0.3333333), wk =   0.0034722
        k(   22) = (   0.0000000   0.0416667   0.3750000), wk =   0.0034722
        k(   23) = (   0.0000000   0.0416667   0.4166667), wk =   0.0034722
        k(   24) = (   0.0000000   0.0416667   0.4583333), wk =   0.0034722
        k(   25) = (   0.0000000   0.0416667  -0.5000000), wk =   0.0017361
        k(   26) = (   0.0000000   0.0833333   0.0833333), wk =   0.0017361
        k(   27) = (   0.0000000   0.0833333   0.1250000), wk =   0.0034722
        k(   28) = (   0.0000000   0.0833333   0.1666667), wk =   0.0034722
        k(   29) = (   0.0000000   0.0833333   0.2083333), wk =   0.0034722
        k(   30) = (   0.0000000   0.0833333   0.2500000), wk =   0.0034722
        k(   31) = (   0.0000000   0.0833333   0.2916667), wk =   0.0034722
        k(   32) = (   0.0000000   0.0833333   0.3333333), wk =   0.0034722
        k(   33) = (   0.0000000   0.0833333   0.3750000), wk =   0.0034722
        k(   34) = (   0.0000000   0.0833333   0.4166667), wk =   0.0034722
        k(   35) = (   0.0000000   0.0833333   0.4583333), wk =   0.0034722
        k(   36) = (   0.0000000   0.0833333  -0.5000000), wk =   0.0017361
        k(   37) = (   0.0000000   0.1250000   0.1250000), wk =   0.0017361
        k(   38) = (   0.0000000   0.1250000   0.1666667), wk =   0.0034722
        k(   39) = (   0.0000000   0.1250000   0.2083333), wk =   0.0034722
        k(   40) = (   0.0000000   0.1250000   0.2500000), wk =   0.0034722
        k(   41) = (   0.0000000   0.1250000   0.2916667), wk =   0.0034722
        k(   42) = (   0.0000000   0.1250000   0.3333333), wk =   0.0034722
        k(   43) = (   0.0000000   0.1250000   0.3750000), wk =   0.0034722
        k(   44) = (   0.0000000   0.1250000   0.4166667), wk =   0.0034722
        k(   45) = (   0.0000000   0.1250000   0.4583333), wk =   0.0034722
        k(   46) = (   0.0000000   0.1250000  -0.5000000), wk =   0.0017361
        k(   47) = (   0.0000000   0.1666667   0.1666667), wk =   0.0017361
        k(   48) = (   0.0000000   0.1666667   0.2083333), wk =   0.0034722
        k(   49) = (   0.0000000   0.1666667   0.2500000), wk =   0.0034722
        k(   50) = (   0.0000000   0.1666667   0.2916667), wk =   0.0034722
        k(   51) = (   0.0000000   0.1666667   0.3333333), wk =   0.0034722
        k(   52) = (   0.0000000   0.1666667   0.3750000), wk =   0.0034722
        k(   53) = (   0.0000000   0.1666667   0.4166667), wk =   0.0034722
        k(   54) = (   0.0000000   0.1666667   0.4583333), wk =   0.0034722
        k(   55) = (   0.0000000   0.1666667  -0.5000000), wk =   0.0017361
        k(   56) = (   0.0000000   0.2083333   0.2083333), wk =   0.0017361
        k(   57) = (   0.0000000   0.2083333   0.2500000), wk =   0.0034722
        k(   58) = (   0.0000000   0.2083333   0.2916667), wk =   0.0034722
        k(   59) = (   0.0000000   0.2083333   0.3333333), wk =   0.0034722
        k(   60) = (   0.0000000   0.2083333   0.3750000), wk =   0.0034722
        k(   61) = (   0.0000000   0.2083333   0.4166667), wk =   0.0034722
        k(   62) = (   0.0000000   0.2083333   0.4583333), wk =   0.0034722
        k(   63) = (   0.0000000   0.2083333  -0.5000000), wk =   0.0017361
        k(   64) = (   0.0000000   0.2500000   0.2500000), wk =   0.0017361
        k(   65) = (   0.0000000   0.2500000   0.2916667), wk =   0.0034722
        k(   66) = (   0.0000000   0.2500000   0.3333333), wk =   0.0034722
        k(   67) = (   0.0000000   0.2500000   0.3750000), wk =   0.0034722
        k(   68) = (   0.0000000   0.2500000   0.4166667), wk =   0.0034722
        k(   69) = (   0.0000000   0.2500000   0.4583333), wk =   0.0034722
        k(   70) = (   0.0000000   0.2500000  -0.5000000), wk =   0.0017361
        k(   71) = (   0.0000000   0.2916667   0.2916667), wk =   0.0017361
        k(   72) = (   0.0000000   0.2916667   0.3333333), wk =   0.0034722
        k(   73) = (   0.0000000   0.2916667   0.3750000), wk =   0.0034722
        k(   74) = (   0.0000000   0.2916667   0.4166667), wk =   0.0034722
        k(   75) = (   0.0000000   0.2916667   0.4583333), wk =   0.0034722
        k(   76) = (   0.0000000   0.2916667  -0.5000000), wk =   0.0017361
        k(   77) = (   0.0000000   0.3333333   0.3333333), wk =   0.0017361
        k(   78) = (   0.0000000   0.3333333   0.3750000), wk =   0.0034722
        k(   79) = (   0.0000000   0.3333333   0.4166667), wk =   0.0034722
        k(   80) = (   0.0000000   0.3333333   0.4583333), wk =   0.0034722
        k(   81) = (   0.0000000   0.3333333  -0.5000000), wk =   0.0017361
        k(   82) = (   0.0000000   0.3750000   0.3750000), wk =   0.0017361
        k(   83) = (   0.0000000   0.3750000   0.4166667), wk =   0.0034722
        k(   84) = (   0.0000000   0.3750000   0.4583333), wk =   0.0034722
        k(   85) = (   0.0000000   0.3750000  -0.5000000), wk =   0.0017361
        k(   86) = (   0.0000000   0.4166667   0.4166667), wk =   0.0017361
        k(   87) = (   0.0000000   0.4166667   0.4583333), wk =   0.0034722
        k(   88) = (   0.0000000   0.4166667  -0.5000000), wk =   0.0017361
        k(   89) = (   0.0000000   0.4583333   0.4583333), wk =   0.0017361
        k(   90) = (   0.0000000   0.4583333  -0.5000000), wk =   0.0017361
        k(   91) = (   0.0000000  -0.5000000  -0.5000000), wk =   0.0004340
        k(   92) = (   0.0416667   0.0416667   0.0416667), wk =   0.0011574
        k(   93) = (   0.0416667   0.0416667   0.0833333), wk =   0.0034722
        k(   94) = (   0.0416667   0.0416667   0.1250000), wk =   0.0034722
        k(   95) = (   0.0416667   0.0416667   0.1666667), wk =   0.0034722
        k(   96) = (   0.0416667   0.0416667   0.2083333), wk =   0.0034722
        k(   97) = (   0.0416667   0.0416667   0.2500000), wk =   0.0034722
        k(   98) = (   0.0416667   0.0416667   0.2916667), wk =   0.0034722
        k(   99) = (   0.0416667   0.0416667   0.3333333), wk =   0.0034722
        k(  100) = (   0.0416667   0.0416667   0.3750000), wk =   0.0034722
        k(  101) = (   0.0416667   0.0416667   0.4166667), wk =   0.0034722
        k(  102) = (   0.0416667   0.0416667   0.4583333), wk =   0.0034722
        k(  103) = (   0.0416667   0.0416667  -0.5000000), wk =   0.0017361
        k(  104) = (   0.0416667   0.0833333   0.0833333), wk =   0.0034722
        k(  105) = (   0.0416667   0.0833333   0.1250000), wk =   0.0069444
        k(  106) = (   0.0416667   0.0833333   0.1666667), wk =   0.0069444
        k(  107) = (   0.0416667   0.0833333   0.2083333), wk =   0.0069444
        k(  108) = (   0.0416667   0.0833333   0.2500000), wk =   0.0069444
        k(  109) = (   0.0416667   0.0833333   0.2916667), wk =   0.0069444
        k(  110) = (   0.0416667   0.0833333   0.3333333), wk =   0.0069444
        k(  111) = (   0.0416667   0.0833333   0.3750000), wk =   0.0069444
        k(  112) = (   0.0416667   0.0833333   0.4166667), wk =   0.0069444
        k(  113) = (   0.0416667   0.0833333   0.4583333), wk =   0.0069444
        k(  114) = (   0.0416667   0.0833333  -0.5000000), wk =   0.0034722
        k(  115) = (   0.0416667   0.1250000   0.1250000), wk =   0.0034722
        k(  116) = (   0.0416667   0.1250000   0.1666667), wk =   0.0069444
        k(  117) = (   0.0416667   0.1250000   0.2083333), wk =   0.0069444
        k(  118) = (   0.0416667   0.1250000   0.2500000), wk =   0.0069444
        k(  119) = (   0.0416667   0.1250000   0.2916667), wk =   0.0069444
        k(  120) = (   0.0416667   0.1250000   0.3333333), wk =   0.0069444
        k(  121) = (   0.0416667   0.1250000   0.3750000), wk =   0.0069444
        k(  122) = (   0.0416667   0.1250000   0.4166667), wk =   0.0069444
        k(  123) = (   0.0416667   0.1250000   0.4583333), wk =   0.0069444
        k(  124) = (   0.0416667   0.1250000  -0.5000000), wk =   0.0034722
        k(  125) = (   0.0416667   0.1666667   0.1666667), wk =   0.0034722
        k(  126) = (   0.0416667   0.1666667   0.2083333), wk =   0.0069444
        k(  127) = (   0.0416667   0.1666667   0.2500000), wk =   0.0069444
        k(  128) = (   0.0416667   0.1666667   0.2916667), wk =   0.0069444
        k(  129) = (   0.0416667   0.1666667   0.3333333), wk =   0.0069444
        k(  130) = (   0.0416667   0.1666667   0.3750000), wk =   0.0069444
        k(  131) = (   0.0416667   0.1666667   0.4166667), wk =   0.0069444
        k(  132) = (   0.0416667   0.1666667   0.4583333), wk =   0.0069444
        k(  133) = (   0.0416667   0.1666667  -0.5000000), wk =   0.0034722
        k(  134) = (   0.0416667   0.2083333   0.2083333), wk =   0.0034722
        k(  135) = (   0.0416667   0.2083333   0.2500000), wk =   0.0069444
        k(  136) = (   0.0416667   0.2083333   0.2916667), wk =   0.0069444
        k(  137) = (   0.0416667   0.2083333   0.3333333), wk =   0.0069444
        k(  138) = (   0.0416667   0.2083333   0.3750000), wk =   0.0069444
        k(  139) = (   0.0416667   0.2083333   0.4166667), wk =   0.0069444
        k(  140) = (   0.0416667   0.2083333   0.4583333), wk =   0.0069444
        k(  141) = (   0.0416667   0.2083333  -0.5000000), wk =   0.0034722
        k(  142) = (   0.0416667   0.2500000   0.2500000), wk =   0.0034722
        k(  143) = (   0.0416667   0.2500000   0.2916667), wk =   0.0069444
        k(  144) = (   0.0416667   0.2500000   0.3333333), wk =   0.0069444
        k(  145) = (   0.0416667   0.2500000   0.3750000), wk =   0.0069444
        k(  146) = (   0.0416667   0.2500000   0.4166667), wk =   0.0069444
        k(  147) = (   0.0416667   0.2500000   0.4583333), wk =   0.0069444
        k(  148) = (   0.0416667   0.2500000  -0.5000000), wk =   0.0034722
        k(  149) = (   0.0416667   0.2916667   0.2916667), wk =   0.0034722
        k(  150) = (   0.0416667   0.2916667   0.3333333), wk =   0.0069444
        k(  151) = (   0.0416667   0.2916667   0.3750000), wk =   0.0069444
        k(  152) = (   0.0416667   0.2916667   0.4166667), wk =   0.0069444
        k(  153) = (   0.0416667   0.2916667   0.4583333), wk =   0.0069444
        k(  154) = (   0.0416667   0.2916667  -0.5000000), wk =   0.0034722
        k(  155) = (   0.0416667   0.3333333   0.3333333), wk =   0.0034722
        k(  156) = (   0.0416667   0.3333333   0.3750000), wk =   0.0069444
        k(  157) = (   0.0416667   0.3333333   0.4166667), wk =   0.0069444
        k(  158) = (   0.0416667   0.3333333   0.4583333), wk =   0.0069444
        k(  159) = (   0.0416667   0.3333333  -0.5000000), wk =   0.0034722
        k(  160) = (   0.0416667   0.3750000   0.3750000), wk =   0.0034722
        k(  161) = (   0.0416667   0.3750000   0.4166667), wk =   0.0069444
        k(  162) = (   0.0416667   0.3750000   0.4583333), wk =   0.0069444
        k(  163) = (   0.0416667   0.3750000  -0.5000000), wk =   0.0034722
        k(  164) = (   0.0416667   0.4166667   0.4166667), wk =   0.0034722
        k(  165) = (   0.0416667   0.4166667   0.4583333), wk =   0.0069444
        k(  166) = (   0.0416667   0.4166667  -0.5000000), wk =   0.0034722
        k(  167) = (   0.0416667   0.4583333   0.4583333), wk =   0.0034722
        k(  168) = (   0.0416667   0.4583333  -0.5000000), wk =   0.0034722
        k(  169) = (   0.0416667  -0.5000000  -0.5000000), wk =   0.0008681
        k(  170) = (   0.0833333   0.0833333   0.0833333), wk =   0.0011574
        k(  171) = (   0.0833333   0.0833333   0.1250000), wk =   0.0034722
        k(  172) = (   0.0833333   0.0833333   0.1666667), wk =   0.0034722
        k(  173) = (   0.0833333   0.0833333   0.2083333), wk =   0.0034722
        k(  174) = (   0.0833333   0.0833333   0.2500000), wk =   0.0034722
        k(  175) = (   0.0833333   0.0833333   0.2916667), wk =   0.0034722
        k(  176) = (   0.0833333   0.0833333   0.3333333), wk =   0.0034722
        k(  177) = (   0.0833333   0.0833333   0.3750000), wk =   0.0034722
        k(  178) = (   0.0833333   0.0833333   0.4166667), wk =   0.0034722
        k(  179) = (   0.0833333   0.0833333   0.4583333), wk =   0.0034722
        k(  180) = (   0.0833333   0.0833333  -0.5000000), wk =   0.0017361
        k(  181) = (   0.0833333   0.1250000   0.1250000), wk =   0.0034722
        k(  182) = (   0.0833333   0.1250000   0.1666667), wk =   0.0069444
        k(  183) = (   0.0833333   0.1250000   0.2083333), wk =   0.0069444
        k(  184) = (   0.0833333   0.1250000   0.2500000), wk =   0.0069444
        k(  185) = (   0.0833333   0.1250000   0.2916667), wk =   0.0069444
        k(  186) = (   0.0833333   0.1250000   0.3333333), wk =   0.0069444
        k(  187) = (   0.0833333   0.1250000   0.3750000), wk =   0.0069444
        k(  188) = (   0.0833333   0.1250000   0.4166667), wk =   0.0069444
        k(  189) = (   0.0833333   0.1250000   0.4583333), wk =   0.0069444
        k(  190) = (   0.0833333   0.1250000  -0.5000000), wk =   0.0034722
        k(  191) = (   0.0833333   0.1666667   0.1666667), wk =   0.0034722
        k(  192) = (   0.0833333   0.1666667   0.2083333), wk =   0.0069444
        k(  193) = (   0.0833333   0.1666667   0.2500000), wk =   0.0069444
        k(  194) = (   0.0833333   0.1666667   0.2916667), wk =   0.0069444
        k(  195) = (   0.0833333   0.1666667   0.3333333), wk =   0.0069444
        k(  196) = (   0.0833333   0.1666667   0.3750000), wk =   0.0069444
        k(  197) = (   0.0833333   0.1666667   0.4166667), wk =   0.0069444
        k(  198) = (   0.0833333   0.1666667   0.4583333), wk =   0.0069444
        k(  199) = (   0.0833333   0.1666667  -0.5000000), wk =   0.0034722
        k(  200) = (   0.0833333   0.2083333   0.2083333), wk =   0.0034722
        k(  201) = (   0.0833333   0.2083333   0.2500000), wk =   0.0069444
        k(  202) = (   0.0833333   0.2083333   0.2916667), wk =   0.0069444
        k(  203) = (   0.0833333   0.2083333   0.3333333), wk =   0.0069444
        k(  204) = (   0.0833333   0.2083333   0.3750000), wk =   0.0069444
        k(  205) = (   0.0833333   0.2083333   0.4166667), wk =   0.0069444
        k(  206) = (   0.0833333   0.2083333   0.4583333), wk =   0.0069444
        k(  207) = (   0.0833333   0.2083333  -0.5000000), wk =   0.0034722
        k(  208) = (   0.0833333   0.2500000   0.2500000), wk =   0.0034722
        k(  209) = (   0.0833333   0.2500000   0.2916667), wk =   0.0069444
        k(  210) = (   0.0833333   0.2500000   0.3333333), wk =   0.0069444
        k(  211) = (   0.0833333   0.2500000   0.3750000), wk =   0.0069444
        k(  212) = (   0.0833333   0.2500000   0.4166667), wk =   0.0069444
        k(  213) = (   0.0833333   0.2500000   0.4583333), wk =   0.0069444
        k(  214) = (   0.0833333   0.2500000  -0.5000000), wk =   0.0034722
        k(  215) = (   0.0833333   0.2916667   0.2916667), wk =   0.0034722
        k(  216) = (   0.0833333   0.2916667   0.3333333), wk =   0.0069444
        k(  217) = (   0.0833333   0.2916667   0.3750000), wk =   0.0069444
        k(  218) = (   0.0833333   0.2916667   0.4166667), wk =   0.0069444
        k(  219) = (   0.0833333   0.2916667   0.4583333), wk =   0.0069444
        k(  220) = (   0.0833333   0.2916667  -0.5000000), wk =   0.0034722
        k(  221) = (   0.0833333   0.3333333   0.3333333), wk =   0.0034722
        k(  222) = (   0.0833333   0.3333333   0.3750000), wk =   0.0069444
        k(  223) = (   0.0833333   0.3333333   0.4166667), wk =   0.0069444
        k(  224) = (   0.0833333   0.3333333   0.4583333), wk =   0.0069444
        k(  225) = (   0.0833333   0.3333333  -0.5000000), wk =   0.0034722
        k(  226) = (   0.0833333   0.3750000   0.3750000), wk =   0.0034722
        k(  227) = (   0.0833333   0.3750000   0.4166667), wk =   0.0069444
        k(  228) = (   0.0833333   0.3750000   0.4583333), wk =   0.0069444
        k(  229) = (   0.0833333   0.3750000  -0.5000000), wk =   0.0034722
        k(  230) = (   0.0833333   0.4166667   0.4166667), wk =   0.0034722
        k(  231) = (   0.0833333   0.4166667   0.4583333), wk =   0.0069444
        k(  232) = (   0.0833333   0.4166667  -0.5000000), wk =   0.0034722
        k(  233) = (   0.0833333   0.4583333   0.4583333), wk =   0.0034722
        k(  234) = (   0.0833333   0.4583333  -0.5000000), wk =   0.0034722
        k(  235) = (   0.0833333  -0.5000000  -0.5000000), wk =   0.0008681
        k(  236) = (   0.1250000   0.1250000   0.1250000), wk =   0.0011574
        k(  237) = (   0.1250000   0.1250000   0.1666667), wk =   0.0034722
        k(  238) = (   0.1250000   0.1250000   0.2083333), wk =   0.0034722
        k(  239) = (   0.1250000   0.1250000   0.2500000), wk =   0.0034722
        k(  240) = (   0.1250000   0.1250000   0.2916667), wk =   0.0034722
        k(  241) = (   0.1250000   0.1250000   0.3333333), wk =   0.0034722
        k(  242) = (   0.1250000   0.1250000   0.3750000), wk =   0.0034722
        k(  243) = (   0.1250000   0.1250000   0.4166667), wk =   0.0034722
        k(  244) = (   0.1250000   0.1250000   0.4583333), wk =   0.0034722
        k(  245) = (   0.1250000   0.1250000  -0.5000000), wk =   0.0017361
        k(  246) = (   0.1250000   0.1666667   0.1666667), wk =   0.0034722
        k(  247) = (   0.1250000   0.1666667   0.2083333), wk =   0.0069444
        k(  248) = (   0.1250000   0.1666667   0.2500000), wk =   0.0069444
        k(  249) = (   0.1250000   0.1666667   0.2916667), wk =   0.0069444
        k(  250) = (   0.1250000   0.1666667   0.3333333), wk =   0.0069444
        k(  251) = (   0.1250000   0.1666667   0.3750000), wk =   0.0069444
        k(  252) = (   0.1250000   0.1666667   0.4166667), wk =   0.0069444
        k(  253) = (   0.1250000   0.1666667   0.4583333), wk =   0.0069444
        k(  254) = (   0.1250000   0.1666667  -0.5000000), wk =   0.0034722
        k(  255) = (   0.1250000   0.2083333   0.2083333), wk =   0.0034722
        k(  256) = (   0.1250000   0.2083333   0.2500000), wk =   0.0069444
        k(  257) = (   0.1250000   0.2083333   0.2916667), wk =   0.0069444
        k(  258) = (   0.1250000   0.2083333   0.3333333), wk =   0.0069444
        k(  259) = (   0.1250000   0.2083333   0.3750000), wk =   0.0069444
        k(  260) = (   0.1250000   0.2083333   0.4166667), wk =   0.0069444
        k(  261) = (   0.1250000   0.2083333   0.4583333), wk =   0.0069444
        k(  262) = (   0.1250000   0.2083333  -0.5000000), wk =   0.0034722
        k(  263) = (   0.1250000   0.2500000   0.2500000), wk =   0.0034722
        k(  264) = (   0.1250000   0.2500000   0.2916667), wk =   0.0069444
        k(  265) = (   0.1250000   0.2500000   0.3333333), wk =   0.0069444
        k(  266) = (   0.1250000   0.2500000   0.3750000), wk =   0.0069444
        k(  267) = (   0.1250000   0.2500000   0.4166667), wk =   0.0069444
        k(  268) = (   0.1250000   0.2500000   0.4583333), wk =   0.0069444
        k(  269) = (   0.1250000   0.2500000  -0.5000000), wk =   0.0034722
        k(  270) = (   0.1250000   0.2916667   0.2916667), wk =   0.0034722
        k(  271) = (   0.1250000   0.2916667   0.3333333), wk =   0.0069444
        k(  272) = (   0.1250000   0.2916667   0.3750000), wk =   0.0069444
        k(  273) = (   0.1250000   0.2916667   0.4166667), wk =   0.0069444
        k(  274) = (   0.1250000   0.2916667   0.4583333), wk =   0.0069444
        k(  275) = (   0.1250000   0.2916667  -0.5000000), wk =   0.0034722
        k(  276) = (   0.1250000   0.3333333   0.3333333), wk =   0.0034722
        k(  277) = (   0.1250000   0.3333333   0.3750000), wk =   0.0069444
        k(  278) = (   0.1250000   0.3333333   0.4166667), wk =   0.0069444
        k(  279) = (   0.1250000   0.3333333   0.4583333), wk =   0.0069444
        k(  280) = (   0.1250000   0.3333333  -0.5000000), wk =   0.0034722
        k(  281) = (   0.1250000   0.3750000   0.3750000), wk =   0.0034722
        k(  282) = (   0.1250000   0.3750000   0.4166667), wk =   0.0069444
        k(  283) = (   0.1250000   0.3750000   0.4583333), wk =   0.0069444
        k(  284) = (   0.1250000   0.3750000  -0.5000000), wk =   0.0034722
        k(  285) = (   0.1250000   0.4166667   0.4166667), wk =   0.0034722
        k(  286) = (   0.1250000   0.4166667   0.4583333), wk =   0.0069444
        k(  287) = (   0.1250000   0.4166667  -0.5000000), wk =   0.0034722
        k(  288) = (   0.1250000   0.4583333   0.4583333), wk =   0.0034722
        k(  289) = (   0.1250000   0.4583333  -0.5000000), wk =   0.0034722
        k(  290) = (   0.1250000  -0.5000000  -0.5000000), wk =   0.0008681
        k(  291) = (   0.1666667   0.1666667   0.1666667), wk =   0.0011574
        k(  292) = (   0.1666667   0.1666667   0.2083333), wk =   0.0034722
        k(  293) = (   0.1666667   0.1666667   0.2500000), wk =   0.0034722
        k(  294) = (   0.1666667   0.1666667   0.2916667), wk =   0.0034722
        k(  295) = (   0.1666667   0.1666667   0.3333333), wk =   0.0034722
        k(  296) = (   0.1666667   0.1666667   0.3750000), wk =   0.0034722
        k(  297) = (   0.1666667   0.1666667   0.4166667), wk =   0.0034722
        k(  298) = (   0.1666667   0.1666667   0.4583333), wk =   0.0034722
        k(  299) = (   0.1666667   0.1666667  -0.5000000), wk =   0.0017361
        k(  300) = (   0.1666667   0.2083333   0.2083333), wk =   0.0034722
        k(  301) = (   0.1666667   0.2083333   0.2500000), wk =   0.0069444
        k(  302) = (   0.1666667   0.2083333   0.2916667), wk =   0.0069444
        k(  303) = (   0.1666667   0.2083333   0.3333333), wk =   0.0069444
        k(  304) = (   0.1666667   0.2083333   0.3750000), wk =   0.0069444
        k(  305) = (   0.1666667   0.2083333   0.4166667), wk =   0.0069444
        k(  306) = (   0.1666667   0.2083333   0.4583333), wk =   0.0069444
        k(  307) = (   0.1666667   0.2083333  -0.5000000), wk =   0.0034722
        k(  308) = (   0.1666667   0.2500000   0.2500000), wk =   0.0034722
        k(  309) = (   0.1666667   0.2500000   0.2916667), wk =   0.0069444
        k(  310) = (   0.1666667   0.2500000   0.3333333), wk =   0.0069444
        k(  311) = (   0.1666667   0.2500000   0.3750000), wk =   0.0069444
        k(  312) = (   0.1666667   0.2500000   0.4166667), wk =   0.0069444
        k(  313) = (   0.1666667   0.2500000   0.4583333), wk =   0.0069444
        k(  314) = (   0.1666667   0.2500000  -0.5000000), wk =   0.0034722
        k(  315) = (   0.1666667   0.2916667   0.2916667), wk =   0.0034722
        k(  316) = (   0.1666667   0.2916667   0.3333333), wk =   0.0069444
        k(  317) = (   0.1666667   0.2916667   0.3750000), wk =   0.0069444
        k(  318) = (   0.1666667   0.2916667   0.4166667), wk =   0.0069444
        k(  319) = (   0.1666667   0.2916667   0.4583333), wk =   0.0069444
        k(  320) = (   0.1666667   0.2916667  -0.5000000), wk =   0.0034722
        k(  321) = (   0.1666667   0.3333333   0.3333333), wk =   0.0034722
        k(  322) = (   0.1666667   0.3333333   0.3750000), wk =   0.0069444
        k(  323) = (   0.1666667   0.3333333   0.4166667), wk =   0.0069444
        k(  324) = (   0.1666667   0.3333333   0.4583333), wk =   0.0069444
        k(  325) = (   0.1666667   0.3333333  -0.5000000), wk =   0.0034722
        k(  326) = (   0.1666667   0.3750000   0.3750000), wk =   0.0034722
        k(  327) = (   0.1666667   0.3750000   0.4166667), wk =   0.0069444
        k(  328) = (   0.1666667   0.3750000   0.4583333), wk =   0.0069444
        k(  329) = (   0.1666667   0.3750000  -0.5000000), wk =   0.0034722
        k(  330) = (   0.1666667   0.4166667   0.4166667), wk =   0.0034722
        k(  331) = (   0.1666667   0.4166667   0.4583333), wk =   0.0069444
        k(  332) = (   0.1666667   0.4166667  -0.5000000), wk =   0.0034722
        k(  333) = (   0.1666667   0.4583333   0.4583333), wk =   0.0034722
        k(  334) = (   0.1666667   0.4583333  -0.5000000), wk =   0.0034722
        k(  335) = (   0.1666667  -0.5000000  -0.5000000), wk =   0.0008681
        k(  336) = (   0.2083333   0.2083333   0.2083333), wk =   0.0011574
        k(  337) = (   0.2083333   0.2083333   0.2500000), wk =   0.0034722
        k(  338) = (   0.2083333   0.2083333   0.2916667), wk =   0.0034722
        k(  339) = (   0.2083333   0.2083333   0.3333333), wk =   0.0034722
        k(  340) = (   0.2083333   0.2083333   0.3750000), wk =   0.0034722
        k(  341) = (   0.2083333   0.2083333   0.4166667), wk =   0.0034722
        k(  342) = (   0.2083333   0.2083333   0.4583333), wk =   0.0034722
        k(  343) = (   0.2083333   0.2083333  -0.5000000), wk =   0.0017361
        k(  344) = (   0.2083333   0.2500000   0.2500000), wk =   0.0034722
        k(  345) = (   0.2083333   0.2500000   0.2916667), wk =   0.0069444
        k(  346) = (   0.2083333   0.2500000   0.3333333), wk =   0.0069444
        k(  347) = (   0.2083333   0.2500000   0.3750000), wk =   0.0069444
        k(  348) = (   0.2083333   0.2500000   0.4166667), wk =   0.0069444
        k(  349) = (   0.2083333   0.2500000   0.4583333), wk =   0.0069444
        k(  350) = (   0.2083333   0.2500000  -0.5000000), wk =   0.0034722
        k(  351) = (   0.2083333   0.2916667   0.2916667), wk =   0.0034722
        k(  352) = (   0.2083333   0.2916667   0.3333333), wk =   0.0069444
        k(  353) = (   0.2083333   0.2916667   0.3750000), wk =   0.0069444
        k(  354) = (   0.2083333   0.2916667   0.4166667), wk =   0.0069444
        k(  355) = (   0.2083333   0.2916667   0.4583333), wk =   0.0069444
        k(  356) = (   0.2083333   0.2916667  -0.5000000), wk =   0.0034722
        k(  357) = (   0.2083333   0.3333333   0.3333333), wk =   0.0034722
        k(  358) = (   0.2083333   0.3333333   0.3750000), wk =   0.0069444
        k(  359) = (   0.2083333   0.3333333   0.4166667), wk =   0.0069444
        k(  360) = (   0.2083333   0.3333333   0.4583333), wk =   0.0069444
        k(  361) = (   0.2083333   0.3333333  -0.5000000), wk =   0.0034722
        k(  362) = (   0.2083333   0.3750000   0.3750000), wk =   0.0034722
        k(  363) = (   0.2083333   0.3750000   0.4166667), wk =   0.0069444
        k(  364) = (   0.2083333   0.3750000   0.4583333), wk =   0.0069444
        k(  365) = (   0.2083333   0.3750000  -0.5000000), wk =   0.0034722
        k(  366) = (   0.2083333   0.4166667   0.4166667), wk =   0.0034722
        k(  367) = (   0.2083333   0.4166667   0.4583333), wk =   0.0069444
        k(  368) = (   0.2083333   0.4166667  -0.5000000), wk =   0.0034722
        k(  369) = (   0.2083333   0.4583333   0.4583333), wk =   0.0034722
        k(  370) = (   0.2083333   0.4583333  -0.5000000), wk =   0.0034722
        k(  371) = (   0.2083333  -0.5000000  -0.5000000), wk =   0.0008681
        k(  372) = (   0.2500000   0.2500000   0.2500000), wk =   0.0011574
        k(  373) = (   0.2500000   0.2500000   0.2916667), wk =   0.0034722
        k(  374) = (   0.2500000   0.2500000   0.3333333), wk =   0.0034722
        k(  375) = (   0.2500000   0.2500000   0.3750000), wk =   0.0034722
        k(  376) = (   0.2500000   0.2500000   0.4166667), wk =   0.0034722
        k(  377) = (   0.2500000   0.2500000   0.4583333), wk =   0.0034722
        k(  378) = (   0.2500000   0.2500000  -0.5000000), wk =   0.0017361
        k(  379) = (   0.2500000   0.2916667   0.2916667), wk =   0.0034722
        k(  380) = (   0.2500000   0.2916667   0.3333333), wk =   0.0069444
        k(  381) = (   0.2500000   0.2916667   0.3750000), wk =   0.0069444
        k(  382) = (   0.2500000   0.2916667   0.4166667), wk =   0.0069444
        k(  383) = (   0.2500000   0.2916667   0.4583333), wk =   0.0069444
        k(  384) = (   0.2500000   0.2916667  -0.5000000), wk =   0.0034722
        k(  385) = (   0.2500000   0.3333333   0.3333333), wk =   0.0034722
        k(  386) = (   0.2500000   0.3333333   0.3750000), wk =   0.0069444
        k(  387) = (   0.2500000   0.3333333   0.4166667), wk =   0.0069444
        k(  388) = (   0.2500000   0.3333333   0.4583333), wk =   0.0069444
        k(  389) = (   0.2500000   0.3333333  -0.5000000), wk =   0.0034722
        k(  390) = (   0.2500000   0.3750000   0.3750000), wk =   0.0034722
        k(  391) = (   0.2500000   0.3750000   0.4166667), wk =   0.0069444
        k(  392) = (   0.2500000   0.3750000   0.4583333), wk =   0.0069444
        k(  393) = (   0.2500000   0.3750000  -0.5000000), wk =   0.0034722
        k(  394) = (   0.2500000   0.4166667   0.4166667), wk =   0.0034722
        k(  395) = (   0.2500000   0.4166667   0.4583333), wk =   0.0069444
        k(  396) = (   0.2500000   0.4166667  -0.5000000), wk =   0.0034722
        k(  397) = (   0.2500000   0.4583333   0.4583333), wk =   0.0034722
        k(  398) = (   0.2500000   0.4583333  -0.5000000), wk =   0.0034722
        k(  399) = (   0.2500000  -0.5000000  -0.5000000), wk =   0.0008681
        k(  400) = (   0.2916667   0.2916667   0.2916667), wk =   0.0011574
        k(  401) = (   0.2916667   0.2916667   0.3333333), wk =   0.0034722
        k(  402) = (   0.2916667   0.2916667   0.3750000), wk =   0.0034722
        k(  403) = (   0.2916667   0.2916667   0.4166667), wk =   0.0034722
        k(  404) = (   0.2916667   0.2916667   0.4583333), wk =   0.0034722
        k(  405) = (   0.2916667   0.2916667  -0.5000000), wk =   0.0017361
        k(  406) = (   0.2916667   0.3333333   0.3333333), wk =   0.0034722
        k(  407) = (   0.2916667   0.3333333   0.3750000), wk =   0.0069444
        k(  408) = (   0.2916667   0.3333333   0.4166667), wk =   0.0069444
        k(  409) = (   0.2916667   0.3333333   0.4583333), wk =   0.0069444
        k(  410) = (   0.2916667   0.3333333  -0.5000000), wk =   0.0034722
        k(  411) = (   0.2916667   0.3750000   0.3750000), wk =   0.0034722
        k(  412) = (   0.2916667   0.3750000   0.4166667), wk =   0.0069444
        k(  413) = (   0.2916667   0.3750000   0.4583333), wk =   0.0069444
        k(  414) = (   0.2916667   0.3750000  -0.5000000), wk =   0.0034722
        k(  415) = (   0.2916667   0.4166667   0.4166667), wk =   0.0034722
        k(  416) = (   0.2916667   0.4166667   0.4583333), wk =   0.0069444
        k(  417) = (   0.2916667   0.4166667  -0.5000000), wk =   0.0034722
        k(  418) = (   0.2916667   0.4583333   0.4583333), wk =   0.0034722
        k(  419) = (   0.2916667   0.4583333  -0.5000000), wk =   0.0034722
        k(  420) = (   0.2916667  -0.5000000  -0.5000000), wk =   0.0008681
        k(  421) = (   0.3333333   0.3333333   0.3333333), wk =   0.0011574
        k(  422) = (   0.3333333   0.3333333   0.3750000), wk =   0.0034722
        k(  423) = (   0.3333333   0.3333333   0.4166667), wk =   0.0034722
        k(  424) = (   0.3333333   0.3333333   0.4583333), wk =   0.0034722
        k(  425) = (   0.3333333   0.3333333  -0.5000000), wk =   0.0017361
        k(  426) = (   0.3333333   0.3750000   0.3750000), wk =   0.0034722
        k(  427) = (   0.3333333   0.3750000   0.4166667), wk =   0.0069444
        k(  428) = (   0.3333333   0.3750000   0.4583333), wk =   0.0069444
        k(  429) = (   0.3333333   0.3750000  -0.5000000), wk =   0.0034722
        k(  430) = (   0.3333333   0.4166667   0.4166667), wk =   0.0034722
        k(  431) = (   0.3333333   0.4166667   0.4583333), wk =   0.0069444
        k(  432) = (   0.3333333   0.4166667  -0.5000000), wk =   0.0034722
        k(  433) = (   0.3333333   0.4583333   0.4583333), wk =   0.0034722
        k(  434) = (   0.3333333   0.4583333  -0.5000000), wk =   0.0034722
        k(  435) = (   0.3333333  -0.5000000  -0.5000000), wk =   0.0008681
        k(  436) = (   0.3750000   0.3750000   0.3750000), wk =   0.0011574
        k(  437) = (   0.3750000   0.3750000   0.4166667), wk =   0.0034722
        k(  438) = (   0.3750000   0.3750000   0.4583333), wk =   0.0034722
        k(  439) = (   0.3750000   0.3750000  -0.5000000), wk =   0.0017361
        k(  440) = (   0.3750000   0.4166667   0.4166667), wk =   0.0034722
        k(  441) = (   0.3750000   0.4166667   0.4583333), wk =   0.0069444
        k(  442) = (   0.3750000   0.4166667  -0.5000000), wk =   0.0034722
        k(  443) = (   0.3750000   0.4583333   0.4583333), wk =   0.0034722
        k(  444) = (   0.3750000   0.4583333  -0.5000000), wk =   0.0034722
        k(  445) = (   0.3750000  -0.5000000  -0.5000000), wk =   0.0008681
        k(  446) = (   0.4166667   0.4166667   0.4166667), wk =   0.0011574
        k(  447) = (   0.4166667   0.4166667   0.4583333), wk =   0.0034722
        k(  448) = (   0.4166667   0.4166667  -0.5000000), wk =   0.0017361
        k(  449) = (   0.4166667   0.4583333   0.4583333), wk =   0.0034722
        k(  450) = (   0.4166667   0.4583333  -0.5000000), wk =   0.0034722
        k(  451) = (   0.4166667  -0.5000000  -0.5000000), wk =   0.0008681
        k(  452) = (   0.4583333   0.4583333   0.4583333), wk =   0.0011574
        k(  453) = (   0.4583333   0.4583333  -0.5000000), wk =   0.0017361
        k(  454) = (   0.4583333  -0.5000000  -0.5000000), wk =   0.0008681
        k(  455) = (  -0.5000000  -0.5000000  -0.5000000), wk =   0.0001447

                       cryst. coord.
        k(    1) = (   0.0000000   0.0000000   0.0000000), wk =   0.0001447
        k(    2) = (   0.0000000   0.0000000   0.0416667), wk =   0.0008681
        k(    3) = (   0.0000000   0.0000000   0.0833333), wk =   0.0008681
        k(    4) = (   0.0000000   0.0000000   0.1250000), wk =   0.0008681
        k(    5) = (   0.0000000   0.0000000   0.1666667), wk =   0.0008681
        k(    6) = (   0.0000000   0.0000000   0.2083333), wk =   0.0008681
        k(    7) = (   0.0000000   0.0000000   0.2500000), wk =   0.0008681
        k(    8) = (   0.0000000   0.0000000   0.2916667), wk =   0.0008681
        k(    9) = (   0.0000000   0.0000000   0.3333333), wk =   0.0008681
        k(   10) = (   0.0000000   0.0000000   0.3750000), wk =   0.0008681
        k(   11) = (   0.0000000   0.0000000   0.4166667), wk =   0.0008681
        k(   12) = (   0.0000000   0.0000000   0.4583333), wk =   0.0008681
        k(   13) = (   0.0000000   0.0000000  -0.5000000), wk =   0.0004340
        k(   14) = (   0.0000000   0.0416667   0.0416667), wk =   0.0017361
        k(   15) = (   0.0000000   0.0416667   0.0833333), wk =   0.0034722
        k(   16) = (   0.0000000   0.0416667   0.1250000), wk =   0.0034722
        k(   17) = (   0.0000000   0.0416667   0.1666667), wk =   0.0034722
        k(   18) = (   0.0000000   0.0416667   0.2083333), wk =   0.0034722
        k(   19) = (   0.0000000   0.0416667   0.2500000), wk =   0.0034722
        k(   20) = (   0.0000000   0.0416667   0.2916667), wk =   0.0034722
        k(   21) = (   0.0000000   0.0416667   0.3333333), wk =   0.0034722
        k(   22) = (   0.0000000   0.0416667   0.3750000), wk =   0.0034722
        k(   23) = (   0.0000000   0.0416667   0.4166667), wk =   0.0034722
        k(   24) = (   0.0000000   0.0416667   0.4583333), wk =   0.0034722
        k(   25) = (   0.0000000   0.0416667  -0.5000000), wk =   0.0017361
        k(   26) = (   0.0000000   0.0833333   0.0833333), wk =   0.0017361
        k(   27) = (   0.0000000   0.0833333   0.1250000), wk =   0.0034722
        k(   28) = (   0.0000000   0.0833333   0.1666667), wk =   0.0034722
        k(   29) = (   0.0000000   0.0833333   0.2083333), wk =   0.0034722
        k(   30) = (   0.0000000   0.0833333   0.2500000), wk =   0.0034722
        k(   31) = (   0.0000000   0.0833333   0.2916667), wk =   0.0034722
        k(   32) = (   0.0000000   0.0833333   0.3333333), wk =   0.0034722
        k(   33) = (   0.0000000   0.0833333   0.3750000), wk =   0.0034722
        k(   34) = (   0.0000000   0.0833333   0.4166667), wk =   0.0034722
        k(   35) = (   0.0000000   0.0833333   0.4583333), wk =   0.0034722
        k(   36) = (   0.0000000   0.0833333  -0.5000000), wk =   0.0017361
        k(   37) = (   0.0000000   0.1250000   0.1250000), wk =   0.0017361
        k(   38) = (   0.0000000   0.1250000   0.1666667), wk =   0.0034722
        k(   39) = (   0.0000000   0.1250000   0.2083333), wk =   0.0034722
        k(   40) = (   0.0000000   0.1250000   0.2500000), wk =   0.0034722
        k(   41) = (   0.0000000   0.1250000   0.2916667), wk =   0.0034722
        k(   42) = (   0.0000000   0.1250000   0.3333333), wk =   0.0034722
        k(   43) = (   0.0000000   0.1250000   0.3750000), wk =   0.0034722
        k(   44) = (   0.0000000   0.1250000   0.4166667), wk =   0.0034722
        k(   45) = (   0.0000000   0.1250000   0.4583333), wk =   0.0034722
        k(   46) = (   0.0000000   0.1250000  -0.5000000), wk =   0.0017361
        k(   47) = (   0.0000000   0.1666667   0.1666667), wk =   0.0017361
        k(   48) = (   0.0000000   0.1666667   0.2083333), wk =   0.0034722
        k(   49) = (   0.0000000   0.1666667   0.2500000), wk =   0.0034722
        k(   50) = (   0.0000000   0.1666667   0.2916667), wk =   0.0034722
        k(   51) = (   0.0000000   0.1666667   0.3333333), wk =   0.0034722
        k(   52) = (   0.0000000   0.1666667   0.3750000), wk =   0.0034722
        k(   53) = (   0.0000000   0.1666667   0.4166667), wk =   0.0034722
        k(   54) = (   0.0000000   0.1666667   0.4583333), wk =   0.0034722
        k(   55) = (   0.0000000   0.1666667  -0.5000000), wk =   0.0017361
        k(   56) = (   0.0000000   0.2083333   0.2083333), wk =   0.0017361
        k(   57) = (   0.0000000   0.2083333   0.2500000), wk =   0.0034722
        k(   58) = (   0.0000000   0.2083333   0.2916667), wk =   0.0034722
        k(   59) = (   0.0000000   0.2083333   0.3333333), wk =   0.0034722
        k(   60) = (   0.0000000   0.2083333   0.3750000), wk =   0.0034722
        k(   61) = (   0.0000000   0.2083333   0.4166667), wk =   0.0034722
        k(   62) = (   0.0000000   0.2083333   0.4583333), wk =   0.0034722
        k(   63) = (   0.0000000   0.2083333  -0.5000000), wk =   0.0017361
        k(   64) = (   0.0000000   0.2500000   0.2500000), wk =   0.0017361
        k(   65) = (   0.0000000   0.2500000   0.2916667), wk =   0.0034722
        k(   66) = (   0.0000000   0.2500000   0.3333333), wk =   0.0034722
        k(   67) = (   0.0000000   0.2500000   0.3750000), wk =   0.0034722
        k(   68) = (   0.0000000   0.2500000   0.4166667), wk =   0.0034722
        k(   69) = (   0.0000000   0.2500000   0.4583333), wk =   0.0034722
        k(   70) = (   0.0000000   0.2500000  -0.5000000), wk =   0.0017361
        k(   71) = (   0.0000000   0.2916667   0.2916667), wk =   0.0017361
        k(   72) = (   0.0000000   0.2916667   0.3333333), wk =   0.0034722
        k(   73) = (   0.0000000   0.2916667   0.3750000), wk =   0.0034722
        k(   74) = (   0.0000000   0.2916667   0.4166667), wk =   0.0034722
        k(   75) = (   0.0000000   0.2916667   0.4583333), wk =   0.0034722
        k(   76) = (   0.0000000   0.2916667  -0.5000000), wk =   0.0017361
        k(   77) = (   0.0000000   0.3333333   0.3333333), wk =   0.0017361
        k(   78) = (   0.0000000   0.3333333   0.3750000), wk =   0.0034722
        k(   79) = (   0.0000000   0.3333333   0.4166667), wk =   0.0034722
        k(   80) = (   0.0000000   0.3333333   0.4583333), wk =   0.0034722
        k(   81) = (   0.0000000   0.3333333  -0.5000000), wk =   0.0017361
        k(   82) = (   0.0000000   0.3750000   0.3750000), wk =   0.0017361
        k(   83) = (   0.0000000   0.3750000   0.4166667), wk =   0.0034722
        k(   84) = (   0.0000000   0.3750000   0.4583333), wk =   0.0034722
        k(   85) = (   0.0000000   0.3750000  -0.5000000), wk =   0.0017361
        k(   86) = (   0.0000000   0.4166667   0.4166667), wk =   0.0017361
        k(   87) = (   0.0000000   0.4166667   0.4583333), wk =   0.0034722
        k(   88) = (   0.0000000   0.4166667  -0.5000000), wk =   0.0017361
        k(   89) = (   0.0000000   0.4583333   0.4583333), wk =   0.0017361
        k(   90) = (   0.0000000   0.4583333  -0.5000000), wk =   0.0017361
        k(   91) = (   0.0000000  -0.5000000  -0.5000000), wk =   0.0004340
        k(   92) = (   0.0416667   0.0416667   0.0416667), wk =   0.0011574
        k(   93) = (   0.0416667   0.0416667   0.0833333), wk =   0.0034722
        k(   94) = (   0.0416667   0.0416667   0.1250000), wk =   0.0034722
        k(   95) = (   0.0416667   0.0416667   0.1666667), wk =   0.0034722
        k(   96) = (   0.0416667   0.0416667   0.2083333), wk =   0.0034722
        k(   97) = (   0.0416667   0.0416667   0.2500000), wk =   0.0034722
        k(   98) = (   0.0416667   0.0416667   0.2916667), wk =   0.0034722
        k(   99) = (   0.0416667   0.0416667   0.3333333), wk =   0.0034722
        k(  100) = (   0.0416667   0.0416667   0.3750000), wk =   0.0034722
        k(  101) = (   0.0416667   0.0416667   0.4166667), wk =   0.0034722
        k(  102) = (   0.0416667   0.0416667   0.4583333), wk =   0.0034722
        k(  103) = (   0.0416667   0.0416667  -0.5000000), wk =   0.0017361
        k(  104) = (   0.0416667   0.0833333   0.0833333), wk =   0.0034722
        k(  105) = (   0.0416667   0.0833333   0.1250000), wk =   0.0069444
        k(  106) = (   0.0416667   0.0833333   0.1666667), wk =   0.0069444
        k(  107) = (   0.0416667   0.0833333   0.2083333), wk =   0.0069444
        k(  108) = (   0.0416667   0.0833333   0.2500000), wk =   0.0069444
        k(  109) = (   0.0416667   0.0833333   0.2916667), wk =   0.0069444
        k(  110) = (   0.0416667   0.0833333   0.3333333), wk =   0.0069444
        k(  111) = (   0.0416667   0.0833333   0.3750000), wk =   0.0069444
        k(  112) = (   0.0416667   0.0833333   0.4166667), wk =   0.0069444
        k(  113) = (   0.0416667   0.0833333   0.4583333), wk =   0.0069444
        k(  114) = (   0.0416667   0.0833333  -0.5000000), wk =   0.0034722
        k(  115) = (   0.0416667   0.1250000   0.1250000), wk =   0.0034722
        k(  116) = (   0.0416667   0.1250000   0.1666667), wk =   0.0069444
        k(  117) = (   0.0416667   0.1250000   0.2083333), wk =   0.0069444
        k(  118) = (   0.0416667   0.1250000   0.2500000), wk =   0.0069444
        k(  119) = (   0.0416667   0.1250000   0.2916667), wk =   0.0069444
        k(  120) = (   0.0416667   0.1250000   0.3333333), wk =   0.0069444
        k(  121) = (   0.0416667   0.1250000   0.3750000), wk =   0.0069444
        k(  122) = (   0.0416667   0.1250000   0.4166667), wk =   0.0069444
        k(  123) = (   0.0416667   0.1250000   0.4583333), wk =   0.0069444
        k(  124) = (   0.0416667   0.1250000  -0.5000000), wk =   0.0034722
        k(  125) = (   0.0416667   0.1666667   0.1666667), wk =   0.0034722
        k(  126) = (   0.0416667   0.1666667   0.2083333), wk =   0.0069444
        k(  127) = (   0.0416667   0.1666667   0.2500000), wk =   0.0069444
        k(  128) = (   0.0416667   0.1666667   0.2916667), wk =   0.0069444
        k(  129) = (   0.0416667   0.1666667   0.3333333), wk =   0.0069444
        k(  130) = (   0.0416667   0.1666667   0.3750000), wk =   0.0069444
        k(  131) = (   0.0416667   0.1666667   0.4166667), wk =   0.0069444
        k(  132) = (   0.0416667   0.1666667   0.4583333), wk =   0.0069444
        k(  133) = (   0.0416667   0.1666667  -0.5000000), wk =   0.0034722
        k(  134) = (   0.0416667   0.2083333   0.2083333), wk =   0.0034722
        k(  135) = (   0.0416667   0.2083333   0.2500000), wk =   0.0069444
        k(  136) = (   0.0416667   0.2083333   0.2916667), wk =   0.0069444
        k(  137) = (   0.0416667   0.2083333   0.3333333), wk =   0.0069444
        k(  138) = (   0.0416667   0.2083333   0.3750000), wk =   0.0069444
        k(  139) = (   0.0416667   0.2083333   0.4166667), wk =   0.0069444
        k(  140) = (   0.0416667   0.2083333   0.4583333), wk =   0.0069444
        k(  141) = (   0.0416667   0.2083333  -0.5000000), wk =   0.0034722
        k(  142) = (   0.0416667   0.2500000   0.2500000), wk =   0.0034722
        k(  143) = (   0.0416667   0.2500000   0.2916667), wk =   0.0069444
        k(  144) = (   0.0416667   0.2500000   0.3333333), wk =   0.0069444
        k(  145) = (   0.0416667   0.2500000   0.3750000), wk =   0.0069444
        k(  146) = (   0.0416667   0.2500000   0.4166667), wk =   0.0069444
        k(  147) = (   0.0416667   0.2500000   0.4583333), wk =   0.0069444
        k(  148) = (   0.0416667   0.2500000  -0.5000000), wk =   0.0034722
        k(  149) = (   0.0416667   0.2916667   0.2916667), wk =   0.0034722
        k(  150) = (   0.0416667   0.2916667   0.3333333), wk =   0.0069444
        k(  151) = (   0.0416667   0.2916667   0.3750000), wk =   0.0069444
        k(  152) = (   0.0416667   0.2916667   0.4166667), wk =   0.0069444
        k(  153) = (   0.0416667   0.2916667   0.4583333), wk =   0.0069444
        k(  154) = (   0.0416667   0.2916667  -0.5000000), wk =   0.0034722
        k(  155) = (   0.0416667   0.3333333   0.3333333), wk =   0.0034722
        k(  156) = (   0.0416667   0.3333333   0.3750000), wk =   0.0069444
        k(  157) = (   0.0416667   0.3333333   0.4166667), wk =   0.0069444
        k(  158) = (   0.0416667   0.3333333   0.4583333), wk =   0.0069444
        k(  159) = (   0.0416667   0.3333333  -0.5000000), wk =   0.0034722
        k(  160) = (   0.0416667   0.3750000   0.3750000), wk =   0.0034722
        k(  161) = (   0.0416667   0.3750000   0.4166667), wk =   0.0069444
        k(  162) = (   0.0416667   0.3750000   0.4583333), wk =   0.0069444
        k(  163) = (   0.0416667   0.3750000  -0.5000000), wk =   0.0034722
        k(  164) = (   0.0416667   0.4166667   0.4166667), wk =   0.0034722
        k(  165) = (   0.0416667   0.4166667   0.4583333), wk =   0.0069444
        k(  166) = (   0.0416667   0.4166667  -0.5000000), wk =   0.0034722
        k(  167) = (   0.0416667   0.4583333   0.4583333), wk =   0.0034722
        k(  168) = (   0.0416667   0.4583333  -0.5000000), wk =   0.0034722
        k(  169) = (   0.0416667  -0.5000000  -0.5000000), wk =   0.0008681
        k(  170) = (   0.0833333   0.0833333   0.0833333), wk =   0.0011574
        k(  171) = (   0.0833333   0.0833333   0.1250000), wk =   0.0034722
        k(  172) = (   0.0833333   0.0833333   0.1666667), wk =   0.0034722
        k(  173) = (   0.0833333   0.0833333   0.2083333), wk =   0.0034722
        k(  174) = (   0.0833333   0.0833333   0.2500000), wk =   0.0034722
        k(  175) = (   0.0833333   0.0833333   0.2916667), wk =   0.0034722
        k(  176) = (   0.0833333   0.0833333   0.3333333), wk =   0.0034722
        k(  177) = (   0.0833333   0.0833333   0.3750000), wk =   0.0034722
        k(  178) = (   0.0833333   0.0833333   0.4166667), wk =   0.0034722
        k(  179) = (   0.0833333   0.0833333   0.4583333), wk =   0.0034722
        k(  180) = (   0.0833333   0.0833333  -0.5000000), wk =   0.0017361
        k(  181) = (   0.0833333   0.1250000   0.1250000), wk =   0.0034722
        k(  182) = (   0.0833333   0.1250000   0.1666667), wk =   0.0069444
        k(  183) = (   0.0833333   0.1250000   0.2083333), wk =   0.0069444
        k(  184) = (   0.0833333   0.1250000   0.2500000), wk =   0.0069444
        k(  185) = (   0.0833333   0.1250000   0.2916667), wk =   0.0069444
        k(  186) = (   0.0833333   0.1250000   0.3333333), wk =   0.0069444
        k(  187) = (   0.0833333   0.1250000   0.3750000), wk =   0.0069444
        k(  188) = (   0.0833333   0.1250000   0.4166667), wk =   0.0069444
        k(  189) = (   0.0833333   0.1250000   0.4583333), wk =   0.0069444
        k(  190) = (   0.0833333   0.1250000  -0.5000000), wk =   0.0034722
        k(  191) = (   0.0833333   0.1666667   0.1666667), wk =   0.0034722
        k(  192) = (   0.0833333   0.1666667   0.2083333), wk =   0.0069444
        k(  193) = (   0.0833333   0.1666667   0.2500000), wk =   0.0069444
        k(  194) = (   0.0833333   0.1666667   0.2916667), wk =   0.0069444
        k(  195) = (   0.0833333   0.1666667   0.3333333), wk =   0.0069444
        k(  196) = (   0.0833333   0.1666667   0.3750000), wk =   0.0069444
        k(  197) = (   0.0833333   0.1666667   0.4166667), wk =   0.0069444
        k(  198) = (   0.0833333   0.1666667   0.4583333), wk =   0.0069444
        k(  199) = (   0.0833333   0.1666667  -0.5000000), wk =   0.0034722
        k(  200) = (   0.0833333   0.2083333   0.2083333), wk =   0.0034722
        k(  201) = (   0.0833333   0.2083333   0.2500000), wk =   0.0069444
        k(  202) = (   0.0833333   0.2083333   0.2916667), wk =   0.0069444
        k(  203) = (   0.0833333   0.2083333   0.3333333), wk =   0.0069444
        k(  204) = (   0.0833333   0.2083333   0.3750000), wk =   0.0069444
        k(  205) = (   0.0833333   0.2083333   0.4166667), wk =   0.0069444
        k(  206) = (   0.0833333   0.2083333   0.4583333), wk =   0.0069444
        k(  207) = (   0.0833333   0.2083333  -0.5000000), wk =   0.0034722
        k(  208) = (   0.0833333   0.2500000   0.2500000), wk =   0.0034722
        k(  209) = (   0.0833333   0.2500000   0.2916667), wk =   0.0069444
        k(  210) = (   0.0833333   0.2500000   0.3333333), wk =   0.0069444
        k(  211) = (   0.0833333   0.2500000   0.3750000), wk =   0.0069444
        k(  212) = (   0.0833333   0.2500000   0.4166667), wk =   0.0069444
        k(  213) = (   0.0833333   0.2500000   0.4583333), wk =   0.0069444
        k(  214) = (   0.0833333   0.2500000  -0.5000000), wk =   0.0034722
        k(  215) = (   0.0833333   0.2916667   0.2916667), wk =   0.0034722
        k(  216) = (   0.0833333   0.2916667   0.3333333), wk =   0.0069444
        k(  217) = (   0.0833333   0.2916667   0.3750000), wk =   0.0069444
        k(  218) = (   0.0833333   0.2916667   0.4166667), wk =   0.0069444
        k(  219) = (   0.0833333   0.2916667   0.4583333), wk =   0.0069444
        k(  220) = (   0.0833333   0.2916667  -0.5000000), wk =   0.0034722
        k(  221) = (   0.0833333   0.3333333   0.3333333), wk =   0.0034722
        k(  222) = (   0.0833333   0.3333333   0.3750000), wk =   0.0069444
        k(  223) = (   0.0833333   0.3333333   0.4166667), wk =   0.0069444
        k(  224) = (   0.0833333   0.3333333   0.4583333), wk =   0.0069444
        k(  225) = (   0.0833333   0.3333333  -0.5000000), wk =   0.0034722
        k(  226) = (   0.0833333   0.3750000   0.3750000), wk =   0.0034722
        k(  227) = (   0.0833333   0.3750000   0.4166667), wk =   0.0069444
        k(  228) = (   0.0833333   0.3750000   0.4583333), wk =   0.0069444
        k(  229) = (   0.0833333   0.3750000  -0.5000000), wk =   0.0034722
        k(  230) = (   0.0833333   0.4166667   0.4166667), wk =   0.0034722
        k(  231) = (   0.0833333   0.4166667   0.4583333), wk =   0.0069444
        k(  232) = (   0.0833333   0.4166667  -0.5000000), wk =   0.0034722
        k(  233) = (   0.0833333   0.4583333   0.4583333), wk =   0.0034722
        k(  234) = (   0.0833333   0.4583333  -0.5000000), wk =   0.0034722
        k(  235) = (   0.0833333  -0.5000000  -0.5000000), wk =   0.0008681
        k(  236) = (   0.1250000   0.1250000   0.1250000), wk =   0.0011574
        k(  237) = (   0.1250000   0.1250000   0.1666667), wk =   0.0034722
        k(  238) = (   0.1250000   0.1250000   0.2083333), wk =   0.0034722
        k(  239) = (   0.1250000   0.1250000   0.2500000), wk =   0.0034722
        k(  240) = (   0.1250000   0.1250000   0.2916667), wk =   0.0034722
        k(  241) = (   0.1250000   0.1250000   0.3333333), wk =   0.0034722
        k(  242) = (   0.1250000   0.1250000   0.3750000), wk =   0.0034722
        k(  243) = (   0.1250000   0.1250000   0.4166667), wk =   0.0034722
        k(  244) = (   0.1250000   0.1250000   0.4583333), wk =   0.0034722
        k(  245) = (   0.1250000   0.1250000  -0.5000000), wk =   0.0017361
        k(  246) = (   0.1250000   0.1666667   0.1666667), wk =   0.0034722
        k(  247) = (   0.1250000   0.1666667   0.2083333), wk =   0.0069444
        k(  248) = (   0.1250000   0.1666667   0.2500000), wk =   0.0069444
        k(  249) = (   0.1250000   0.1666667   0.2916667), wk =   0.0069444
        k(  250) = (   0.1250000   0.1666667   0.3333333), wk =   0.0069444
        k(  251) = (   0.1250000   0.1666667   0.3750000), wk =   0.0069444
        k(  252) = (   0.1250000   0.1666667   0.4166667), wk =   0.0069444
        k(  253) = (   0.1250000   0.1666667   0.4583333), wk =   0.0069444
        k(  254) = (   0.1250000   0.1666667  -0.5000000), wk =   0.0034722
        k(  255) = (   0.1250000   0.2083333   0.2083333), wk =   0.0034722
        k(  256) = (   0.1250000   0.2083333   0.2500000), wk =   0.0069444
        k(  257) = (   0.1250000   0.2083333   0.2916667), wk =   0.0069444
        k(  258) = (   0.1250000   0.2083333   0.3333333), wk =   0.0069444
[...]
     1.0000   1.0000   1.0000   1.0000   0.0000   0.0000   0.0000   0.0000

          k = 0.3333 0.3750 0.3750 (  3016 PWs)   bands (ev):

   -50.0666 -26.2728 -26.2297 -26.2282 -26.2257  -8.9688  -8.7153  -8.6442
    -8.2050  -8.1291  -7.9952   3.4256   3.9671   4.0610   4.1507   4.3697
     4.3922   6.8371   6.8607   7.0541  10.1346  10.1646  10.2110  12.6107

     occupation numbers 
     1.0000   1.0000   1.0000   1.0000   1.0000   1.0000   1.0000   1.0000
     1.0000   1.0000   1.0000   1.0000   1.0000   1.0000   1.0000   1.0000
     1.0000   1.0000   1.0000   1.0000   0.0000   0.0000   0.0000   0.0000

          k = 0.3333 0.3750 0.4167 (  3014 PWs)   bands (ev):

   -50.0666 -26.2715 -26.2306 -26.2287 -26.2267  -8.9261  -8.7295  -8.6089
    -8.2446  -8.1158  -8.0196   3.3697   3.9242   4.0606   4.1090   4.3237
     4.3899   6.8652   6.9026   7.0847  10.1573  10.2085  10.2623  12.6221

     occupation numbers 
     1.0000   1.0000   1.0000   1.0000   1.0000   1.0000   1.0000   1.0000
     1.0000   1.0000   1.0000   1.0000   1.0000   1.0000   1.0000   1.0000
     1.0000   1.0000   1.0000   1.0000   0.0000   0.0000   0.0000   0.0000

          k = 0.3333 0.3750 0.4583 (  3015 PWs)   bands (ev):

   -50.0666 -26.2707 -26.2311 -26.2293 -26.2271  -8.8926  -8.7486  -8.5760
    -8.2803  -8.0955  -8.0430   3.3281   3.9023   4.0638   4.0791   4.2903
     4.3982   6.8782   6.9294   7.1048  10.1651  10.2437  10.2967  12.6208

     occupation numbers 
     1.0000   1.0000   1.0000   1.0000   1.0000   1.0000   1.0000   1.0000
     1.0000   1.0000   1.0000   1.0000   1.0000   1.0000   1.0000   1.0000
     1.0000   1.0000   1.0000   1.0000   0.0000   0.0000   0.0000   0.0000

          k = 0.3333 0.3750-0.5000 (  3016 PWs)   bands (ev):

   -50.0666 -26.2705 -26.2312 -26.2296 -26.2272  -8.8785  -8.7579  -8.5623
    -8.2951  -8.0809  -8.0585   3.3129   3.8961   4.0660   4.0677   4.2788
     4.4018   6.8821   6.9384   7.1118  10.1674  10.2562  10.3088  12.6196

     occupation numbers 
     1.0000   1.0000   1.0000   1.0000   1.0000   1.0000   1.0000   1.0000
     1.0000   1.0000   1.0000   1.0000   1.0000   1.0000   1.0000   1.0000
     1.0000   1.0000   1.0000   1.0000   0.0000   0.0000   0.0000   0.0000

          k = 0.3333 0.4167 0.4167 (  3017 PWs)   bands (ev):

   -50.0666 -26.2702 -26.2314 -26.2301 -26.2270  -8.8762  -8.7236  -8.6001
    -8.2631  -8.1227  -8.0465   3.3180   3.8763   4.0547   4.0783   4.3239
     4.3393   6.9096   6.9322   7.1228  10.2092  10.2243  10.3093  12.6555

     occupation numbers 
     1.0000   1.0000   1.0000   1.0000   1.0000   1.0000   1.0000   1.0000
     1.0000   1.0000   1.0000   1.0000   1.0000   1.0000   1.0000   1.0000
     1.0000   1.0000   1.0000   1.0000   0.0000   0.0000   0.0000   0.0000

          k = 0.3333 0.4167 0.4583 (  3016 PWs)   bands (ev):

   -50.0666 -26.2694 -26.2319 -26.2310 -26.2271  -8.8348  -8.7335  -8.5869
    -8.2842  -8.1138  -8.0712   3.2792   3.8496   4.0479   4.0629   4.2960
     4.3415   6.9292   6.9540   7.1487  10.2222  10.2545  10.3411  12.6622

     occupation numbers 
     1.0000   1.0000   1.0000   1.0000   1.0000   1.0000   1.0000   1.0000
     1.0000   1.0000   1.0000   1.0000   1.0000   1.0000   1.0000   1.0000
     1.0000   1.0000   1.0000   1.0000   0.0000   0.0000   0.0000   0.0000

          k = 0.3333 0.4167-0.5000 (  3018 PWs)   bands (ev):

   -50.0666 -26.2691 -26.2321 -26.2313 -26.2271  -8.8154  -8.7429  -8.5804
    -8.2934  -8.1019  -8.0876   3.2649   3.8413   4.0411   4.0623   4.2844
     4.3450   6.9341   6.9624   7.1578  10.2246  10.2670  10.3523  12.6629

     occupation numbers 
     1.0000   1.0000   1.0000   1.0000   1.0000   1.0000   1.0000   1.0000
     1.0000   1.0000   1.0000   1.0000   1.0000   1.0000   1.0000   1.0000
     1.0000   1.0000   1.0000   1.0000   0.0000   0.0000   0.0000   0.0000

          k = 0.3333 0.4583 0.4583 (  3014 PWs)   bands (ev):

   -50.0665 -26.2685 -26.2325 -26.2320 -26.2271  -8.7853  -8.7287  -8.6020
    -8.2876  -8.1186  -8.0947   3.2424   3.8193   4.0284   4.0629   4.3037
     4.3081   6.9588   6.9666   7.1787  10.2580  10.2621  10.3714  12.6725

     occupation numbers 
     1.0000   1.0000   1.0000   1.0000   1.0000   1.0000   1.0000   1.0000
     1.0000   1.0000   1.0000   1.0000   1.0000   1.0000   1.0000   1.0000
     1.0000   1.0000   1.0000   1.0000   0.0000   0.0000   0.0000   0.0000

          k = 0.3333 0.4583-0.5000 (  3020 PWs)   bands (ev):

   -50.0665 -26.2682 -26.2326 -26.2324 -26.2271  -8.7592  -8.7336  -8.6099
    -8.2890  -8.1136  -8.1091   3.2288   3.8098   4.0209   4.0639   4.2939
     4.3099   6.9658   6.9732   7.1891  10.2621  10.2731  10.3821  12.6740

     occupation numbers 
     1.0000   1.0000   1.0000   1.0000   1.0000   1.0000   1.0000   1.0000
     1.0000   1.0000   1.0000   1.0000   1.0000   1.0000   1.0000   1.0000
     1.0000   1.0000   1.0000   1.0000   0.0000   0.0000   0.0000   0.0000

          k = 0.3333-0.5000-0.5000 (  3016 PWs)   bands (ev):

   -50.0665 -26.2679 -26.2328 -26.2328 -26.2270  -8.7304  -8.7304  -8.6297
    -8.2867  -8.1173  -8.1173   3.2155   3.7999   4.0135   4.0651   4.2978
     4.2978   6.9764   6.9764   7.2000  10.2751  10.2751  10.3926  12.6755

     occupation numbers 
     1.0000   1.0000   1.0000   1.0000   1.0000   1.0000   1.0000   1.0000
     1.0000   1.0000   1.0000   1.0000   1.0000   1.0000   1.0000   1.0000
     1.0000   1.0000   1.0000   1.0000   0.0000   0.0000   0.0000   0.0000

          k = 0.3750 0.3750 0.3750 (  3022 PWs)   bands (ev):

   -50.0666 -26.2713 -26.2296 -26.2296 -26.2273  -8.9196  -8.6625  -8.6625
    -8.1865  -8.1865  -8.0251   3.3746   3.9711   3.9711   4.1485   4.3234
     4.3234   6.9155   6.9155   7.0804  10.1932  10.2283  10.2283  12.8261

     occupation numbers 
     1.0000   1.0000   1.0000   1.0000   1.0000   1.0000   1.0000   1.0000
     1.0000   1.0000   1.0000   1.0000   1.0000   1.0000   1.0000   1.0000
     1.0000   1.0000   1.0000   1.0000   0.0000   0.0000   0.0000   0.0000

          k = 0.3750 0.3750 0.4167 (  3018 PWs)   bands (ev):

   -50.0666 -26.2702 -26.2308 -26.2295 -26.2285  -8.8732  -8.6862  -8.6111
    -8.2413  -8.1643  -8.0546   3.3217   3.9149   3.9749   4.1244   4.2730
     4.3180   6.9466   6.9720   7.1073  10.2211  10.2618  10.2808  12.8142

     occupation numbers 
     1.0000   1.0000   1.0000   1.0000   1.0000   1.0000   1.0000   1.0000
     1.0000   1.0000   1.0000   1.0000   1.0000   1.0000   1.0000   1.0000
     1.0000   1.0000   1.0000   1.0000   0.0000   0.0000   0.0000   0.0000

          k = 0.3750 0.3750 0.4583 (  3017 PWs)   bands (ev):

   -50.0666 -26.2694 -26.2316 -26.2295 -26.2293  -8.8345  -8.7111  -8.5690
    -8.2856  -8.1405  -8.0824   3.2822   3.8867   3.9776   4.1013   4.2421
     4.3246   6.9618   7.0060   7.1269  10.2297  10.2931  10.3155  12.8055

     occupation numbers 
     1.0000   1.0000   1.0000   1.0000   1.0000   1.0000   1.0000   1.0000
     1.0000   1.0000   1.0000   1.0000   1.0000   1.0000   1.0000   1.0000
     1.0000   1.0000   1.0000   1.0000   0.0000   0.0000   0.0000   0.0000

          k = 0.3750 0.3750-0.5000 (  3016 PWs)   bands (ev):

   -50.0665 -26.2692 -26.2318 -26.2295 -26.2295  -8.8164  -8.7245  -8.5513
    -8.3041  -8.1231  -8.1011   3.2677   3.8784   3.9787   4.0925   4.2316
     4.3280   6.9663   7.0173   7.1340  10.2322  10.3046  10.3276  12.8024

     occupation numbers 
     1.0000   1.0000   1.0000   1.0000   1.0000   1.0000   1.0000   1.0000
     1.0000   1.0000   1.0000   1.0000   1.0000   1.0000   1.0000   1.0000
     1.0000   1.0000   1.0000   1.0000   0.0000   0.0000   0.0000   0.0000

          k = 0.3750 0.4167 0.4167 (  3021 PWs)   bands (ev):

   -50.0665 -26.2691 -26.2313 -26.2306 -26.2292  -8.8227  -8.6674  -8.5997
    -8.2575  -8.1841  -8.0882   3.2722   3.8788   3.9505   4.1143   4.2564
     4.2729   7.0009   7.0154   7.1353  10.2687  10.2840  10.3213  12.8822

     occupation numbers 
     1.0000   1.0000   1.0000   1.0000   1.0000   1.0000   1.0000   1.0000
     1.0000   1.0000   1.0000   1.0000   1.0000   1.0000   1.0000   1.0000
     1.0000   1.0000   1.0000   1.0000   0.0000   0.0000   0.0000   0.0000

          k = 0.3750 0.4167 0.4583 (  3018 PWs)   bands (ev):

   -50.0665 -26.2684 -26.2320 -26.2311 -26.2294  -8.7785  -8.6817  -8.5705
    -8.2907  -8.1722  -8.1190   3.2350   3.8500   3.9484   4.0970   4.2319
     4.2725   7.0226   7.0467   7.1581  10.2824  10.3114  10.3530  12.8870

     occupation numbers 
     1.0000   1.0000   1.0000   1.0000   1.0000   1.0000   1.0000   1.0000
     1.0000   1.0000   1.0000   1.0000   1.0000   1.0000   1.0000   1.0000
     1.0000   1.0000   1.0000   1.0000   0.0000   0.0000   0.0000   0.0000

          k = 0.3750 0.4167-0.5000 (  3014 PWs)   bands (ev):

   -50.0665 -26.2681 -26.2323 -26.2312 -26.2294  -8.7551  -8.6967  -8.5559
    -8.3065  -8.1557  -8.1402   3.2213   3.8406   3.9485   4.0898   4.2218
     4.2757   7.0280   7.0582   7.1667  10.2850  10.3229  10.3643  12.8858

     occupation numbers 
     1.0000   1.0000   1.0000   1.0000   1.0000   1.0000   1.0000   1.0000
     1.0000   1.0000   1.0000   1.0000   1.0000   1.0000   1.0000   1.0000
     1.0000   1.0000   1.0000   1.0000   0.0000   0.0000   0.0000   0.0000

          k = 0.3750 0.4583 0.4583 (  3013 PWs)   bands (ev):

   -50.0665 -26.2677 -26.2323 -26.2321 -26.2294  -8.7293  -8.6705  -8.5746
    -8.2990  -8.1826  -8.1500   3.1995   3.8209   3.9431   4.0822   4.2366
     4.2432   7.0580   7.0649   7.1852  10.3156  10.3197  10.3829  12.9028

     occupation numbers 
     1.0000   1.0000   1.0000   1.0000   1.0000   1.0000   1.0000   1.0000
     1.0000   1.0000   1.0000   1.0000   1.0000   1.0000   1.0000   1.0000
     1.0000   1.0000   1.0000   1.0000   0.0000   0.0000   0.0000   0.0000

          k = 0.3750 0.4583-0.5000 (  3018 PWs)   bands (ev):

   -50.0665 -26.2675 -26.2326 -26.2323 -26.2294  -8.7003  -8.6781  -8.5757
    -8.3039  -8.1755  -8.1702   3.1864   3.8111   3.9424   4.0758   4.2292
     4.2440   7.0656   7.0741   7.1954  10.3198  10.3297  10.3936  12.9039

     occupation numbers 
     1.0000   1.0000   1.0000   1.0000   1.0000   1.0000   1.0000   1.0000
     1.0000   1.0000   1.0000   1.0000   1.0000   1.0000   1.0000   1.0000
     1.0000   1.0000   1.0000   1.0000   0.0000   0.0000   0.0000   0.0000

          k = 0.3750-0.5000-0.5000 (  3016 PWs)   bands (ev):

   -50.0665 -26.2672 -26.2327 -26.2327 -26.2293  -8.6716  -8.6716  -8.5927
    -8.3015  -8.1820  -8.1820   3.1735   3.8011   3.9415   4.0695   4.2334
     4.2334   7.0783   7.0783   7.2062  10.3319  10.3319  10.4041  12.9054

     occupation numbers 
     1.0000   1.0000   1.0000   1.0000   1.0000   1.0000   1.0000   1.0000
     1.0000   1.0000   1.0000   1.0000   1.0000   1.0000   1.0000   1.0000
     1.0000   1.0000   1.0000   1.0000   0.0000   0.0000   0.0000   0.0000

          k = 0.4167 0.4167 0.4167 (  3025 PWs)   bands (ev):

   -50.0665 -26.2682 -26.2312 -26.2312 -26.2306  -8.7708  -8.6120  -8.6120
    -8.2436  -8.2436  -8.1278   3.2251   3.8808   3.8808   4.1305   4.2247
     4.2247   7.0675   7.0675   7.1528  10.3149  10.3333  10.3333  13.0588

     occupation numbers 
     1.0000   1.0000   1.0000   1.0000   1.0000   1.0000   1.0000   1.0000
     1.0000   1.0000   1.0000   1.0000   1.0000   1.0000   1.0000   1.0000
     1.0000   1.0000   1.0000   1.0000   0.0000   0.0000   0.0000   0.0000

          k = 0.4167 0.4167 0.4583 (  3023 PWs)   bands (ev):

   -50.0665 -26.2676 -26.2321 -26.2312 -26.2311  -8.7238  -8.6349  -8.5653
    -8.2928  -8.2230  -8.1636   3.1898   3.8437   3.8823   4.1238   4.1955
     4.2235   7.0910   7.1080   7.1718  10.3317  10.3546  10.3659  13.0460

     occupation numbers 
     1.0000   1.0000   1.0000   1.0000   1.0000   1.0000   1.0000   1.0000
     1.0000   1.0000   1.0000   1.0000   1.0000   1.0000   1.0000   1.0000
     1.0000   1.0000   1.0000   1.0000   0.0000   0.0000   0.0000   0.0000

          k = 0.4167 0.4167-0.5000 (  3012 PWs)   bands (ev):

   -50.0665 -26.2674 -26.2325 -26.2312 -26.2311  -8.6956  -8.6549  -8.5450
    -8.3140  -8.2021  -8.1895   3.1768   3.8323   3.8828   4.1184   4.1856
     4.2264   7.0970   7.1217   7.1800  10.3345  10.3651  10.3774  13.0411

     occupation numbers 
     1.0000   1.0000   1.0000   1.0000   1.0000   1.0000   1.0000   1.0000
     1.0000   1.0000   1.0000   1.0000   1.0000   1.0000   1.0000   1.0000
     1.0000   1.0000   1.0000   1.0000   0.0000   0.0000   0.0000   0.0000

          k = 0.4167 0.4583 0.4583 (  3030 PWs)   bands (ev):

   -50.0665 -26.2671 -26.2323 -26.2322 -26.2311  -8.6745  -8.6127  -8.5602
    -8.3032  -8.2448  -8.2019   3.1560   3.8221   3.8652   4.1225   4.1898
     4.1963   7.1310   7.1362   7.1911  10.3628  10.3670  10.3919  13.0888

     occupation numbers 
     1.0000   1.0000   1.0000   1.0000   1.0000   1.0000   1.0000   1.0000
     1.0000   1.0000   1.0000   1.0000   1.0000   1.0000   1.0000   1.0000
     1.0000   1.0000   1.0000   1.0000   0.0000   0.0000   0.0000   0.0000

          k = 0.4167 0.4583-0.5000 (  3026 PWs)   bands (ev):

   -50.0665 -26.2669 -26.2326 -26.2323 -26.2311  -8.6423  -8.6244  -8.5512
    -8.3148  -8.2339  -8.2286   3.1434   3.8118   3.8635   4.1177   4.1829
     4.1968   7.1392   7.1479   7.2006  10.3672  10.3764  10.4026  13.0893

     occupation numbers 
     1.0000   1.0000   1.0000   1.0000   1.0000   1.0000   1.0000   1.0000
     1.0000   1.0000   1.0000   1.0000   1.0000   1.0000   1.0000   1.0000
     1.0000   1.0000   1.0000   1.0000   0.0000   0.0000   0.0000   0.0000

          k = 0.4167-0.5000-0.5000 (  3032 PWs)   bands (ev):

   -50.0665 -26.2668 -26.2326 -26.2326 -26.2311  -8.6129  -8.6129  -8.5640
    -8.3128  -8.2452  -8.2452   3.1311   3.8021   3.8608   4.1128   4.1869
     4.1869   7.1533   7.1533   7.2109  10.3787  10.3787  10.4130  13.0921

     occupation numbers 
     1.0000   1.0000   1.0000   1.0000   1.0000   1.0000   1.0000   1.0000
     1.0000   1.0000   1.0000   1.0000   1.0000   1.0000   1.0000   1.0000
     1.0000   1.0000   1.0000   1.0000   0.0000   0.0000   0.0000   0.0000

          k = 0.4583 0.4583 0.4583 (  3034 PWs)   bands (ev):

   -50.0665 -26.2667 -26.2322 -26.2322 -26.2322  -8.6251  -8.5631  -8.5631
    -8.2971  -8.2971  -8.2460   3.1233   3.8228   3.8228   4.1418   4.1679
     4.1679   7.1756   7.1756   7.1990  10.3933  10.3985  10.3985  13.2238

     occupation numbers 
     1.0000   1.0000   1.0000   1.0000   1.0000   1.0000   1.0000   1.0000
     1.0000   1.0000   1.0000   1.0000   1.0000   1.0000   1.0000   1.0000
     1.0000   1.0000   1.0000   1.0000   0.0000   0.0000   0.0000   0.0000

          k = 0.4583 0.4583-0.5000 (  3034 PWs)   bands (ev):

   -50.0665 -26.2666 -26.2326 -26.2322 -26.2322  -8.5911  -8.5807  -8.5410
    -8.3202  -8.2799  -8.2767   3.1113   3.8096   3.8231   4.1407   4.1584
     4.1683   7.1842   7.1906   7.2063  10.3986  10.4060  10.4095  13.2160

     occupation numbers 
     1.0000   1.0000   1.0000   1.0000   1.0000   1.0000   1.0000   1.0000
     1.0000   1.0000   1.0000   1.0000   1.0000   1.0000   1.0000   1.0000
     1.0000   1.0000   1.0000   1.0000   0.0000   0.0000   0.0000   0.0000

          k = 0.4583-0.5000-0.5000 (  3024 PWs)   bands (ev):

   -50.0665 -26.2665 -26.2326 -26.2326 -26.2322  -8.5624  -8.5624  -8.5458
    -8.3199  -8.2986  -8.2986   3.0994   3.8027   3.8167   4.1401   4.1588
     4.1588   7.1994   7.1994   7.2139  10.4097  10.4097  10.4186  13.2355

     occupation numbers 
     1.0000   1.0000   1.0000   1.0000   1.0000   1.0000   1.0000   1.0000
     1.0000   1.0000   1.0000   1.0000   1.0000   1.0000   1.0000   1.0000
     1.0000   1.0000   1.0000   1.0000   0.0000   0.0000   0.0000   0.0000

          k =-0.5000-0.5000-0.5000 (  3016 PWs)   bands (ev):

   -50.0665 -26.2664 -26.2326 -26.2326 -26.2326  -8.5396  -8.5396  -8.5396
    -8.3224  -8.3224  -8.3224   3.0876   3.8029   3.8029   4.1494   4.1494
     4.1494   7.2149   7.2149   7.2149  10.4206  10.4206  10.4206  13.3392

     occupation numbers 
     1.0000   1.0000   1.0000   1.0000   1.0000   1.0000   1.0000   1.0000
     1.0000   1.0000   1.0000   1.0000   1.0000   1.0000   1.0000   1.0000
     1.0000   1.0000   1.0000   1.0000   0.0000   0.0000   0.0000   0.0000

     the Fermi energy is     7.4170 ev

!    total energy              =    -286.93472756 Ry
     Harris-Foulkes estimate   =    -286.93472756 Ry
     estimated scf accuracy    <          6.1E-10 Ry

     The total energy is the sum of the following terms:

     one-electron contribution =     -99.27188243 Ry
     hartree contribution      =      67.39782230 Ry
     xc contribution           =     -57.86208836 Ry
     ewald contribution        =    -197.19857907 Ry
     smearing contrib. (-TS)   =       0.00000000 Ry

     convergence has been achieved in  14 iterations
 
     init_run     :      3.53s CPU      3.92s WALL (       1 calls)
     electrons    :    147.34s CPU    161.53s WALL (       1 calls)

     Called by init_run:
     wfcinit      :      3.45s CPU      3.74s WALL (       1 calls)
     wfcinit:atom :      0.03s CPU      0.03s WALL (     455 calls)
     wfcinit:wfcr :      3.27s CPU      3.55s WALL (     455 calls)
     potinit      :      0.01s CPU      0.01s WALL (       1 calls)
     hinit0       :      0.06s CPU      0.15s WALL (       1 calls)

     Called by electrons:
     c_bands      :    135.88s CPU    149.42s WALL (      14 calls)
     sum_band     :     11.29s CPU     11.90s WALL (      14 calls)
     v_of_rho     :      0.03s CPU      0.03s WALL (      15 calls)
     v_h          :      0.00s CPU      0.00s WALL (      15 calls)
     v_xc         :      0.03s CPU      0.03s WALL (      15 calls)
     newd         :      0.13s CPU      0.14s WALL (      15 calls)
     mix_rho      :      0.01s CPU      0.01s WALL (      14 calls)

     Called by c_bands:
     init_us_2    :      1.22s CPU      1.27s WALL (   13195 calls)
     cegterg      :    131.05s CPU    144.47s WALL (    6370 calls)

     Called by sum_band:
     sum_band:bec :      0.13s CPU      0.14s WALL (    6370 calls)
     addusdens    :      0.13s CPU      0.14s WALL (      14 calls)

     Called by *egterg:
     h_psi        :     48.41s CPU     51.03s WALL (   23598 calls)
     s_psi        :      1.39s CPU      1.47s WALL (   23598 calls)
     g_psi        :      0.32s CPU      0.32s WALL (   16773 calls)
     cdiaghg      :     67.88s CPU     75.89s WALL (   23143 calls)
     cegterg:over :      9.07s CPU     11.85s WALL (   16773 calls)
     cegterg:upda :      3.38s CPU      3.47s WALL (   16773 calls)
     cegterg:last :      1.43s CPU      1.48s WALL (    6370 calls)
     cdiaghg:chol :      2.02s CPU      2.38s WALL (   23143 calls)
     cdiaghg:inve :      1.14s CPU      1.36s WALL (   23143 calls)
     cdiaghg:para :      3.62s CPU      3.94s WALL (   46286 calls)

     Called by h_psi:
     h_psi:pot    :     48.28s CPU     50.89s WALL (   23598 calls)
     h_psi:calbec :      2.45s CPU      2.59s WALL (   23598 calls)
     vloc_psi     :     44.29s CPU     46.68s WALL (   23598 calls)
     add_vuspsi   :      1.44s CPU      1.52s WALL (   23598 calls)

     General routines
     calbec       :      3.24s CPU      3.44s WALL (   29968 calls)
     fft          :      0.02s CPU      0.06s WALL (     166 calls)
     ffts         :      0.00s CPU      0.00s WALL (      14 calls)
     fftw         :     50.39s CPU     53.12s WALL (  929170 calls)
 
     Parallel routines
     fft_scatt_xy :      3.84s CPU      4.07s WALL (  929350 calls)
     fft_scatt_yz :     32.10s CPU     33.99s WALL (  929350 calls)
 
     PWSCF        :  2m30.95s CPU     2m45.66s WALL

 
   This run was terminated on:  22: 1:31   6Feb2019            

=------------------------------------------------------------------------------=
   JOB DONE.
=------------------------------------------------------------------------------=
