
     Program PWSCF v.6.3MaX starts on  6Feb2019 at 21:45:53 

     This program is part of the open-source Quantum ESPRESSO suite
     for quantum simulation of materials; please cite
         "P. Giannozzi et al., J. Phys.:Condens. Matter 21 395502 (2009);
         "P. Giannozzi et al., J. Phys.:Condens. Matter 29 465901 (2017);
          URL http://www.quantum-espresso.org", 
     in publications or presentations arising from this work. More details at
     http://www.quantum-espresso.org/quote

     Parallel version (MPI & OpenMP), running on      20 processor cores
     Number of MPI processes:                20
     Threads/MPI process:                     1

     MPI processes distributed on     1 nodes
     R & G space division:  proc/nbgrp/npool/nimage =      20
     Reading input from /home/azadoks/dftman/projects/SrTiO3 Convergence/EOSWorkflows/4b44c0aa611c/8556086b9704/pwscf.in
Warning: card &IONS ignored
Warning: card / ignored
Warning: card &CELL ignored
Warning: card / ignored

     Current dimensions of program PWSCF are:
     Max number of different atomic species (ntypx) = 10
     Max number of k-points (npk) =  40000
     Max angular momentum in pseudopotentials (lmaxx) =  3
     Message from routine iosys:
     minimal I/O required, wf_collect reset to FALSE

     Subspace diagonalization in iterative solution of the eigenvalue problem:
     one sub-group per band group will be used
     scalapack distributed-memory algorithm (size of sub-group:  3*  3 procs)

 
     Parallelization info
     --------------------
     sticks:   dense  smooth     PW     G-vecs:    dense   smooth      PW
     Min          42      42     13                  929      929     155
     Max          44      44     14                  933      933     157
     Sum         853     853    261                18613    18613    3119
 


     bravais-lattice index     =            0
     lattice parameter (alat)  =       7.2895  a.u.
     unit-cell volume          =     387.3479 (a.u.)^3
     number of atoms/cell      =            5
     number of atomic types    =            3
     number of electrons       =        40.00
     number of Kohn-Sham states=           24
     kinetic-energy cutoff     =      50.0000  Ry
     charge density cutoff     =     200.0000  Ry
     convergence threshold     =      1.0E-08
     mixing beta               =       0.7000
     number of iterations used =            8  plain     mixing
     Exchange-correlation      =  SLA  PW   PBX  PBC ( 1  4  3  4 0 0)

     celldm(1)=   7.289545  celldm(2)=   0.000000  celldm(3)=   0.000000
     celldm(4)=   0.000000  celldm(5)=   0.000000  celldm(6)=   0.000000

     crystal axes: (cart. coord. in units of alat)
               a(1) = (   1.000000   0.000000   0.000000 )  
               a(2) = (   0.000000   1.000000   0.000000 )  
               a(3) = (   0.000000   0.000000   1.000000 )  

     reciprocal axes: (cart. coord. in units 2 pi/alat)
               b(1) = (  1.000000  0.000000  0.000000 )  
               b(2) = (  0.000000  1.000000  0.000000 )  
               b(3) = (  0.000000  0.000000  1.000000 )  


     PseudoPot. # 1 for O  read from file:
     /home/azadoks/.local/share/pseudo/GBRV_PBE_US/o_pbe_v1.2.uspp.F.UPF
     MD5 check sum: 734c27235a0248c51dbae37a1fbe46ec
     Pseudo is Ultrasoft + core correction, Zval =  6.0
     Generated by new atomic code, or converted to UPF format
     Using radial grid of  737 points,  5 beta functions with: 
                l(1) =   0
                l(2) =   0
                l(3) =   1
                l(4) =   1
                l(5) =   2
     Q(r) pseudized with  8 coefficients,  rinner =    0.900   0.900   0.900
                                                       0.900   0.900

     PseudoPot. # 2 for Sr read from file:
     /home/azadoks/.local/share/pseudo/GBRV_PBE_US/sr_pbe_v1.uspp.F.UPF
     MD5 check sum: 6b418c05fbe9db5448babca5e47b7a5b
     Pseudo is Ultrasoft + core correction, Zval = 10.0
     Generated by new atomic code, or converted to UPF format
     Using radial grid of  883 points,  6 beta functions with: 
                l(1) =   0
                l(2) =   0
                l(3) =   1
                l(4) =   1
                l(5) =   2
                l(6) =   2
     Q(r) pseudized with  6 coefficients,  rinner =    1.400   1.400   1.400
                                                       1.400   1.400

     PseudoPot. # 3 for Ti read from file:
     /home/azadoks/.local/share/pseudo/GBRV_PBE_US/ti_pbe_v1.4.uspp.F.UPF
     MD5 check sum: 88a00a6731bd790ddea75d31a80cb452
     Pseudo is Ultrasoft + core correction, Zval = 12.0
     Generated by new atomic code, or converted to UPF format
     Using radial grid of  851 points,  6 beta functions with: 
                l(1) =   0
                l(2) =   0
                l(3) =   1
                l(4) =   1
                l(5) =   2
                l(6) =   2
     Q(r) pseudized with  6 coefficients,  rinner =    1.000   1.000   1.000
                                                       1.000   1.000

     atomic species   valence    mass     pseudopotential
        O              6.00    15.99940     O ( 1.00)
        Sr            10.00    87.62000     Sr( 1.00)
        Ti            12.00    47.86700     Ti( 1.00)

     48 Sym. Ops., with inversion, found


                                    s                        frac. trans.

      isym =  1     identity                                     

 cryst.   s( 1) = (     1          0          0      )
                  (     0          1          0      )
                  (     0          0          1      )

 cart.    s( 1) = (  1.0000000  0.0000000  0.0000000 )
                  (  0.0000000  1.0000000  0.0000000 )
                  (  0.0000000  0.0000000  1.0000000 )


      isym =  2     180 deg rotation - cart. axis [0,0,1]        

 cryst.   s( 2) = (    -1          0          0      )
                  (     0         -1          0      )
                  (     0          0          1      )

 cart.    s( 2) = ( -1.0000000  0.0000000  0.0000000 )
                  (  0.0000000 -1.0000000  0.0000000 )
                  (  0.0000000  0.0000000  1.0000000 )


      isym =  3     180 deg rotation - cart. axis [0,1,0]        

 cryst.   s( 3) = (    -1          0          0      )
                  (     0          1          0      )
                  (     0          0         -1      )

 cart.    s( 3) = ( -1.0000000  0.0000000  0.0000000 )
                  (  0.0000000  1.0000000  0.0000000 )
                  (  0.0000000  0.0000000 -1.0000000 )


      isym =  4     180 deg rotation - cart. axis [1,0,0]        

 cryst.   s( 4) = (     1          0          0      )
                  (     0         -1          0      )
                  (     0          0         -1      )

 cart.    s( 4) = (  1.0000000  0.0000000  0.0000000 )
                  (  0.0000000 -1.0000000  0.0000000 )
                  (  0.0000000  0.0000000 -1.0000000 )


      isym =  5     180 deg rotation - cart. axis [1,1,0]        

 cryst.   s( 5) = (     0          1          0      )
                  (     1          0          0      )
                  (     0          0         -1      )

 cart.    s( 5) = (  0.0000000  1.0000000  0.0000000 )
                  (  1.0000000  0.0000000  0.0000000 )
                  (  0.0000000  0.0000000 -1.0000000 )


      isym =  6     180 deg rotation - cart. axis [1,-1,0]       

 cryst.   s( 6) = (     0         -1          0      )
                  (    -1          0          0      )
                  (     0          0         -1      )

 cart.    s( 6) = (  0.0000000 -1.0000000  0.0000000 )
                  ( -1.0000000  0.0000000  0.0000000 )
                  (  0.0000000  0.0000000 -1.0000000 )


      isym =  7      90 deg rotation - cart. axis [0,0,-1]       

 cryst.   s( 7) = (     0         -1          0      )
                  (     1          0          0      )
                  (     0          0          1      )

 cart.    s( 7) = (  0.0000000  1.0000000  0.0000000 )
                  ( -1.0000000  0.0000000  0.0000000 )
                  (  0.0000000  0.0000000  1.0000000 )


      isym =  8      90 deg rotation - cart. axis [0,0,1]        

 cryst.   s( 8) = (     0          1          0      )
                  (    -1          0          0      )
                  (     0          0          1      )

 cart.    s( 8) = (  0.0000000 -1.0000000  0.0000000 )
                  (  1.0000000  0.0000000  0.0000000 )
                  (  0.0000000  0.0000000  1.0000000 )


      isym =  9     180 deg rotation - cart. axis [1,0,1]        

 cryst.   s( 9) = (     0          0          1      )
                  (     0         -1          0      )
                  (     1          0          0      )

 cart.    s( 9) = (  0.0000000  0.0000000  1.0000000 )
                  (  0.0000000 -1.0000000  0.0000000 )
                  (  1.0000000  0.0000000  0.0000000 )


      isym = 10     180 deg rotation - cart. axis [-1,0,1]       

 cryst.   s(10) = (     0          0         -1      )
                  (     0         -1          0      )
                  (    -1          0          0      )

 cart.    s(10) = (  0.0000000  0.0000000 -1.0000000 )
                  (  0.0000000 -1.0000000  0.0000000 )
                  ( -1.0000000  0.0000000  0.0000000 )


      isym = 11      90 deg rotation - cart. axis [0,1,0]        

 cryst.   s(11) = (     0          0         -1      )
                  (     0          1          0      )
                  (     1          0          0      )

 cart.    s(11) = (  0.0000000  0.0000000  1.0000000 )
                  (  0.0000000  1.0000000  0.0000000 )
                  ( -1.0000000  0.0000000  0.0000000 )


      isym = 12      90 deg rotation - cart. axis [0,-1,0]       

 cryst.   s(12) = (     0          0          1      )
                  (     0          1          0      )
                  (    -1          0          0      )

 cart.    s(12) = (  0.0000000  0.0000000 -1.0000000 )
                  (  0.0000000  1.0000000  0.0000000 )
                  (  1.0000000  0.0000000  0.0000000 )


      isym = 13     180 deg rotation - cart. axis [0,1,1]        

 cryst.   s(13) = (    -1          0          0      )
                  (     0          0          1      )
                  (     0          1          0      )

 cart.    s(13) = ( -1.0000000  0.0000000  0.0000000 )
                  (  0.0000000  0.0000000  1.0000000 )
                  (  0.0000000  1.0000000  0.0000000 )


      isym = 14     180 deg rotation - cart. axis [0,1,-1]       

 cryst.   s(14) = (    -1          0          0      )
                  (     0          0         -1      )
                  (     0         -1          0      )

 cart.    s(14) = ( -1.0000000  0.0000000  0.0000000 )
                  (  0.0000000  0.0000000 -1.0000000 )
                  (  0.0000000 -1.0000000  0.0000000 )


      isym = 15      90 deg rotation - cart. axis [-1,0,0]       

 cryst.   s(15) = (     1          0          0      )
                  (     0          0         -1      )
                  (     0          1          0      )

 cart.    s(15) = (  1.0000000  0.0000000  0.0000000 )
                  (  0.0000000  0.0000000  1.0000000 )
                  (  0.0000000 -1.0000000  0.0000000 )


      isym = 16      90 deg rotation - cart. axis [1,0,0]        

 cryst.   s(16) = (     1          0          0      )
                  (     0          0          1      )
                  (     0         -1          0      )

 cart.    s(16) = (  1.0000000  0.0000000  0.0000000 )
                  (  0.0000000  0.0000000 -1.0000000 )
                  (  0.0000000  1.0000000  0.0000000 )


      isym = 17     120 deg rotation - cart. axis [-1,-1,-1]     

 cryst.   s(17) = (     0          0          1      )
                  (     1          0          0      )
                  (     0          1          0      )

 cart.    s(17) = (  0.0000000  1.0000000  0.0000000 )
                  (  0.0000000  0.0000000  1.0000000 )
                  (  1.0000000  0.0000000  0.0000000 )


      isym = 18     120 deg rotation - cart. axis [-1,1,1]       

 cryst.   s(18) = (     0          0         -1      )
                  (    -1          0          0      )
                  (     0          1          0      )

 cart.    s(18) = (  0.0000000 -1.0000000  0.0000000 )
                  (  0.0000000  0.0000000  1.0000000 )
                  ( -1.0000000  0.0000000  0.0000000 )


      isym = 19     120 deg rotation - cart. axis [1,1,-1]       

 cryst.   s(19) = (     0          0         -1      )
                  (     1          0          0      )
                  (     0         -1          0      )

 cart.    s(19) = (  0.0000000  1.0000000  0.0000000 )
                  (  0.0000000  0.0000000 -1.0000000 )
                  ( -1.0000000  0.0000000  0.0000000 )


      isym = 20     120 deg rotation - cart. axis [1,-1,1]       

 cryst.   s(20) = (     0          0          1      )
                  (    -1          0          0      )
                  (     0         -1          0      )

 cart.    s(20) = (  0.0000000 -1.0000000  0.0000000 )
                  (  0.0000000  0.0000000 -1.0000000 )
                  (  1.0000000  0.0000000  0.0000000 )


      isym = 21     120 deg rotation - cart. axis [1,1,1]        

 cryst.   s(21) = (     0          1          0      )
                  (     0          0          1      )
                  (     1          0          0      )

 cart.    s(21) = (  0.0000000  0.0000000  1.0000000 )
                  (  1.0000000  0.0000000  0.0000000 )
                  (  0.0000000  1.0000000  0.0000000 )


      isym = 22     120 deg rotation - cart. axis [-1,1,-1]      

 cryst.   s(22) = (     0         -1          0      )
                  (     0          0         -1      )
                  (     1          0          0      )

 cart.    s(22) = (  0.0000000  0.0000000  1.0000000 )
                  ( -1.0000000  0.0000000  0.0000000 )
                  (  0.0000000 -1.0000000  0.0000000 )


      isym = 23     120 deg rotation - cart. axis [1,-1,-1]      

 cryst.   s(23) = (     0         -1          0      )
                  (     0          0          1      )
                  (    -1          0          0      )

 cart.    s(23) = (  0.0000000  0.0000000 -1.0000000 )
                  ( -1.0000000  0.0000000  0.0000000 )
                  (  0.0000000  1.0000000  0.0000000 )


      isym = 24     120 deg rotation - cart. axis [-1,-1,1]      

 cryst.   s(24) = (     0          1          0      )
                  (     0          0         -1      )
                  (    -1          0          0      )

 cart.    s(24) = (  0.0000000  0.0000000 -1.0000000 )
                  (  1.0000000  0.0000000  0.0000000 )
                  (  0.0000000 -1.0000000  0.0000000 )


      isym = 25     inversion                                    

 cryst.   s(25) = (    -1          0          0      )
                  (     0         -1          0      )
                  (     0          0         -1      )

 cart.    s(25) = ( -1.0000000  0.0000000  0.0000000 )
                  (  0.0000000 -1.0000000  0.0000000 )
                  (  0.0000000  0.0000000 -1.0000000 )


      isym = 26     inv. 180 deg rotation - cart. axis [0,0,1]   

 cryst.   s(26) = (     1          0          0      )
                  (     0          1          0      )
                  (     0          0         -1      )

 cart.    s(26) = (  1.0000000  0.0000000  0.0000000 )
                  (  0.0000000  1.0000000  0.0000000 )
                  (  0.0000000  0.0000000 -1.0000000 )


      isym = 27     inv. 180 deg rotation - cart. axis [0,1,0]   

 cryst.   s(27) = (     1          0          0      )
                  (     0         -1          0      )
                  (     0          0          1      )

 cart.    s(27) = (  1.0000000  0.0000000  0.0000000 )
                  (  0.0000000 -1.0000000  0.0000000 )
                  (  0.0000000  0.0000000  1.0000000 )


      isym = 28     inv. 180 deg rotation - cart. axis [1,0,0]   

 cryst.   s(28) = (    -1          0          0      )
                  (     0          1          0      )
                  (     0          0          1      )

 cart.    s(28) = ( -1.0000000  0.0000000  0.0000000 )
                  (  0.0000000  1.0000000  0.0000000 )
                  (  0.0000000  0.0000000  1.0000000 )


      isym = 29     inv. 180 deg rotation - cart. axis [1,1,0]   

 cryst.   s(29) = (     0         -1          0      )
                  (    -1          0          0      )
                  (     0          0          1      )

 cart.    s(29) = (  0.0000000 -1.0000000  0.0000000 )
                  ( -1.0000000  0.0000000  0.0000000 )
                  (  0.0000000  0.0000000  1.0000000 )


      isym = 30     inv. 180 deg rotation - cart. axis [1,-1,0]  

 cryst.   s(30) = (     0          1          0      )
                  (     1          0          0      )
                  (     0          0          1      )

 cart.    s(30) = (  0.0000000  1.0000000  0.0000000 )
                  (  1.0000000  0.0000000  0.0000000 )
                  (  0.0000000  0.0000000  1.0000000 )


      isym = 31     inv.  90 deg rotation - cart. axis [0,0,-1]  

 cryst.   s(31) = (     0          1          0      )
                  (    -1          0          0      )
                  (     0          0         -1      )

 cart.    s(31) = (  0.0000000 -1.0000000  0.0000000 )
                  (  1.0000000  0.0000000  0.0000000 )
                  (  0.0000000  0.0000000 -1.0000000 )


      isym = 32     inv.  90 deg rotation - cart. axis [0,0,1]   

 cryst.   s(32) = (     0         -1          0      )
                  (     1          0          0      )
                  (     0          0         -1      )

 cart.    s(32) = (  0.0000000  1.0000000  0.0000000 )
                  ( -1.0000000  0.0000000  0.0000000 )
                  (  0.0000000  0.0000000 -1.0000000 )


      isym = 33     inv. 180 deg rotation - cart. axis [1,0,1]   

 cryst.   s(33) = (     0          0         -1      )
                  (     0          1          0      )
                  (    -1          0          0      )

 cart.    s(33) = (  0.0000000  0.0000000 -1.0000000 )
                  (  0.0000000  1.0000000  0.0000000 )
                  ( -1.0000000  0.0000000  0.0000000 )


      isym = 34     inv. 180 deg rotation - cart. axis [-1,0,1]  

 cryst.   s(34) = (     0          0          1      )
                  (     0          1          0      )
                  (     1          0          0      )

 cart.    s(34) = (  0.0000000  0.0000000  1.0000000 )
                  (  0.0000000  1.0000000  0.0000000 )
                  (  1.0000000  0.0000000  0.0000000 )


      isym = 35     inv.  90 deg rotation - cart. axis [0,1,0]   

 cryst.   s(35) = (     0          0          1      )
                  (     0         -1          0      )
                  (    -1          0          0      )

 cart.    s(35) = (  0.0000000  0.0000000 -1.0000000 )
                  (  0.0000000 -1.0000000  0.0000000 )
                  (  1.0000000  0.0000000  0.0000000 )


      isym = 36     inv.  90 deg rotation - cart. axis [0,-1,0]  

 cryst.   s(36) = (     0          0         -1      )
                  (     0         -1          0      )
                  (     1          0          0      )

 cart.    s(36) = (  0.0000000  0.0000000  1.0000000 )
                  (  0.0000000 -1.0000000  0.0000000 )
                  ( -1.0000000  0.0000000  0.0000000 )


      isym = 37     inv. 180 deg rotation - cart. axis [0,1,1]   

 cryst.   s(37) = (     1          0          0      )
                  (     0          0         -1      )
                  (     0         -1          0      )

 cart.    s(37) = (  1.0000000  0.0000000  0.0000000 )
                  (  0.0000000  0.0000000 -1.0000000 )
                  (  0.0000000 -1.0000000  0.0000000 )


      isym = 38     inv. 180 deg rotation - cart. axis [0,1,-1]  

 cryst.   s(38) = (     1          0          0      )
                  (     0          0          1      )
                  (     0          1          0      )

 cart.    s(38) = (  1.0000000  0.0000000  0.0000000 )
                  (  0.0000000  0.0000000  1.0000000 )
                  (  0.0000000  1.0000000  0.0000000 )


      isym = 39     inv.  90 deg rotation - cart. axis [-1,0,0]  

 cryst.   s(39) = (    -1          0          0      )
                  (     0          0          1      )
                  (     0         -1          0      )

 cart.    s(39) = ( -1.0000000  0.0000000  0.0000000 )
                  (  0.0000000  0.0000000 -1.0000000 )
                  (  0.0000000  1.0000000  0.0000000 )


      isym = 40     inv.  90 deg rotation - cart. axis [1,0,0]   

 cryst.   s(40) = (    -1          0          0      )
                  (     0          0         -1      )
                  (     0          1          0      )

 cart.    s(40) = ( -1.0000000  0.0000000  0.0000000 )
                  (  0.0000000  0.0000000  1.0000000 )
                  (  0.0000000 -1.0000000  0.0000000 )


      isym = 41     inv. 120 deg rotation - cart. axis [-1,-1,-1]

 cryst.   s(41) = (     0          0         -1      )
                  (    -1          0          0      )
                  (     0         -1          0      )

 cart.    s(41) = (  0.0000000 -1.0000000  0.0000000 )
                  (  0.0000000  0.0000000 -1.0000000 )
                  ( -1.0000000  0.0000000  0.0000000 )


      isym = 42     inv. 120 deg rotation - cart. axis [-1,1,1]  

 cryst.   s(42) = (     0          0          1      )
                  (     1          0          0      )
                  (     0         -1          0      )

 cart.    s(42) = (  0.0000000  1.0000000  0.0000000 )
                  (  0.0000000  0.0000000 -1.0000000 )
                  (  1.0000000  0.0000000  0.0000000 )


      isym = 43     inv. 120 deg rotation - cart. axis [1,1,-1]  

 cryst.   s(43) = (     0          0          1      )
                  (    -1          0          0      )
                  (     0          1          0      )

 cart.    s(43) = (  0.0000000 -1.0000000  0.0000000 )
                  (  0.0000000  0.0000000  1.0000000 )
                  (  1.0000000  0.0000000  0.0000000 )


      isym = 44     inv. 120 deg rotation - cart. axis [1,-1,1]  

 cryst.   s(44) = (     0          0         -1      )
                  (     1          0          0      )
                  (     0          1          0      )

 cart.    s(44) = (  0.0000000  1.0000000  0.0000000 )
                  (  0.0000000  0.0000000  1.0000000 )
                  ( -1.0000000  0.0000000  0.0000000 )


      isym = 45     inv. 120 deg rotation - cart. axis [1,1,1]   

 cryst.   s(45) = (     0         -1          0      )
                  (     0          0         -1      )
                  (    -1          0          0      )

 cart.    s(45) = (  0.0000000  0.0000000 -1.0000000 )
                  ( -1.0000000  0.0000000  0.0000000 )
                  (  0.0000000 -1.0000000  0.0000000 )


      isym = 46     inv. 120 deg rotation - cart. axis [-1,1,-1] 

 cryst.   s(46) = (     0          1          0      )
                  (     0          0          1      )
                  (    -1          0          0      )

 cart.    s(46) = (  0.0000000  0.0000000 -1.0000000 )
                  (  1.0000000  0.0000000  0.0000000 )
                  (  0.0000000  1.0000000  0.0000000 )


      isym = 47     inv. 120 deg rotation - cart. axis [1,-1,-1] 

 cryst.   s(47) = (     0          1          0      )
                  (     0          0         -1      )
                  (     1          0          0      )

 cart.    s(47) = (  0.0000000  0.0000000  1.0000000 )
                  (  1.0000000  0.0000000  0.0000000 )
                  (  0.0000000 -1.0000000  0.0000000 )


      isym = 48     inv. 120 deg rotation - cart. axis [-1,-1,1] 

 cryst.   s(48) = (     0         -1          0      )
                  (     0          0          1      )
                  (     1          0          0      )

 cart.    s(48) = (  0.0000000  0.0000000  1.0000000 )
                  ( -1.0000000  0.0000000  0.0000000 )
                  (  0.0000000  1.0000000  0.0000000 )


   Cartesian axes

     site n.     atom                  positions (alat units)
         1           O   tau(   1) = (   0.5000000   0.0000000   0.5000000  )
         2           O   tau(   2) = (   0.5000000   0.5000000   0.0000000  )
         3           O   tau(   3) = (   0.0000000   0.5000000   0.5000000  )
         4           Ti  tau(   4) = (   0.5000000   0.5000000   0.5000000  )
         5           Sr  tau(   5) = (   0.0000000   0.0000000   0.0000000  )

   Crystallographic axes

     site n.     atom                  positions (cryst. coord.)
         1           O   tau(   1) = (  0.5000000  0.0000000  0.5000000  )
         2           O   tau(   2) = (  0.5000000  0.5000000  0.0000000  )
         3           O   tau(   3) = (  0.0000000  0.5000000  0.5000000  )
         4           Ti  tau(   4) = (  0.5000000  0.5000000  0.5000000  )
         5           Sr  tau(   5) = (  0.0000000  0.0000000  0.0000000  )

     number of k points=   220  Marzari-Vanderbilt smearing, width (Ry)=  0.0010
                       cart. coord. in units 2pi/alat
        k(    1) = (   0.0000000   0.0000000   0.0000000), wk =   0.0003429
        k(    2) = (   0.0000000   0.0000000   0.0555556), wk =   0.0020576
        k(    3) = (   0.0000000   0.0000000   0.1111111), wk =   0.0020576
        k(    4) = (   0.0000000   0.0000000   0.1666667), wk =   0.0020576
        k(    5) = (   0.0000000   0.0000000   0.2222222), wk =   0.0020576
        k(    6) = (   0.0000000   0.0000000   0.2777778), wk =   0.0020576
        k(    7) = (   0.0000000   0.0000000   0.3333333), wk =   0.0020576
        k(    8) = (   0.0000000   0.0000000   0.3888889), wk =   0.0020576
        k(    9) = (   0.0000000   0.0000000   0.4444444), wk =   0.0020576
        k(   10) = (   0.0000000   0.0000000  -0.5000000), wk =   0.0010288
        k(   11) = (   0.0000000   0.0555556   0.0555556), wk =   0.0041152
        k(   12) = (   0.0000000   0.0555556   0.1111111), wk =   0.0082305
        k(   13) = (   0.0000000   0.0555556   0.1666667), wk =   0.0082305
        k(   14) = (   0.0000000   0.0555556   0.2222222), wk =   0.0082305
        k(   15) = (   0.0000000   0.0555556   0.2777778), wk =   0.0082305
        k(   16) = (   0.0000000   0.0555556   0.3333333), wk =   0.0082305
        k(   17) = (   0.0000000   0.0555556   0.3888889), wk =   0.0082305
        k(   18) = (   0.0000000   0.0555556   0.4444444), wk =   0.0082305
        k(   19) = (   0.0000000   0.0555556  -0.5000000), wk =   0.0041152
        k(   20) = (   0.0000000   0.1111111   0.1111111), wk =   0.0041152
        k(   21) = (   0.0000000   0.1111111   0.1666667), wk =   0.0082305
        k(   22) = (   0.0000000   0.1111111   0.2222222), wk =   0.0082305
        k(   23) = (   0.0000000   0.1111111   0.2777778), wk =   0.0082305
        k(   24) = (   0.0000000   0.1111111   0.3333333), wk =   0.0082305
        k(   25) = (   0.0000000   0.1111111   0.3888889), wk =   0.0082305
        k(   26) = (   0.0000000   0.1111111   0.4444444), wk =   0.0082305
        k(   27) = (   0.0000000   0.1111111  -0.5000000), wk =   0.0041152
        k(   28) = (   0.0000000   0.1666667   0.1666667), wk =   0.0041152
        k(   29) = (   0.0000000   0.1666667   0.2222222), wk =   0.0082305
        k(   30) = (   0.0000000   0.1666667   0.2777778), wk =   0.0082305
        k(   31) = (   0.0000000   0.1666667   0.3333333), wk =   0.0082305
        k(   32) = (   0.0000000   0.1666667   0.3888889), wk =   0.0082305
        k(   33) = (   0.0000000   0.1666667   0.4444444), wk =   0.0082305
        k(   34) = (   0.0000000   0.1666667  -0.5000000), wk =   0.0041152
        k(   35) = (   0.0000000   0.2222222   0.2222222), wk =   0.0041152
        k(   36) = (   0.0000000   0.2222222   0.2777778), wk =   0.0082305
        k(   37) = (   0.0000000   0.2222222   0.3333333), wk =   0.0082305
        k(   38) = (   0.0000000   0.2222222   0.3888889), wk =   0.0082305
        k(   39) = (   0.0000000   0.2222222   0.4444444), wk =   0.0082305
        k(   40) = (   0.0000000   0.2222222  -0.5000000), wk =   0.0041152
        k(   41) = (   0.0000000   0.2777778   0.2777778), wk =   0.0041152
        k(   42) = (   0.0000000   0.2777778   0.3333333), wk =   0.0082305
        k(   43) = (   0.0000000   0.2777778   0.3888889), wk =   0.0082305
        k(   44) = (   0.0000000   0.2777778   0.4444444), wk =   0.0082305
        k(   45) = (   0.0000000   0.2777778  -0.5000000), wk =   0.0041152
        k(   46) = (   0.0000000   0.3333333   0.3333333), wk =   0.0041152
        k(   47) = (   0.0000000   0.3333333   0.3888889), wk =   0.0082305
        k(   48) = (   0.0000000   0.3333333   0.4444444), wk =   0.0082305
        k(   49) = (   0.0000000   0.3333333  -0.5000000), wk =   0.0041152
        k(   50) = (   0.0000000   0.3888889   0.3888889), wk =   0.0041152
        k(   51) = (   0.0000000   0.3888889   0.4444444), wk =   0.0082305
        k(   52) = (   0.0000000   0.3888889  -0.5000000), wk =   0.0041152
        k(   53) = (   0.0000000   0.4444444   0.4444444), wk =   0.0041152
        k(   54) = (   0.0000000   0.4444444  -0.5000000), wk =   0.0041152
        k(   55) = (   0.0000000  -0.5000000  -0.5000000), wk =   0.0010288
        k(   56) = (   0.0555556   0.0555556   0.0555556), wk =   0.0027435
        k(   57) = (   0.0555556   0.0555556   0.1111111), wk =   0.0082305
        k(   58) = (   0.0555556   0.0555556   0.1666667), wk =   0.0082305
        k(   59) = (   0.0555556   0.0555556   0.2222222), wk =   0.0082305
        k(   60) = (   0.0555556   0.0555556   0.2777778), wk =   0.0082305
        k(   61) = (   0.0555556   0.0555556   0.3333333), wk =   0.0082305
        k(   62) = (   0.0555556   0.0555556   0.3888889), wk =   0.0082305
        k(   63) = (   0.0555556   0.0555556   0.4444444), wk =   0.0082305
        k(   64) = (   0.0555556   0.0555556  -0.5000000), wk =   0.0041152
        k(   65) = (   0.0555556   0.1111111   0.1111111), wk =   0.0082305
        k(   66) = (   0.0555556   0.1111111   0.1666667), wk =   0.0164609
        k(   67) = (   0.0555556   0.1111111   0.2222222), wk =   0.0164609
        k(   68) = (   0.0555556   0.1111111   0.2777778), wk =   0.0164609
        k(   69) = (   0.0555556   0.1111111   0.3333333), wk =   0.0164609
        k(   70) = (   0.0555556   0.1111111   0.3888889), wk =   0.0164609
        k(   71) = (   0.0555556   0.1111111   0.4444444), wk =   0.0164609
        k(   72) = (   0.0555556   0.1111111  -0.5000000), wk =   0.0082305
        k(   73) = (   0.0555556   0.1666667   0.1666667), wk =   0.0082305
        k(   74) = (   0.0555556   0.1666667   0.2222222), wk =   0.0164609
        k(   75) = (   0.0555556   0.1666667   0.2777778), wk =   0.0164609
        k(   76) = (   0.0555556   0.1666667   0.3333333), wk =   0.0164609
        k(   77) = (   0.0555556   0.1666667   0.3888889), wk =   0.0164609
        k(   78) = (   0.0555556   0.1666667   0.4444444), wk =   0.0164609
        k(   79) = (   0.0555556   0.1666667  -0.5000000), wk =   0.0082305
        k(   80) = (   0.0555556   0.2222222   0.2222222), wk =   0.0082305
        k(   81) = (   0.0555556   0.2222222   0.2777778), wk =   0.0164609
        k(   82) = (   0.0555556   0.2222222   0.3333333), wk =   0.0164609
        k(   83) = (   0.0555556   0.2222222   0.3888889), wk =   0.0164609
        k(   84) = (   0.0555556   0.2222222   0.4444444), wk =   0.0164609
        k(   85) = (   0.0555556   0.2222222  -0.5000000), wk =   0.0082305
        k(   86) = (   0.0555556   0.2777778   0.2777778), wk =   0.0082305
        k(   87) = (   0.0555556   0.2777778   0.3333333), wk =   0.0164609
        k(   88) = (   0.0555556   0.2777778   0.3888889), wk =   0.0164609
        k(   89) = (   0.0555556   0.2777778   0.4444444), wk =   0.0164609
        k(   90) = (   0.0555556   0.2777778  -0.5000000), wk =   0.0082305
        k(   91) = (   0.0555556   0.3333333   0.3333333), wk =   0.0082305
        k(   92) = (   0.0555556   0.3333333   0.3888889), wk =   0.0164609
        k(   93) = (   0.0555556   0.3333333   0.4444444), wk =   0.0164609
        k(   94) = (   0.0555556   0.3333333  -0.5000000), wk =   0.0082305
        k(   95) = (   0.0555556   0.3888889   0.3888889), wk =   0.0082305
        k(   96) = (   0.0555556   0.3888889   0.4444444), wk =   0.0164609
        k(   97) = (   0.0555556   0.3888889  -0.5000000), wk =   0.0082305
        k(   98) = (   0.0555556   0.4444444   0.4444444), wk =   0.0082305
        k(   99) = (   0.0555556   0.4444444  -0.5000000), wk =   0.0082305
        k(  100) = (   0.0555556  -0.5000000  -0.5000000), wk =   0.0020576
        k(  101) = (   0.1111111   0.1111111   0.1111111), wk =   0.0027435
        k(  102) = (   0.1111111   0.1111111   0.1666667), wk =   0.0082305
        k(  103) = (   0.1111111   0.1111111   0.2222222), wk =   0.0082305
        k(  104) = (   0.1111111   0.1111111   0.2777778), wk =   0.0082305
        k(  105) = (   0.1111111   0.1111111   0.3333333), wk =   0.0082305
        k(  106) = (   0.1111111   0.1111111   0.3888889), wk =   0.0082305
        k(  107) = (   0.1111111   0.1111111   0.4444444), wk =   0.0082305
        k(  108) = (   0.1111111   0.1111111  -0.5000000), wk =   0.0041152
        k(  109) = (   0.1111111   0.1666667   0.1666667), wk =   0.0082305
        k(  110) = (   0.1111111   0.1666667   0.2222222), wk =   0.0164609
        k(  111) = (   0.1111111   0.1666667   0.2777778), wk =   0.0164609
        k(  112) = (   0.1111111   0.1666667   0.3333333), wk =   0.0164609
        k(  113) = (   0.1111111   0.1666667   0.3888889), wk =   0.0164609
        k(  114) = (   0.1111111   0.1666667   0.4444444), wk =   0.0164609
        k(  115) = (   0.1111111   0.1666667  -0.5000000), wk =   0.0082305
        k(  116) = (   0.1111111   0.2222222   0.2222222), wk =   0.0082305
        k(  117) = (   0.1111111   0.2222222   0.2777778), wk =   0.0164609
        k(  118) = (   0.1111111   0.2222222   0.3333333), wk =   0.0164609
        k(  119) = (   0.1111111   0.2222222   0.3888889), wk =   0.0164609
        k(  120) = (   0.1111111   0.2222222   0.4444444), wk =   0.0164609
        k(  121) = (   0.1111111   0.2222222  -0.5000000), wk =   0.0082305
        k(  122) = (   0.1111111   0.2777778   0.2777778), wk =   0.0082305
        k(  123) = (   0.1111111   0.2777778   0.3333333), wk =   0.0164609
        k(  124) = (   0.1111111   0.2777778   0.3888889), wk =   0.0164609
        k(  125) = (   0.1111111   0.2777778   0.4444444), wk =   0.0164609
        k(  126) = (   0.1111111   0.2777778  -0.5000000), wk =   0.0082305
        k(  127) = (   0.1111111   0.3333333   0.3333333), wk =   0.0082305
        k(  128) = (   0.1111111   0.3333333   0.3888889), wk =   0.0164609
        k(  129) = (   0.1111111   0.3333333   0.4444444), wk =   0.0164609
        k(  130) = (   0.1111111   0.3333333  -0.5000000), wk =   0.0082305
        k(  131) = (   0.1111111   0.3888889   0.3888889), wk =   0.0082305
        k(  132) = (   0.1111111   0.3888889   0.4444444), wk =   0.0164609
        k(  133) = (   0.1111111   0.3888889  -0.5000000), wk =   0.0082305
        k(  134) = (   0.1111111   0.4444444   0.4444444), wk =   0.0082305
        k(  135) = (   0.1111111   0.4444444  -0.5000000), wk =   0.0082305
        k(  136) = (   0.1111111  -0.5000000  -0.5000000), wk =   0.0020576
        k(  137) = (   0.1666667   0.1666667   0.1666667), wk =   0.0027435
        k(  138) = (   0.1666667   0.1666667   0.2222222), wk =   0.0082305
        k(  139) = (   0.1666667   0.1666667   0.2777778), wk =   0.0082305
        k(  140) = (   0.1666667   0.1666667   0.3333333), wk =   0.0082305
        k(  141) = (   0.1666667   0.1666667   0.3888889), wk =   0.0082305
        k(  142) = (   0.1666667   0.1666667   0.4444444), wk =   0.0082305
        k(  143) = (   0.1666667   0.1666667  -0.5000000), wk =   0.0041152
        k(  144) = (   0.1666667   0.2222222   0.2222222), wk =   0.0082305
        k(  145) = (   0.1666667   0.2222222   0.2777778), wk =   0.0164609
        k(  146) = (   0.1666667   0.2222222   0.3333333), wk =   0.0164609
        k(  147) = (   0.1666667   0.2222222   0.3888889), wk =   0.0164609
        k(  148) = (   0.1666667   0.2222222   0.4444444), wk =   0.0164609
        k(  149) = (   0.1666667   0.2222222  -0.5000000), wk =   0.0082305
        k(  150) = (   0.1666667   0.2777778   0.2777778), wk =   0.0082305
        k(  151) = (   0.1666667   0.2777778   0.3333333), wk =   0.0164609
        k(  152) = (   0.1666667   0.2777778   0.3888889), wk =   0.0164609
        k(  153) = (   0.1666667   0.2777778   0.4444444), wk =   0.0164609
        k(  154) = (   0.1666667   0.2777778  -0.5000000), wk =   0.0082305
        k(  155) = (   0.1666667   0.3333333   0.3333333), wk =   0.0082305
        k(  156) = (   0.1666667   0.3333333   0.3888889), wk =   0.0164609
        k(  157) = (   0.1666667   0.3333333   0.4444444), wk =   0.0164609
        k(  158) = (   0.1666667   0.3333333  -0.5000000), wk =   0.0082305
        k(  159) = (   0.1666667   0.3888889   0.3888889), wk =   0.0082305
        k(  160) = (   0.1666667   0.3888889   0.4444444), wk =   0.0164609
        k(  161) = (   0.1666667   0.3888889  -0.5000000), wk =   0.0082305
        k(  162) = (   0.1666667   0.4444444   0.4444444), wk =   0.0082305
        k(  163) = (   0.1666667   0.4444444  -0.5000000), wk =   0.0082305
        k(  164) = (   0.1666667  -0.5000000  -0.5000000), wk =   0.0020576
        k(  165) = (   0.2222222   0.2222222   0.2222222), wk =   0.0027435
        k(  166) = (   0.2222222   0.2222222   0.2777778), wk =   0.0082305
        k(  167) = (   0.2222222   0.2222222   0.3333333), wk =   0.0082305
        k(  168) = (   0.2222222   0.2222222   0.3888889), wk =   0.0082305
        k(  169) = (   0.2222222   0.2222222   0.4444444), wk =   0.0082305
        k(  170) = (   0.2222222   0.2222222  -0.5000000), wk =   0.0041152
        k(  171) = (   0.2222222   0.2777778   0.2777778), wk =   0.0082305
        k(  172) = (   0.2222222   0.2777778   0.3333333), wk =   0.0164609
        k(  173) = (   0.2222222   0.2777778   0.3888889), wk =   0.0164609
        k(  174) = (   0.2222222   0.2777778   0.4444444), wk =   0.0164609
        k(  175) = (   0.2222222   0.2777778  -0.5000000), wk =   0.0082305
        k(  176) = (   0.2222222   0.3333333   0.3333333), wk =   0.0082305
        k(  177) = (   0.2222222   0.3333333   0.3888889), wk =   0.0164609
        k(  178) = (   0.2222222   0.3333333   0.4444444), wk =   0.0164609
        k(  179) = (   0.2222222   0.3333333  -0.5000000), wk =   0.0082305
        k(  180) = (   0.2222222   0.3888889   0.3888889), wk =   0.0082305
        k(  181) = (   0.2222222   0.3888889   0.4444444), wk =   0.0164609
        k(  182) = (   0.2222222   0.3888889  -0.5000000), wk =   0.0082305
        k(  183) = (   0.2222222   0.4444444   0.4444444), wk =   0.0082305
        k(  184) = (   0.2222222   0.4444444  -0.5000000), wk =   0.0082305
        k(  185) = (   0.2222222  -0.5000000  -0.5000000), wk =   0.0020576
        k(  186) = (   0.2777778   0.2777778   0.2777778), wk =   0.0027435
        k(  187) = (   0.2777778   0.2777778   0.3333333), wk =   0.0082305
        k(  188) = (   0.2777778   0.2777778   0.3888889), wk =   0.0082305
        k(  189) = (   0.2777778   0.2777778   0.4444444), wk =   0.0082305
        k(  190) = (   0.2777778   0.2777778  -0.5000000), wk =   0.0041152
        k(  191) = (   0.2777778   0.3333333   0.3333333), wk =   0.0082305
        k(  192) = (   0.2777778   0.3333333   0.3888889), wk =   0.0164609
        k(  193) = (   0.2777778   0.3333333   0.4444444), wk =   0.0164609
        k(  194) = (   0.2777778   0.3333333  -0.5000000), wk =   0.0082305
        k(  195) = (   0.2777778   0.3888889   0.3888889), wk =   0.0082305
        k(  196) = (   0.2777778   0.3888889   0.4444444), wk =   0.0164609
        k(  197) = (   0.2777778   0.3888889  -0.5000000), wk =   0.0082305
        k(  198) = (   0.2777778   0.4444444   0.4444444), wk =   0.0082305
        k(  199) = (   0.2777778   0.4444444  -0.5000000), wk =   0.0082305
        k(  200) = (   0.2777778  -0.5000000  -0.5000000), wk =   0.0020576
        k(  201) = (   0.3333333   0.3333333   0.3333333), wk =   0.0027435
        k(  202) = (   0.3333333   0.3333333   0.3888889), wk =   0.0082305
        k(  203) = (   0.3333333   0.3333333   0.4444444), wk =   0.0082305
        k(  204) = (   0.3333333   0.3333333  -0.5000000), wk =   0.0041152
        k(  205) = (   0.3333333   0.3888889   0.3888889), wk =   0.0082305
        k(  206) = (   0.3333333   0.3888889   0.4444444), wk =   0.0164609
        k(  207) = (   0.3333333   0.3888889  -0.5000000), wk =   0.0082305
        k(  208) = (   0.3333333   0.4444444   0.4444444), wk =   0.0082305
        k(  209) = (   0.3333333   0.4444444  -0.5000000), wk =   0.0082305
        k(  210) = (   0.3333333  -0.5000000  -0.5000000), wk =   0.0020576
        k(  211) = (   0.3888889   0.3888889   0.3888889), wk =   0.0027435
        k(  212) = (   0.3888889   0.3888889   0.4444444), wk =   0.0082305
        k(  213) = (   0.3888889   0.3888889  -0.5000000), wk =   0.0041152
        k(  214) = (   0.3888889   0.4444444   0.4444444), wk =   0.0082305
        k(  215) = (   0.3888889   0.4444444  -0.5000000), wk =   0.0082305
        k(  216) = (   0.3888889  -0.5000000  -0.5000000), wk =   0.0020576
        k(  217) = (   0.4444444   0.4444444   0.4444444), wk =   0.0027435
        k(  218) = (   0.4444444   0.4444444  -0.5000000), wk =   0.0041152
        k(  219) = (   0.4444444  -0.5000000  -0.5000000), wk =   0.0020576
        k(  220) = (  -0.5000000  -0.5000000  -0.5000000), wk =   0.0003429

                       cryst. coord.
        k(    1) = (   0.0000000   0.0000000   0.0000000), wk =   0.0003429
        k(    2) = (   0.0000000   0.0000000   0.0555556), wk =   0.0020576
        k(    3) = (   0.0000000   0.0000000   0.1111111), wk =   0.0020576
        k(    4) = (   0.0000000   0.0000000   0.1666667), wk =   0.0020576
        k(    5) = (   0.0000000   0.0000000   0.2222222), wk =   0.0020576
        k(    6) = (   0.0000000   0.0000000   0.2777778), wk =   0.0020576
        k(    7) = (   0.0000000   0.0000000   0.3333333), wk =   0.0020576
        k(    8) = (   0.0000000   0.0000000   0.3888889), wk =   0.0020576
        k(    9) = (   0.0000000   0.0000000   0.4444444), wk =   0.0020576
        k(   10) = (   0.0000000   0.0000000  -0.5000000), wk =   0.0010288
        k(   11) = (   0.0000000   0.0555556   0.0555556), wk =   0.0041152
        k(   12) = (   0.0000000   0.0555556   0.1111111), wk =   0.0082305
        k(   13) = (   0.0000000   0.0555556   0.1666667), wk =   0.0082305
        k(   14) = (   0.0000000   0.0555556   0.2222222), wk =   0.0082305
        k(   15) = (   0.0000000   0.0555556   0.2777778), wk =   0.0082305
        k(   16) = (   0.0000000   0.0555556   0.3333333), wk =   0.0082305
        k(   17) = (   0.0000000   0.0555556   0.3888889), wk =   0.0082305
        k(   18) = (   0.0000000   0.0555556   0.4444444), wk =   0.0082305
        k(   19) = (   0.0000000   0.0555556  -0.5000000), wk =   0.0041152
        k(   20) = (   0.0000000   0.1111111   0.1111111), wk =   0.0041152
        k(   21) = (   0.0000000   0.1111111   0.1666667), wk =   0.0082305
        k(   22) = (   0.0000000   0.1111111   0.2222222), wk =   0.0082305
        k(   23) = (   0.0000000   0.1111111   0.2777778), wk =   0.0082305
        k(   24) = (   0.0000000   0.1111111   0.3333333), wk =   0.0082305
        k(   25) = (   0.0000000   0.1111111   0.3888889), wk =   0.0082305
        k(   26) = (   0.0000000   0.1111111   0.4444444), wk =   0.0082305
        k(   27) = (   0.0000000   0.1111111  -0.5000000), wk =   0.0041152
        k(   28) = (   0.0000000   0.1666667   0.1666667), wk =   0.0041152
        k(   29) = (   0.0000000   0.1666667   0.2222222), wk =   0.0082305
        k(   30) = (   0.0000000   0.1666667   0.2777778), wk =   0.0082305
        k(   31) = (   0.0000000   0.1666667   0.3333333), wk =   0.0082305
        k(   32) = (   0.0000000   0.1666667   0.3888889), wk =   0.0082305
        k(   33) = (   0.0000000   0.1666667   0.4444444), wk =   0.0082305
        k(   34) = (   0.0000000   0.1666667  -0.5000000), wk =   0.0041152
        k(   35) = (   0.0000000   0.2222222   0.2222222), wk =   0.0041152
        k(   36) = (   0.0000000   0.2222222   0.2777778), wk =   0.0082305
        k(   37) = (   0.0000000   0.2222222   0.3333333), wk =   0.0082305
        k(   38) = (   0.0000000   0.2222222   0.3888889), wk =   0.0082305
        k(   39) = (   0.0000000   0.2222222   0.4444444), wk =   0.0082305
        k(   40) = (   0.0000000   0.2222222  -0.5000000), wk =   0.0041152
        k(   41) = (   0.0000000   0.2777778   0.2777778), wk =   0.0041152
        k(   42) = (   0.0000000   0.2777778   0.3333333), wk =   0.0082305
        k(   43) = (   0.0000000   0.2777778   0.3888889), wk =   0.0082305
        k(   44) = (   0.0000000   0.2777778   0.4444444), wk =   0.0082305
        k(   45) = (   0.0000000   0.2777778  -0.5000000), wk =   0.0041152
        k(   46) = (   0.0000000   0.3333333   0.3333333), wk =   0.0041152
        k(   47) = (   0.0000000   0.3333333   0.3888889), wk =   0.0082305
        k(   48) = (   0.0000000   0.3333333   0.4444444), wk =   0.0082305
        k(   49) = (   0.0000000   0.3333333  -0.5000000), wk =   0.0041152
        k(   50) = (   0.0000000   0.3888889   0.3888889), wk =   0.0041152
        k(   51) = (   0.0000000   0.3888889   0.4444444), wk =   0.0082305
        k(   52) = (   0.0000000   0.3888889  -0.5000000), wk =   0.0041152
        k(   53) = (   0.0000000   0.4444444   0.4444444), wk =   0.0041152
        k(   54) = (   0.0000000   0.4444444  -0.5000000), wk =   0.0041152
        k(   55) = (   0.0000000  -0.5000000  -0.5000000), wk =   0.0010288
        k(   56) = (   0.0555556   0.0555556   0.0555556), wk =   0.0027435
        k(   57) = (   0.0555556   0.0555556   0.1111111), wk =   0.0082305
        k(   58) = (   0.0555556   0.0555556   0.1666667), wk =   0.0082305
        k(   59) = (   0.0555556   0.0555556   0.2222222), wk =   0.0082305
        k(   60) = (   0.0555556   0.0555556   0.2777778), wk =   0.0082305
        k(   61) = (   0.0555556   0.0555556   0.3333333), wk =   0.0082305
        k(   62) = (   0.0555556   0.0555556   0.3888889), wk =   0.0082305
        k(   63) = (   0.0555556   0.0555556   0.4444444), wk =   0.0082305
        k(   64) = (   0.0555556   0.0555556  -0.5000000), wk =   0.0041152
        k(   65) = (   0.0555556   0.1111111   0.1111111), wk =   0.0082305
        k(   66) = (   0.0555556   0.1111111   0.1666667), wk =   0.0164609
        k(   67) = (   0.0555556   0.1111111   0.2222222), wk =   0.0164609
        k(   68) = (   0.0555556   0.1111111   0.2777778), wk =   0.0164609
        k(   69) = (   0.0555556   0.1111111   0.3333333), wk =   0.0164609
        k(   70) = (   0.0555556   0.1111111   0.3888889), wk =   0.0164609
        k(   71) = (   0.0555556   0.1111111   0.4444444), wk =   0.0164609
        k(   72) = (   0.0555556   0.1111111  -0.5000000), wk =   0.0082305
        k(   73) = (   0.0555556   0.1666667   0.1666667), wk =   0.0082305
        k(   74) = (   0.0555556   0.1666667   0.2222222), wk =   0.0164609
        k(   75) = (   0.0555556   0.1666667   0.2777778), wk =   0.0164609
        k(   76) = (   0.0555556   0.1666667   0.3333333), wk =   0.0164609
        k(   77) = (   0.0555556   0.1666667   0.3888889), wk =   0.0164609
        k(   78) = (   0.0555556   0.1666667   0.4444444), wk =   0.0164609
        k(   79) = (   0.0555556   0.1666667  -0.5000000), wk =   0.0082305
        k(   80) = (   0.0555556   0.2222222   0.2222222), wk =   0.0082305
        k(   81) = (   0.0555556   0.2222222   0.2777778), wk =   0.0164609
        k(   82) = (   0.0555556   0.2222222   0.3333333), wk =   0.0164609
        k(   83) = (   0.0555556   0.2222222   0.3888889), wk =   0.0164609
        k(   84) = (   0.0555556   0.2222222   0.4444444), wk =   0.0164609
        k(   85) = (   0.0555556   0.2222222  -0.5000000), wk =   0.0082305
        k(   86) = (   0.0555556   0.2777778   0.2777778), wk =   0.0082305
        k(   87) = (   0.0555556   0.2777778   0.3333333), wk =   0.0164609
        k(   88) = (   0.0555556   0.2777778   0.3888889), wk =   0.0164609
        k(   89) = (   0.0555556   0.2777778   0.4444444), wk =   0.0164609
        k(   90) = (   0.0555556   0.2777778  -0.5000000), wk =   0.0082305
        k(   91) = (   0.0555556   0.3333333   0.3333333), wk =   0.0082305
        k(   92) = (   0.0555556   0.3333333   0.3888889), wk =   0.0164609
        k(   93) = (   0.0555556   0.3333333   0.4444444), wk =   0.0164609
        k(   94) = (   0.0555556   0.3333333  -0.5000000), wk =   0.0082305
        k(   95) = (   0.0555556   0.3888889   0.3888889), wk =   0.0082305
        k(   96) = (   0.0555556   0.3888889   0.4444444), wk =   0.0164609
        k(   97) = (   0.0555556   0.3888889  -0.5000000), wk =   0.0082305
        k(   98) = (   0.0555556   0.4444444   0.4444444), wk =   0.0082305
        k(   99) = (   0.0555556   0.4444444  -0.5000000), wk =   0.0082305
        k(  100) = (   0.0555556  -0.5000000  -0.5000000), wk =   0.0020576
        k(  101) = (   0.1111111   0.1111111   0.1111111), wk =   0.0027435
        k(  102) = (   0.1111111   0.1111111   0.1666667), wk =   0.0082305
        k(  103) = (   0.1111111   0.1111111   0.2222222), wk =   0.0082305
        k(  104) = (   0.1111111   0.1111111   0.2777778), wk =   0.0082305
        k(  105) = (   0.1111111   0.1111111   0.3333333), wk =   0.0082305
        k(  106) = (   0.1111111   0.1111111   0.3888889), wk =   0.0082305
        k(  107) = (   0.1111111   0.1111111   0.4444444), wk =   0.0082305
        k(  108) = (   0.1111111   0.1111111  -0.5000000), wk =   0.0041152
        k(  109) = (   0.1111111   0.1666667   0.1666667), wk =   0.0082305
        k(  110) = (   0.1111111   0.1666667   0.2222222), wk =   0.0164609
        k(  111) = (   0.1111111   0.1666667   0.2777778), wk =   0.0164609
        k(  112) = (   0.1111111   0.1666667   0.3333333), wk =   0.0164609
        k(  113) = (   0.1111111   0.1666667   0.3888889), wk =   0.0164609
        k(  114) = (   0.1111111   0.1666667   0.4444444), wk =   0.0164609
        k(  115) = (   0.1111111   0.1666667  -0.5000000), wk =   0.0082305
        k(  116) = (   0.1111111   0.2222222   0.2222222), wk =   0.0082305
        k(  117) = (   0.1111111   0.2222222   0.2777778), wk =   0.0164609
        k(  118) = (   0.1111111   0.2222222   0.3333333), wk =   0.0164609
        k(  119) = (   0.1111111   0.2222222   0.3888889), wk =   0.0164609
        k(  120) = (   0.1111111   0.2222222   0.4444444), wk =   0.0164609
        k(  121) = (   0.1111111   0.2222222  -0.5000000), wk =   0.0082305
        k(  122) = (   0.1111111   0.2777778   0.2777778), wk =   0.0082305
        k(  123) = (   0.1111111   0.2777778   0.3333333), wk =   0.0164609
        k(  124) = (   0.1111111   0.2777778   0.3888889), wk =   0.0164609
        k(  125) = (   0.1111111   0.2777778   0.4444444), wk =   0.0164609
        k(  126) = (   0.1111111   0.2777778  -0.5000000), wk =   0.0082305
        k(  127) = (   0.1111111   0.3333333   0.3333333), wk =   0.0082305
        k(  128) = (   0.1111111   0.3333333   0.3888889), wk =   0.0164609
        k(  129) = (   0.1111111   0.3333333   0.4444444), wk =   0.0164609
        k(  130) = (   0.1111111   0.3333333  -0.5000000), wk =   0.0082305
        k(  131) = (   0.1111111   0.3888889   0.3888889), wk =   0.0082305
        k(  132) = (   0.1111111   0.3888889   0.4444444), wk =   0.0164609
        k(  133) = (   0.1111111   0.3888889  -0.5000000), wk =   0.0082305
        k(  134) = (   0.1111111   0.4444444   0.4444444), wk =   0.0082305
        k(  135) = (   0.1111111   0.4444444  -0.5000000), wk =   0.0082305
        k(  136) = (   0.1111111  -0.5000000  -0.5000000), wk =   0.0020576
        k(  137) = (   0.1666667   0.1666667   0.1666667), wk =   0.0027435
        k(  138) = (   0.1666667   0.1666667   0.2222222), wk =   0.0082305
        k(  139) = (   0.1666667   0.1666667   0.2777778), wk =   0.0082305
        k(  140) = (   0.1666667   0.1666667   0.3333333), wk =   0.0082305
        k(  141) = (   0.1666667   0.1666667   0.3888889), wk =   0.0082305
        k(  142) = (   0.1666667   0.1666667   0.4444444), wk =   0.0082305
        k(  143) = (   0.1666667   0.1666667  -0.5000000), wk =   0.0041152
        k(  144) = (   0.1666667   0.2222222   0.2222222), wk =   0.0082305
        k(  145) = (   0.1666667   0.2222222   0.2777778), wk =   0.0164609
        k(  146) = (   0.1666667   0.2222222   0.3333333), wk =   0.0164609
        k(  147) = (   0.1666667   0.2222222   0.3888889), wk =   0.0164609
        k(  148) = (   0.1666667   0.2222222   0.4444444), wk =   0.0164609
        k(  149) = (   0.1666667   0.2222222  -0.5000000), wk =   0.0082305
        k(  150) = (   0.1666667   0.2777778   0.2777778), wk =   0.0082305
        k(  151) = (   0.1666667   0.2777778   0.3333333), wk =   0.0164609
        k(  152) = (   0.1666667   0.2777778   0.3888889), wk =   0.0164609
        k(  153) = (   0.1666667   0.2777778   0.4444444), wk =   0.0164609
        k(  154) = (   0.1666667   0.2777778  -0.5000000), wk =   0.0082305
        k(  155) = (   0.1666667   0.3333333   0.3333333), wk =   0.0082305
        k(  156) = (   0.1666667   0.3333333   0.3888889), wk =   0.0164609
        k(  157) = (   0.1666667   0.3333333   0.4444444), wk =   0.0164609
        k(  158) = (   0.1666667   0.3333333  -0.5000000), wk =   0.0082305
        k(  159) = (   0.1666667   0.3888889   0.3888889), wk =   0.0082305
        k(  160) = (   0.1666667   0.3888889   0.4444444), wk =   0.0164609
        k(  161) = (   0.1666667   0.3888889  -0.5000000), wk =   0.0082305
        k(  162) = (   0.1666667   0.4444444   0.4444444), wk =   0.0082305
        k(  163) = (   0.1666667   0.4444444  -0.5000000), wk =   0.0082305
        k(  164) = (   0.1666667  -0.5000000  -0.5000000), wk =   0.0020576
        k(  165) = (   0.2222222   0.2222222   0.2222222), wk =   0.0027435
        k(  166) = (   0.2222222   0.2222222   0.2777778), wk =   0.0082305
        k(  167) = (   0.2222222   0.2222222   0.3333333), wk =   0.0082305
        k(  168) = (   0.2222222   0.2222222   0.3888889), wk =   0.0082305
        k(  169) = (   0.2222222   0.2222222   0.4444444), wk =   0.0082305
        k(  170) = (   0.2222222   0.2222222  -0.5000000), wk =   0.0041152
        k(  171) = (   0.2222222   0.2777778   0.2777778), wk =   0.0082305
        k(  172) = (   0.2222222   0.2777778   0.3333333), wk =   0.0164609
        k(  173) = (   0.2222222   0.2777778   0.3888889), wk =   0.0164609
        k(  174) = (   0.2222222   0.2777778   0.4444444), wk =   0.0164609
        k(  175) = (   0.2222222   0.2777778  -0.5000000), wk =   0.0082305
        k(  176) = (   0.2222222   0.3333333   0.3333333), wk =   0.0082305
        k(  177) = (   0.2222222   0.3333333   0.3888889), wk =   0.0164609
        k(  178) = (   0.2222222   0.3333333   0.4444444), wk =   0.0164609
        k(  179) = (   0.2222222   0.3333333  -0.5000000), wk =   0.0082305
        k(  180) = (   0.2222222   0.3888889   0.3888889), wk =   0.0082305
        k(  181) = (   0.2222222   0.3888889   0.4444444), wk =   0.0164609
        k(  182) = (   0.2222222   0.3888889  -0.5000000), wk =   0.0082305
        k(  183) = (   0.2222222   0.4444444   0.4444444), wk =   0.0082305
        k(  184) = (   0.2222222   0.4444444  -0.5000000), wk =   0.0082305
        k(  185) = (   0.2222222  -0.5000000  -0.5000000), wk =   0.0020576
        k(  186) = (   0.2777778   0.2777778   0.2777778), wk =   0.0027435
        k(  187) = (   0.2777778   0.2777778   0.3333333), wk =   0.0082305
        k(  188) = (   0.2777778   0.2777778   0.3888889), wk =   0.0082305
        k(  189) = (   0.2777778   0.2777778   0.4444444), wk =   0.0082305
        k(  190) = (   0.2777778   0.2777778  -0.5000000), wk =   0.0041152
        k(  191) = (   0.2777778   0.3333333   0.3333333), wk =   0.0082305
        k(  192) = (   0.2777778   0.3333333   0.3888889), wk =   0.0164609
        k(  193) = (   0.2777778   0.3333333   0.4444444), wk =   0.0164609
        k(  194) = (   0.2777778   0.3333333  -0.5000000), wk =   0.0082305
        k(  195) = (   0.2777778   0.3888889   0.3888889), wk =   0.0082305
        k(  196) = (   0.2777778   0.3888889   0.4444444), wk =   0.0164609
        k(  197) = (   0.2777778   0.3888889  -0.5000000), wk =   0.0082305
        k(  198) = (   0.2777778   0.4444444   0.4444444), wk =   0.0082305
        k(  199) = (   0.2777778   0.4444444  -0.5000000), wk =   0.0082305
        k(  200) = (   0.2777778  -0.5000000  -0.5000000), wk =   0.0020576
        k(  201) = (   0.3333333   0.3333333   0.3333333), wk =   0.0027435
        k(  202) = (   0.3333333   0.3333333   0.3888889), wk =   0.0082305
        k(  203) = (   0.3333333   0.3333333   0.4444444), wk =   0.0082305
        k(  204) = (   0.3333333   0.3333333  -0.5000000), wk =   0.0041152
        k(  205) = (   0.3333333   0.3888889   0.3888889), wk =   0.0082305
        k(  206) = (   0.3333333   0.3888889   0.4444444), wk =   0.0164609
        k(  207) = (   0.3333333   0.3888889  -0.5000000), wk =   0.0082305
        k(  208) = (   0.3333333   0.4444444   0.4444444), wk =   0.0082305
        k(  209) = (   0.3333333   0.4444444  -0.5000000), wk =   0.0082305
        k(  210) = (   0.3333333  -0.5000000  -0.5000000), wk =   0.0020576
        k(  211) = (   0.3888889   0.3888889   0.3888889), wk =   0.0027435
        k(  212) = (   0.3888889   0.3888889   0.4444444), wk =   0.0082305
        k(  213) = (   0.3888889   0.3888889  -0.5000000), wk =   0.0041152
        k(  214) = (   0.3888889   0.4444444   0.4444444), wk =   0.0082305
        k(  215) = (   0.3888889   0.4444444  -0.5000000), wk =   0.0082305
        k(  216) = (   0.3888889  -0.5000000  -0.5000000), wk =   0.0020576
        k(  217) = (   0.4444444   0.4444444   0.4444444), wk =   0.0027435
        k(  218) = (   0.4444444   0.4444444  -0.5000000), wk =   0.0041152
        k(  219) = (   0.4444444  -0.5000000  -0.5000000), wk =   0.0020576
        k(  220) = (  -0.5000000  -0.5000000  -0.5000000), wk =   0.0003429

     Dense  grid:    18613 G-vectors     FFT dimensions: (  36,  36,  36)

     Dynamical RAM for                 wfc:       0.04 MB

     Dynamical RAM for     wfc (w. buffer):       9.31 MB

     Dynamical RAM for           str. fact:       0.04 MB

     Dynamical RAM for           local pot:       0.00 MB

     Dynamical RAM for          nlocal pot:       0.13 MB

     Dynamical RAM for                qrad:       3.95 MB

     Dynamical RAM for          rho,v,vnew:       0.10 MB

     Dynamical RAM for               rhoin:       0.03 MB

     Dynamical RAM for            rho*nmix:       0.23 MB

     Dynamical RAM for           G-vectors:       0.06 MB

     Dynamical RAM for          h,s,v(r/c):       0.05 MB

     Dynamical RAM for          <psi|beta>:       0.03 MB

     Dynamical RAM for                 psi:       0.17 MB

     Dynamical RAM for                hpsi:       0.17 MB

     Dynamical RAM for                spsi:       0.17 MB

     Dynamical RAM for      wfcinit/wfcrot:       0.15 MB

     Dynamical RAM for           addusdens:       2.68 MB

     Estimated static dynamical RAM per process >      14.01 MB

     Estimated max dynamical RAM per process >      16.69 MB

     Estimated total dynamical RAM >     333.87 MB

     Check: negative/imaginary core charge=   -0.000005    0.000000

     Initial potential from superposition of free atoms
     Check: negative starting charge=   -0.062499

     starting charge   38.96630, renormalised to   40.00000

     negative rho (up, down):  6.416E-02 0.000E+00
     Starting wfcs are   35 randomized atomic wfcs

     total cpu time spent up to now is        2.0 secs

     Self-consistent Calculation

     iteration #  1     ecut=    50.00 Ry     beta= 0.70
     Davidson diagonalization with overlap
     ethr =  1.00E-02,  avg # of iterations =  2.0

     negative rho (up, down):  6.299E-02 0.000E+00

     total cpu time spent up to now is        5.9 secs

     total energy              =    -286.53106226 Ry
     Harris-Foulkes estimate   =    -287.28061795 Ry
     estimated scf accuracy    <       0.95405474 Ry

     iteration #  2     ecut=    50.00 Ry     beta= 0.70
     Davidson diagonalization with overlap
     ethr =  2.39E-03,  avg # of iterations =  3.2

     negative rho (up, down):  6.304E-02 0.000E+00

     total cpu time spent up to now is       12.5 secs

     total energy              =    -285.51539843 Ry
     Harris-Foulkes estimate   =    -287.81408249 Ry
     estimated scf accuracy    <       8.54109918 Ry

     iteration #  3     ecut=    50.00 Ry     beta= 0.70
     Davidson diagonalization with overlap
     ethr =  2.39E-03,  avg # of iterations =  3.7

     negative rho (up, down):  6.445E-02 0.000E+00

     total cpu time spent up to now is       19.6 secs

     total energy              =    -286.99640711 Ry
     Harris-Foulkes estimate   =    -287.09482846 Ry
     estimated scf accuracy    <       0.28438212 Ry

     iteration #  4     ecut=    50.00 Ry     beta= 0.70
     Davidson diagonalization with overlap
     ethr =  7.11E-04,  avg # of iterations =  2.5

     negative rho (up, down):  6.517E-02 0.000E+00

     total cpu time spent up to now is       24.4 secs

     total energy              =    -286.99652503 Ry
     Harris-Foulkes estimate   =    -287.02028639 Ry
     estimated scf accuracy    <       0.08335381 Ry

     iteration #  5     ecut=    50.00 Ry     beta= 0.70
     Davidson diagonalization with overlap
     ethr =  2.08E-04,  avg # of iterations =  3.5

     negative rho (up, down):  6.521E-02 0.000E+00

     total cpu time spent up to now is       30.0 secs

     total energy              =    -287.00432471 Ry
     Harris-Foulkes estimate   =    -287.00613612 Ry
     estimated scf accuracy    <       0.00497681 Ry

     iteration #  6     ecut=    50.00 Ry     beta= 0.70
     Davidson diagonalization with overlap
     ethr =  1.24E-05,  avg # of iterations =  4.0

     negative rho (up, down):  6.522E-02 0.000E+00

     total cpu time spent up to now is       36.5 secs

     total energy              =    -287.00520970 Ry
     Harris-Foulkes estimate   =    -287.00521664 Ry
     estimated scf accuracy    <       0.00003649 Ry

     iteration #  7     ecut=    50.00 Ry     beta= 0.70
     Davidson diagonalization with overlap
     ethr =  9.12E-08,  avg # of iterations =  3.1

     negative rho (up, down):  6.523E-02 0.000E+00

     total cpu time spent up to now is       42.5 secs

     total energy              =    -287.00522331 Ry
     Harris-Foulkes estimate   =    -287.00522343 Ry
     estimated scf accuracy    <       0.00000146 Ry

     iteration #  8     ecut=    50.00 Ry     beta= 0.70
     Davidson diagonalization with overlap
     ethr =  3.64E-09,  avg # of iterations =  2.9

     negative rho (up, down):  6.523E-02 0.000E+00

     total cpu time spent up to now is       47.8 secs

     total energy              =    -287.00522353 Ry
     Harris-Foulkes estimate   =    -287.00522357 Ry
     estimated scf accuracy    <       0.00000008 Ry

     iteration #  9     ecut=    50.00 Ry     beta= 0.70
     Davidson diagonalization with overlap
     ethr =  1.96E-10,  avg # of iterations =  2.2

     negative rho (up, down):  6.523E-02 0.000E+00

     total cpu time spent up to now is       52.7 secs

     End of self-consistent calculation

          k = 0.0000 0.0000 0.0000 (  2325 PWs)   bands (ev):

   -45.6614 -22.0176 -21.9557 -21.9557 -21.9557  -6.9266  -5.9098  -5.9098
    -4.0260  -4.0260  -4.0260   7.7509   7.7509   7.7509   9.3524   9.3524
     9.3524  10.2652  10.2652  10.2652  12.5473  12.5473  12.5473  15.2123

     occupation numbers 
     1.0000   1.0000   1.0000   1.0000   1.0000   1.0000   1.0000   1.0000
     1.0000   1.0000   1.0000   1.0000   1.0000   1.0000   1.0000   1.0000
     1.0000   1.0000   1.0000   1.0000   0.0000   0.0000   0.0000   0.0000

          k = 0.0000 0.0000 0.0556 (  2317 PWs)   bands (ev):

   -45.6613 -22.0249 -21.9556 -21.9556 -21.9500  -6.9268  -5.9121  -5.9084
    -4.0244  -4.0244  -4.0017   7.7072   7.7475   7.7475   9.3078   9.3078
     9.3217  10.1547  10.2404  10.2404  12.5525  12.6284  12.6284  15.2144

     occupation numbers 
     1.0000   1.0000   1.0000   1.0000   1.0000   1.0000   1.0000   1.0000
     1.0000   1.0000   1.0000   1.0000   1.0000   1.0000   1.0000   1.0000
     1.0000   1.0000   1.0000   1.0000   0.0000   0.0000   0.0000   0.0000

          k = 0.0000 0.0000 0.1111 (  2325 PWs)   bands (ev):

   -45.6612 -22.0419 -21.9552 -21.9552 -21.9377  -6.9313  -5.9117  -5.9046
    -4.0196  -4.0196  -3.9344   7.5804   7.7381   7.7381   9.1831   9.1831
     9.2356   9.8640  10.1807  10.1807  12.5677  12.8473  12.8473  15.2193

     occupation numbers 
     1.0000   1.0000   1.0000   1.0000   1.0000   1.0000   1.0000   1.0000
     1.0000   1.0000   1.0000   1.0000   1.0000   1.0000   1.0000   1.0000
     1.0000   1.0000   1.0000   1.0000   0.0000   0.0000   0.0000   0.0000

          k = 0.0000 0.0000 0.1667 (  2305 PWs)   bands (ev):

   -45.6611 -22.0626 -21.9547 -21.9547 -21.9241  -6.9486  -5.8987  -5.8926
    -4.0124  -4.0124  -3.8377   7.3824   7.7241   7.7241   9.0032   9.0032
     9.1098   9.4795  10.1107  10.1107  12.5913  13.1530  13.1530  15.2248

     occupation numbers 
     1.0000   1.0000   1.0000   1.0000   1.0000   1.0000   1.0000   1.0000
     1.0000   1.0000   1.0000   1.0000   1.0000   1.0000   1.0000   1.0000
     1.0000   1.0000   1.0000   1.0000   0.0000   0.0000   0.0000   0.0000

          k = 0.0000 0.0000 0.2222 (  2308 PWs)   bands (ev):

   -45.6608 -22.0842 -21.9541 -21.9541 -21.9111  -6.9842  -5.8915  -5.8433
    -4.0034  -4.0034  -3.7278   7.1322   7.7083   7.7083   8.7990   8.7990
     8.9640   9.0806  10.0438  10.0438  12.6205  13.4961  13.4961  15.2295

     occupation numbers 
     1.0000   1.0000   1.0000   1.0000   1.0000   1.0000   1.0000   1.0000
     1.0000   1.0000   1.0000   1.0000   1.0000   1.0000   1.0000   1.0000
     1.0000   1.0000   1.0000   1.0000   0.0000   0.0000   0.0000   0.0000

          k = 0.0000 0.0000 0.2778 (  2316 PWs)   bands (ev):

   -45.6606 -22.1048 -21.9535 -21.9535 -21.8996  -7.0344  -5.8838  -5.7663
    -3.9938  -3.9938  -3.6196   6.8562   7.6939   7.6939   8.5976   8.5976
     8.7209   8.8177   9.9853   9.9853  12.6523  13.8368  13.8368  15.2333

     occupation numbers 
     1.0000   1.0000   1.0000   1.0000   1.0000   1.0000   1.0000   1.0000
     1.0000   1.0000   1.0000   1.0000   1.0000   1.0000   1.0000   1.0000
     1.0000   1.0000   1.0000   1.0000   0.0000   0.0000   0.0000   0.0000

          k = 0.0000 0.0000 0.3333 (  2316 PWs)   bands (ev):

   -45.6604 -22.1228 -21.9528 -21.9528 -21.8902  -7.0887  -5.8765  -5.6762
    -3.9848  -3.9848  -3.5247   6.5878   7.6842   7.6842   8.4187   8.4187
     8.4294   8.6876   9.9377   9.9377  12.6827  14.1421  14.1421  15.2362

     occupation numbers 
     1.0000   1.0000   1.0000   1.0000   1.0000   1.0000   1.0000   1.0000
     1.0000   1.0000   1.0000   1.0000   1.0000   1.0000   1.0000   1.0000
     1.0000   1.0000   1.0000   1.0000   0.0000   0.0000   0.0000   0.0000

          k = 0.0000 0.0000 0.3889 (  2312 PWs)   bands (ev):

   -45.6602 -22.1367 -21.9523 -21.9523 -21.8831  -7.1361  -5.8706  -5.5927
    -3.9774  -3.9774  -3.4516   6.3632   7.6808   7.6808   8.2184   8.2767
     8.2767   8.5860   9.9025   9.9025  12.7079  14.3840  14.3840  15.2383

     occupation numbers 
     1.0000   1.0000   1.0000   1.0000   1.0000   1.0000   1.0000   1.0000
     1.0000   1.0000   1.0000   1.0000   1.0000   1.0000   1.0000   1.0000
     1.0000   1.0000   1.0000   1.0000   0.0000   0.0000   0.0000   0.0000

          k = 0.0000 0.0000 0.4444 (  2316 PWs)   bands (ev):

   -45.6601 -22.1456 -21.9520 -21.9520 -21.8788  -7.1679  -5.8667  -5.5338
    -3.9725  -3.9725  -3.4058   6.2141   7.6825   7.6825   8.0913   8.1837
     8.1837   8.5218   9.8809   9.8809  12.7245  14.5394  14.5394  15.2395

     occupation numbers 
     1.0000   1.0000   1.0000   1.0000   1.0000   1.0000   1.0000   1.0000
     1.0000   1.0000   1.0000   1.0000   1.0000   1.0000   1.0000   1.0000
     1.0000   1.0000   1.0000   1.0000   0.0000   0.0000   0.0000   0.0000

          k = 0.0000 0.0000-0.5000 (  2360 PWs)   bands (ev):

   -45.6601 -22.1486 -21.9519 -21.9519 -21.8773  -7.1791  -5.8653  -5.5127
    -3.9708  -3.9708  -3.3903   6.1619   7.6839   7.6839   8.0489   8.1508
     8.1508   8.4996   9.8737   9.8737  12.7304  14.5930  14.5931  15.2399

     occupation numbers 
     1.0000   1.0000   1.0000   1.0000   1.0000   1.0000   1.0000   1.0000
     1.0000   1.0000   1.0000   1.0000   1.0000   1.0000   1.0000   1.0000
     1.0000   1.0000   1.0000   1.0000   0.0000   0.0000   0.0000   0.0000

          k = 0.0000 0.0556 0.0556 (  2327 PWs)   bands (ev):

   -45.6613 -22.0305 -21.9581 -21.9555 -21.9434  -6.9262  -5.9136  -5.9084
    -4.0227  -4.0126  -3.9884   7.6711   7.7366   7.7442   9.2047   9.2655
     9.3540  10.0998  10.1681  10.2138  12.6204  12.6461  12.7003  15.2693

     occupation numbers 
     1.0000   1.0000   1.0000   1.0000   1.0000   1.0000   1.0000   1.0000
     1.0000   1.0000   1.0000   1.0000   1.0000   1.0000   1.0000   1.0000
     1.0000   1.0000   1.0000   1.0000   0.0000   0.0000   0.0000   0.0000

          k = 0.0000 0.0556 0.1111 (  2320 PWs)   bands (ev):

   -45.6612 -22.0447 -21.9594 -21.9551 -21.9322  -6.9283  -5.9152  -5.9038
    -4.0180  -4.0039  -3.9272   7.5516   7.7199   7.7349   9.0367   9.1461
     9.3213   9.8404  10.0971  10.1499  12.6448  12.8539  12.8993  15.2945

     occupation numbers 
     1.0000   1.0000   1.0000   1.0000   1.0000   1.0000   1.0000   1.0000
     1.0000   1.0000   1.0000   1.0000   1.0000   1.0000   1.0000   1.0000
     1.0000   1.0000   1.0000   1.0000   0.0000   0.0000   0.0000   0.0000

          k = 0.0000 0.0556 0.1667 (  2317 PWs)   bands (ev):

   -45.6610 -22.0635 -21.9593 -21.9546 -21.9202  -6.9422  -5.9040  -5.8920
    -4.0106  -3.9963  -3.8338   7.3601   7.6987   7.7211   8.8293   8.9722
     9.2235   9.4882  10.0285  10.0749  12.6677  13.1578  13.1851  15.3031

     occupation numbers 
     1.0000   1.0000   1.0000   1.0000   1.0000   1.0000   1.0000   1.0000
     1.0000   1.0000   1.0000   1.0000   1.0000   1.0000   1.0000   1.0000
     1.0000   1.0000   1.0000   1.0000   0.0000   0.0000   0.0000   0.0000

          k = 0.0000 0.0556 0.2222 (  2312 PWs)   bands (ev):

   -45.6608 -22.0838 -21.9584 -21.9540 -21.9088  -6.9739  -5.8917  -5.8502
    -4.0016  -3.9877  -3.7271   7.1166   7.6738   7.7055   8.5996   8.7731
     9.0373   9.1877   9.9625  10.0040  12.6958  13.4995  13.5135  15.3088

     occupation numbers 
     1.0000   1.0000   1.0000   1.0000   1.0000   1.0000   1.0000   1.0000
     1.0000   1.0000   1.0000   1.0000   1.0000   1.0000   1.0000   1.0000
     1.0000   1.0000   1.0000   1.0000   0.0000   0.0000   0.0000   0.0000

          k = 0.0000 0.0556 0.2778 (  2308 PWs)   bands (ev):

   -45.6606 -22.1036 -21.9573 -21.9534 -21.8987  -7.0207  -5.8820  -5.7773
    -3.9920  -3.9785  -3.6218   6.8465   7.6487   7.6913   8.3600   8.5755
     8.7701   9.0173   9.9040   9.9426  12.7262  13.8390  13.8450  15.3127

     occupation numbers 
     1.0000   1.0000   1.0000   1.0000   1.0000   1.0000   1.0000   1.0000
     1.0000   1.0000   1.0000   1.0000   1.0000   1.0000   1.0000   1.0000
     1.0000   1.0000   1.0000   1.0000   0.0000   0.0000   0.0000   0.0000

          k = 0.0000 0.0556 0.3333 (  2316 PWs)   bands (ev):

   -45.6604 -22.1210 -21.9562 -21.9527 -21.8903  -7.0725  -5.8733  -5.6904
    -3.9828  -3.9697  -3.5296   6.5821   7.6292   7.6818   8.1300   8.3990
     8.5557   8.8870   9.8557   9.8931  12.7553  14.1435  14.1455  15.3154

     occupation numbers 
     1.0000   1.0000   1.0000   1.0000   1.0000   1.0000   1.0000   1.0000
     1.0000   1.0000   1.0000   1.0000   1.0000   1.0000   1.0000   1.0000
     1.0000   1.0000   1.0000   1.0000   0.0000   0.0000   0.0000   0.0000

          k = 0.0000 0.0556 0.3889 (  2316 PWs)   bands (ev):

   -45.6602 -22.1347 -21.9553 -21.9522 -21.8840  -7.1183  -5.8663  -5.6091
    -3.9754  -3.9624  -3.4586   6.3599   7.6227   7.6787   7.9357   8.2583
     8.4109   8.7867   9.8198   9.8568  12.7794  14.3847  14.3853  15.3169

     occupation numbers 
     1.0000   1.0000   1.0000   1.0000   1.0000   1.0000   1.0000   1.0000
     1.0000   1.0000   1.0000   1.0000   1.0000   1.0000   1.0000   1.0000
     1.0000   1.0000   1.0000   1.0000   0.0000   0.0000   0.0000   0.0000

          k = 0.0000 0.0556 0.4444 (  2314 PWs)   bands (ev):

   -45.6601 -22.1433 -21.9546 -21.9519 -21.8802  -7.1492  -5.8617  -5.5517
    -3.9705  -3.9576  -3.4142   6.2119   7.6375   7.6807   7.7930   8.1659
     8.3273   8.7232   9.7977   9.8346  12.7953  14.5397  14.5404  15.3176

     occupation numbers 
     1.0000   1.0000   1.0000   1.0000   1.0000   1.0000   1.0000   1.0000
     1.0000   1.0000   1.0000   1.0000   1.0000   1.0000   1.0000   1.0000
     1.0000   1.0000   1.0000   1.0000   0.0000   0.0000   0.0000   0.0000

          k = 0.0000 0.0556-0.5000 (  2318 PWs)   bands (ev):

   -45.6600 -22.1463 -21.9544 -21.9518 -21.8788  -7.1600  -5.8601  -5.5311
    -3.9688  -3.9559  -3.3991   6.1600   7.6659   7.6826   7.7208   8.1332
     8.2999   8.7014   9.7902   9.8272  12.8009  14.5933  14.5941  15.3178

     occupation numbers 
     1.0000   1.0000   1.0000   1.0000   1.0000   1.0000   1.0000   1.0000
     1.0000   1.0000   1.0000   1.0000   1.0000   1.0000   1.0000   1.0000
     1.0000   1.0000   1.0000   1.0000   0.0000   0.0000   0.0000   0.0000

          k = 0.0000 0.1111 0.1111 (  2313 PWs)   bands (ev):

   -45.6611 -22.0532 -21.9651 -21.9548 -21.9225  -6.9235  -5.9241  -5.8960
    -4.0131  -3.9741  -3.8930   7.4555   7.6796   7.7258   8.8226   9.0405
     9.3614   9.7132   9.9417  10.0746  12.8217  12.9044  13.0511  15.4163

     occupation numbers 
     1.0000   1.0000   1.0000   1.0000   1.0000   1.0000   1.0000   1.0000
     1.0000   1.0000   1.0000   1.0000   1.0000   1.0000   1.0000   1.0000
     1.0000   1.0000   1.0000   1.0000   0.0000   0.0000   0.0000   0.0000

          k = 0.0000 0.1111 0.1667 (  2315 PWs)   bands (ev):

   -45.6609 -22.0666 -21.9681 -21.9543 -21.9129  -6.9266  -5.9234  -5.8806
    -4.0056  -3.9564  -3.8183   7.2884   7.6326   7.7125   8.5798   8.8829
     9.3043   9.4690   9.8514   9.9860  12.8721  13.1744  13.2859  15.4714

     occupation numbers 
     1.0000   1.0000   1.0000   1.0000   1.0000   1.0000   1.0000   1.0000
     1.0000   1.0000   1.0000   1.0000   1.0000   1.0000   1.0000   1.0000
     1.0000   1.0000   1.0000   1.0000   0.0000   0.0000   0.0000   0.0000

          k = 0.0000 0.1111 0.2222 (  2320 PWs)   bands (ev):

   -45.6607 -22.0830 -21.9685 -21.9537 -21.9043  -6.9461  -5.9064  -5.8519
    -3.9964  -3.9455  -3.7235   7.0670   7.5799   7.6973   8.3228   8.6983
     9.0558   9.3541   9.7804   9.9029  12.8995  13.5100  13.5736  15.4934

     occupation numbers 
     1.0000   1.0000   1.0000   1.0000   1.0000   1.0000   1.0000   1.0000
     1.0000   1.0000   1.0000   1.0000   1.0000   1.0000   1.0000   1.0000
     1.0000   1.0000   1.0000   1.0000   0.0000   0.0000   0.0000   0.0000

          k = 0.0000 0.1111 0.2778 (  2309 PWs)   bands (ev):

   -45.6605 -22.1002 -21.9673 -21.9530 -21.8970  -6.9821  -5.8850  -5.7982
    -3.9866  -3.9364  -3.6279   6.8156   7.5211   7.6837   8.0721   8.5115
     8.8027   9.2753   9.7151   9.8324  12.9272  13.8457  13.8781  15.5041

     occupation numbers 
     1.0000   1.0000   1.0000   1.0000   1.0000   1.0000   1.0000   1.0000
     1.0000   1.0000   1.0000   1.0000   1.0000   1.0000   1.0000   1.0000
     1.0000   1.0000   1.0000   1.0000   0.0000   0.0000   0.0000   0.0000

          k = 0.0000 0.1111 0.3333 (  2317 PWs)   bands (ev):

   -45.6602 -22.1160 -21.9654 -21.9524 -21.8912  -7.0259  -5.8683  -5.7251
    -3.9773  -3.9280  -3.5435   6.5646   7.4579   7.6748   7.8587   8.3423
     8.6128   9.1982   9.6593   9.7767  12.9533  14.1474  14.1632  15.5097

     occupation numbers 
     1.0000   1.0000   1.0000   1.0000   1.0000   1.0000   1.0000   1.0000
     1.0000   1.0000   1.0000   1.0000   1.0000   1.0000   1.0000   1.0000
     1.0000   1.0000   1.0000   1.0000   0.0000   0.0000   0.0000   0.0000

          k = 0.0000 0.1111 0.3889 (  2315 PWs)   bands (ev):

   -45.6601 -22.1286 -21.9635 -21.9519 -21.8869  -7.0663  -5.8562  -5.6530
    -3.9697  -3.9210  -3.4784   6.3500   7.3947   7.6726   7.7087   8.2059
     8.4838   9.1338   9.6166   9.7365  12.9749  14.3867  14.3958  15.5123

     occupation numbers 
     1.0000   1.0000   1.0000   1.0000   1.0000   1.0000   1.0000   1.0000
     1.0000   1.0000   1.0000   1.0000   1.0000   1.0000   1.0000   1.0000
     1.0000   1.0000   1.0000   1.0000   0.0000   0.0000   0.0000   0.0000

          k = 0.0000 0.1111 0.4444 (  2316 PWs)   bands (ev):

   -45.6600 -22.1367 -21.9622 -21.9516 -21.8843  -7.0942  -5.8486  -5.6011
    -3.9647  -3.9162  -3.4377   6.2056   7.3441   7.6266   7.6756   8.1153
     8.4086   9.0916   9.5899   9.7122  12.9892  14.5407  14.5483  15.5132

     occupation numbers 
     1.0000   1.0000   1.0000   1.0000   1.0000   1.0000   1.0000   1.0000
     1.0000   1.0000   1.0000   1.0000   1.0000   1.0000   1.0000   1.0000
     1.0000   1.0000   1.0000   1.0000   0.0000   0.0000   0.0000   0.0000

          k = 0.0000 0.1111-0.5000 (  2322 PWs)   bands (ev):

   -45.6599 -22.1395 -21.9618 -21.9515 -21.8835  -7.1042  -5.8461  -5.5823
    -3.9630  -3.9145  -3.4238   6.1547   7.3244   7.6014   7.6779   8.0830
     8.3838   9.0770   9.5807   9.7041  12.9941  14.5939  14.6014  15.5133

     occupation numbers 
     1.0000   1.0000   1.0000   1.0000   1.0000   1.0000   1.0000   1.0000
     1.0000   1.0000   1.0000   1.0000   1.0000   1.0000   1.0000   1.0000
     1.0000   1.0000   1.0000   1.0000   0.0000   0.0000   0.0000   0.0000

          k = 0.0000 0.1667 0.1667 (  2309 PWs)   bands (ev):

   -45.6607 -22.0729 -21.9757 -21.9538 -21.9059  -6.9121  -5.9392  -5.8612
    -3.9979  -3.9153  -3.7794   7.1589   7.5471   7.6997   8.3106   8.7469
     9.2827   9.3503   9.7473   9.8786  13.1120  13.2465  13.4581  15.6060

     occupation numbers 
     1.0000   1.0000   1.0000   1.0000   1.0000   1.0000   1.0000   1.0000
     1.0000   1.0000   1.0000   1.0000   1.0000   1.0000   1.0000   1.0000
     1.0000   1.0000   1.0000   1.0000   0.0000   0.0000   0.0000   0.0000

          k = 0.0000 0.1667 0.2222 (  2315 PWs)   bands (ev):

   -45.6605 -22.0829 -21.9798 -21.9532 -21.9002  -6.9102  -5.9365  -5.8343
    -3.9885  -3.8908  -3.7125   6.9754   7.4536   7.6852   8.0357   8.5830
     9.0389   9.3467   9.7042   9.7770  13.1818  13.5309  13.6893  15.6762

     occupation numbers 
[...]
     1.0000   1.0000   1.0000   1.0000   0.0000   0.0000   0.0000   0.0000

          k = 0.2778 0.3333 0.3333 (  2319 PWs)   bands (ev):

   -45.6587 -22.0511 -22.0128 -22.0011 -21.9242  -6.3345  -5.7796  -5.7098
    -4.0912  -3.9875  -3.6693   6.2812   6.7572   6.8657   7.0053   7.1833
     7.3044   9.7937   9.8647  10.1884  14.5785  14.6094  14.7132  17.9527

     occupation numbers 
     1.0000   1.0000   1.0000   1.0000   1.0000   1.0000   1.0000   1.0000
     1.0000   1.0000   1.0000   1.0000   1.0000   1.0000   1.0000   1.0000
     1.0000   1.0000   1.0000   1.0000   0.0000   0.0000   0.0000   0.0000

          k = 0.2778 0.3333 0.3889 (  2323 PWs)   bands (ev):

   -45.6585 -22.0496 -22.0153 -22.0001 -21.9311  -6.2594  -5.7719  -5.6672
    -4.1448  -3.9614  -3.7222   6.2316   6.5762   6.7561   6.9701   7.1006
     7.3204   9.8246   9.9258  10.2548  14.6223  14.7585  14.8557  17.9628

     occupation numbers 
     1.0000   1.0000   1.0000   1.0000   1.0000   1.0000   1.0000   1.0000
     1.0000   1.0000   1.0000   1.0000   1.0000   1.0000   1.0000   1.0000
     1.0000   1.0000   1.0000   1.0000   0.0000   0.0000   0.0000   0.0000

          k = 0.2778 0.3333 0.4444 (  2331 PWs)   bands (ev):

   -45.6584 -22.0518 -22.0133 -21.9987 -21.9367  -6.2136  -5.7640  -5.6369
    -4.1883  -3.9137  -3.7793   6.1512   6.4758   6.7020   6.9636   7.0380
     7.3493   9.8384   9.9625  10.2939  14.6424  14.8709  14.9583  17.9490

     occupation numbers 
     1.0000   1.0000   1.0000   1.0000   1.0000   1.0000   1.0000   1.0000
     1.0000   1.0000   1.0000   1.0000   1.0000   1.0000   1.0000   1.0000
     1.0000   1.0000   1.0000   1.0000   0.0000   0.0000   0.0000   0.0000

          k = 0.2778 0.3333-0.5000 (  2324 PWs)   bands (ev):

   -45.6583 -22.0531 -22.0120 -21.9979 -21.9390  -6.1985  -5.7600  -5.6261
    -4.2044  -3.8765  -3.8190   6.1101   6.4539   6.6829   6.9645   7.0147
     7.3604   9.8428   9.9742  10.3065  14.6493  14.9114  14.9959  17.9421

     occupation numbers 
     1.0000   1.0000   1.0000   1.0000   1.0000   1.0000   1.0000   1.0000
     1.0000   1.0000   1.0000   1.0000   1.0000   1.0000   1.0000   1.0000
     1.0000   1.0000   1.0000   1.0000   0.0000   0.0000   0.0000   0.0000

          k = 0.2778 0.3889 0.3889 (  2323 PWs)   bands (ev):

   -45.6583 -22.0425 -22.0233 -21.9991 -21.9380  -6.1531  -5.7639  -5.6464
    -4.1652  -3.9796  -3.7822   6.1986   6.5082   6.5309   6.9551   7.0821
     7.2524   9.8939   9.9668  10.3551  14.7745  14.7975  14.9804  17.9823

     occupation numbers 
     1.0000   1.0000   1.0000   1.0000   1.0000   1.0000   1.0000   1.0000
     1.0000   1.0000   1.0000   1.0000   1.0000   1.0000   1.0000   1.0000
     1.0000   1.0000   1.0000   1.0000   0.0000   0.0000   0.0000   0.0000

          k = 0.2778 0.3889 0.4444 (  2322 PWs)   bands (ev):

   -45.6582 -22.0419 -22.0240 -21.9979 -21.9435  -6.0783  -5.7577  -5.6386
    -4.1884  -3.9586  -3.8432   6.1248   6.4192   6.4698   6.9628   7.0358
     7.2483   9.9291   9.9941  10.4180  14.8042  14.8994  15.0716  17.9502

     occupation numbers 
     1.0000   1.0000   1.0000   1.0000   1.0000   1.0000   1.0000   1.0000
     1.0000   1.0000   1.0000   1.0000   1.0000   1.0000   1.0000   1.0000
     1.0000   1.0000   1.0000   1.0000   0.0000   0.0000   0.0000   0.0000

          k = 0.2778 0.3889-0.5000 (  2324 PWs)   bands (ev):

   -45.6582 -22.0429 -22.0229 -21.9973 -21.9458  -6.0511  -5.7542  -5.6383
    -4.1985  -3.9293  -3.8843   6.0835   6.4040   6.4477   6.9785   7.0043
     7.2521   9.9395  10.0042  10.4390  14.8111  14.9397  15.1053  17.9332

     occupation numbers 
     1.0000   1.0000   1.0000   1.0000   1.0000   1.0000   1.0000   1.0000
     1.0000   1.0000   1.0000   1.0000   1.0000   1.0000   1.0000   1.0000
     1.0000   1.0000   1.0000   1.0000   0.0000   0.0000   0.0000   0.0000

          k = 0.2778 0.4444 0.4444 (  2321 PWs)   bands (ev):

   -45.6581 -22.0355 -22.0301 -21.9972 -21.9489  -5.9650  -5.7542  -5.6657
    -4.1808  -3.9730  -3.9040   6.0662   6.3438   6.3830   6.9787   7.0254
     7.2020   9.9845  10.0108  10.4967  14.9132  14.9211  15.1554  17.8868

     occupation numbers 
     1.0000   1.0000   1.0000   1.0000   1.0000   1.0000   1.0000   1.0000
     1.0000   1.0000   1.0000   1.0000   1.0000   1.0000   1.0000   1.0000
     1.0000   1.0000   1.0000   1.0000   0.0000   0.0000   0.0000   0.0000

          k = 0.2778 0.4444-0.5000 (  2318 PWs)   bands (ev):

   -45.6580 -22.0353 -22.0300 -21.9969 -21.9511  -5.9136  -5.7516  -5.6890
    -4.1767  -3.9604  -3.9434   6.0311   6.3190   6.3650   6.9987   7.0055
     7.1908  10.0013  10.0181  10.5231  14.9235  14.9578  15.1865  17.8564

     occupation numbers 
     1.0000   1.0000   1.0000   1.0000   1.0000   1.0000   1.0000   1.0000
     1.0000   1.0000   1.0000   1.0000   1.0000   1.0000   1.0000   1.0000
     1.0000   1.0000   1.0000   1.0000   0.0000   0.0000   0.0000   0.0000

          k = 0.2778-0.5000-0.5000 (  2316 PWs)   bands (ev):

   -45.6580 -22.0325 -22.0325 -21.9968 -21.9531  -5.8218  -5.7509  -5.7509
    -4.1623  -3.9705  -3.9705   5.9998   6.2867   6.3509   7.0071   7.0071
     7.1701  10.0225  10.0225  10.5514  14.9640  14.9640  15.2166  17.8206

     occupation numbers 
     1.0000   1.0000   1.0000   1.0000   1.0000   1.0000   1.0000   1.0000
     1.0000   1.0000   1.0000   1.0000   1.0000   1.0000   1.0000   1.0000
     1.0000   1.0000   1.0000   1.0000   0.0000   0.0000   0.0000   0.0000

          k = 0.3333 0.3333 0.3333 (  2311 PWs)   bands (ev):

   -45.6584 -22.0434 -22.0121 -22.0121 -21.9300  -6.2275  -5.7090  -5.7090
    -4.0818  -4.0818  -3.7262   6.2801   6.7636   6.7636   6.9199   7.0581
     7.0581   9.9460   9.9460  10.2513  14.7308  14.7600  14.7600  18.3201

     occupation numbers 
     1.0000   1.0000   1.0000   1.0000   1.0000   1.0000   1.0000   1.0000
     1.0000   1.0000   1.0000   1.0000   1.0000   1.0000   1.0000   1.0000
     1.0000   1.0000   1.0000   1.0000   0.0000   0.0000   0.0000   0.0000

          k = 0.3333 0.3333 0.3889 (  2326 PWs)   bands (ev):

   -45.6583 -22.0411 -22.0159 -22.0115 -21.9359  -6.1377  -5.7127  -5.6450
    -4.1650  -4.0500  -3.7916   6.2399   6.5844   6.7707   6.7815   6.9651
     7.0836   9.9860  10.0570  10.3115  14.7797  14.8850  14.9019  18.2507

     occupation numbers 
     1.0000   1.0000   1.0000   1.0000   1.0000   1.0000   1.0000   1.0000
     1.0000   1.0000   1.0000   1.0000   1.0000   1.0000   1.0000   1.0000
     1.0000   1.0000   1.0000   1.0000   0.0000   0.0000   0.0000   0.0000

          k = 0.3333 0.3333 0.4444 (  2326 PWs)   bands (ev):

   -45.6582 -22.0437 -22.0134 -22.0111 -21.9407  -6.0775  -5.7175  -5.5992
    -4.2233  -4.0031  -3.8578   6.1496   6.5215   6.6895   6.7779   6.9062
     7.1208  10.0049  10.1235  10.3506  14.8011  14.9835  15.0056  18.1959

     occupation numbers 
     1.0000   1.0000   1.0000   1.0000   1.0000   1.0000   1.0000   1.0000
     1.0000   1.0000   1.0000   1.0000   1.0000   1.0000   1.0000   1.0000
     1.0000   1.0000   1.0000   1.0000   0.0000   0.0000   0.0000   0.0000

          k = 0.3333 0.3333-0.5000 (  2322 PWs)   bands (ev):

   -45.6581 -22.0452 -22.0116 -22.0110 -21.9426  -6.0562  -5.7197  -5.5824
    -4.2445  -3.9664  -3.9007   6.1038   6.5208   6.6514   6.7817   6.8852
     7.1348  10.0107  10.1455  10.3637  14.8084  15.0191  15.0439  18.1750

     occupation numbers 
     1.0000   1.0000   1.0000   1.0000   1.0000   1.0000   1.0000   1.0000
     1.0000   1.0000   1.0000   1.0000   1.0000   1.0000   1.0000   1.0000
     1.0000   1.0000   1.0000   1.0000   0.0000   0.0000   0.0000   0.0000

          k = 0.3333 0.3889 0.3889 (  2322 PWs)   bands (ev):

   -45.6581 -22.0356 -22.0225 -22.0123 -21.9408  -6.0281  -5.6816  -5.6158
    -4.1935  -4.0922  -3.8668   6.2100   6.5129   6.6128   6.7578   6.9652
     6.9674  10.0915  10.1368  10.3839  14.9138  14.9320  15.0199  18.1993

     occupation numbers 
     1.0000   1.0000   1.0000   1.0000   1.0000   1.0000   1.0000   1.0000
     1.0000   1.0000   1.0000   1.0000   1.0000   1.0000   1.0000   1.0000
     1.0000   1.0000   1.0000   1.0000   0.0000   0.0000   0.0000   0.0000

          k = 0.3333 0.3889 0.4444 (  2323 PWs)   bands (ev):

   -45.6580 -22.0367 -22.0231 -22.0113 -21.9446  -5.9464  -5.6819  -5.5833
    -4.2382  -4.0710  -3.9395   6.1241   6.4537   6.5593   6.7469   6.8974
     6.9970  10.1317  10.1977  10.4394  14.9434  15.0242  15.1112  18.0972

     occupation numbers 
     1.0000   1.0000   1.0000   1.0000   1.0000   1.0000   1.0000   1.0000
     1.0000   1.0000   1.0000   1.0000   1.0000   1.0000   1.0000   1.0000
     1.0000   1.0000   1.0000   1.0000   0.0000   0.0000   0.0000   0.0000

          k = 0.3333 0.3889-0.5000 (  2328 PWs)   bands (ev):

   -45.6580 -22.0383 -22.0222 -22.0107 -21.9460  -5.9144  -5.6869  -5.5701
    -4.2574  -4.0385  -3.9866   6.0782   6.4518   6.5348   6.7469   6.8727
     7.0101  10.1414  10.2204  10.4593  14.9509  15.0606  15.1451  18.0584

     occupation numbers 
     1.0000   1.0000   1.0000   1.0000   1.0000   1.0000   1.0000   1.0000
     1.0000   1.0000   1.0000   1.0000   1.0000   1.0000   1.0000   1.0000
     1.0000   1.0000   1.0000   1.0000   0.0000   0.0000   0.0000   0.0000

          k = 0.3333 0.4444 0.4444 (  2323 PWs)   bands (ev):

   -45.6579 -22.0327 -22.0293 -22.0106 -21.9475  -5.8363  -5.6643  -5.5906
    -4.2429  -4.0976  -4.0146   6.0619   6.3472   6.5315   6.7558   6.9179
     6.9239  10.2072  10.2291  10.5120  15.0414  15.0481  15.1953  17.9559

     occupation numbers 
     1.0000   1.0000   1.0000   1.0000   1.0000   1.0000   1.0000   1.0000
     1.0000   1.0000   1.0000   1.0000   1.0000   1.0000   1.0000   1.0000
     1.0000   1.0000   1.0000   1.0000   0.0000   0.0000   0.0000   0.0000

          k = 0.3333 0.4444-0.5000 (  2324 PWs)   bands (ev):

   -45.6578 -22.0335 -22.0292 -22.0103 -21.9486  -5.7839  -5.6657  -5.5996
    -4.2452  -4.0839  -4.0627   6.0249   6.3223   6.5214   6.7639   6.8916
     6.9326  10.2245  10.2462  10.5382  15.0520  15.0817  15.2265  17.9033

     occupation numbers 
     1.0000   1.0000   1.0000   1.0000   1.0000   1.0000   1.0000   1.0000
     1.0000   1.0000   1.0000   1.0000   1.0000   1.0000   1.0000   1.0000
     1.0000   1.0000   1.0000   1.0000   0.0000   0.0000   0.0000   0.0000

          k = 0.3333-0.5000-0.5000 (  2324 PWs)   bands (ev):

   -45.6578 -22.0317 -22.0317 -22.0102 -21.9495  -5.6902  -5.6584  -5.6584
    -4.2308  -4.0992  -4.0992   5.9930   6.2898   6.5136   6.7757   6.9021
     6.9021  10.2530  10.2530  10.5666  15.0889  15.0889  15.2570  17.8459

     occupation numbers 
     1.0000   1.0000   1.0000   1.0000   1.0000   1.0000   1.0000   1.0000
     1.0000   1.0000   1.0000   1.0000   1.0000   1.0000   1.0000   1.0000
     1.0000   1.0000   1.0000   1.0000   0.0000   0.0000   0.0000   0.0000

          k = 0.3889 0.3889 0.3889 (  2320 PWs)   bands (ev):

   -45.6579 -22.0307 -22.0219 -22.0219 -21.9435  -5.9128  -5.6052  -5.6052
    -4.1932  -4.1932  -3.9540   6.1802   6.5171   6.5171   6.6689   6.8834
     6.8834  10.2417  10.2417  10.4286  15.0343  15.0583  15.0583  18.2147

     occupation numbers 
     1.0000   1.0000   1.0000   1.0000   1.0000   1.0000   1.0000   1.0000
     1.0000   1.0000   1.0000   1.0000   1.0000   1.0000   1.0000   1.0000
     1.0000   1.0000   1.0000   1.0000   0.0000   0.0000   0.0000   0.0000

          k = 0.3889 0.3889 0.4444 (  2327 PWs)   bands (ev):

   -45.6578 -22.0325 -22.0228 -22.0215 -21.9455  -5.8214  -5.6154  -5.5491
    -4.2653  -4.1660  -4.0350   6.0964   6.4357   6.5202   6.6409   6.8321
     6.8920  10.2873  10.3350  10.4752  15.0703  15.1336  15.1509  18.0743

     occupation numbers 
     1.0000   1.0000   1.0000   1.0000   1.0000   1.0000   1.0000   1.0000
     1.0000   1.0000   1.0000   1.0000   1.0000   1.0000   1.0000   1.0000
     1.0000   1.0000   1.0000   1.0000   0.0000   0.0000   0.0000   0.0000

          k = 0.3889 0.3889-0.5000 (  2328 PWs)   bands (ev):

   -45.6578 -22.0345 -22.0217 -22.0214 -21.9463  -5.7815  -5.6274  -5.5282
    -4.2918  -4.1315  -4.0874   6.0514   6.4243   6.5214   6.6236   6.8149
     6.9032  10.2992  10.3666  10.4944  15.0783  15.1660  15.1854  18.0243

     occupation numbers 
     1.0000   1.0000   1.0000   1.0000   1.0000   1.0000   1.0000   1.0000
     1.0000   1.0000   1.0000   1.0000   1.0000   1.0000   1.0000   1.0000
     1.0000   1.0000   1.0000   1.0000   0.0000   0.0000   0.0000   0.0000

          k = 0.3889 0.4444 0.4444 (  2323 PWs)   bands (ev):

   -45.6577 -22.0303 -22.0287 -22.0214 -21.9462  -5.7168  -5.5795  -5.5359
    -4.2827  -4.2104  -4.1192   6.0336   6.3501   6.4896   6.6530   6.8286
     6.8394  10.3807  10.3961  10.5270  15.1589  15.1658  15.2282  17.9176

     occupation numbers 
     1.0000   1.0000   1.0000   1.0000   1.0000   1.0000   1.0000   1.0000
     1.0000   1.0000   1.0000   1.0000   1.0000   1.0000   1.0000   1.0000
     1.0000   1.0000   1.0000   1.0000   0.0000   0.0000   0.0000   0.0000

          k = 0.3889 0.4444-0.5000 (  2318 PWs)   bands (ev):

   -45.6577 -22.0319 -22.0286 -22.0211 -21.9465  -5.6640  -5.5857  -5.5278
    -4.2966  -4.1942  -4.1732   5.9974   6.3242   6.4897   6.6479   6.8148
     6.8449  10.3996  10.4230  10.5515  15.1701  15.1962  15.2596  17.8574

     occupation numbers 
     1.0000   1.0000   1.0000   1.0000   1.0000   1.0000   1.0000   1.0000
     1.0000   1.0000   1.0000   1.0000   1.0000   1.0000   1.0000   1.0000
     1.0000   1.0000   1.0000   1.0000   0.0000   0.0000   0.0000   0.0000

          k = 0.3889-0.5000-0.5000 (  2308 PWs)   bands (ev):

   -45.6576 -22.0311 -22.0311 -22.0210 -21.9466  -5.5795  -5.5707  -5.5707
    -4.2856  -4.2162  -4.2162   5.9659   6.2923   6.4892   6.6464   6.8254
     6.8254  10.4341  10.4341  10.5790  15.2040  15.2040  15.2901  17.7925

     occupation numbers 
     1.0000   1.0000   1.0000   1.0000   1.0000   1.0000   1.0000   1.0000
     1.0000   1.0000   1.0000   1.0000   1.0000   1.0000   1.0000   1.0000
     1.0000   1.0000   1.0000   1.0000   0.0000   0.0000   0.0000   0.0000

          k = 0.4444 0.4444 0.4444 (  2311 PWs)   bands (ev):

   -45.6576 -22.0290 -22.0283 -22.0283 -21.9454  -5.6186  -5.5161  -5.5161
    -4.2921  -4.2921  -4.2060   5.9784   6.3520   6.3520   6.7163   6.7918
     6.7918  10.4909  10.4909  10.5479  15.2420  15.2521  15.2521  17.8747

     occupation numbers 
     1.0000   1.0000   1.0000   1.0000   1.0000   1.0000   1.0000   1.0000
     1.0000   1.0000   1.0000   1.0000   1.0000   1.0000   1.0000   1.0000
     1.0000   1.0000   1.0000   1.0000   0.0000   0.0000   0.0000   0.0000

          k = 0.4444 0.4444-0.5000 (  2308 PWs)   bands (ev):

   -45.6576 -22.0310 -22.0282 -22.0281 -21.9452  -5.5662  -5.5267  -5.4921
    -4.3224  -4.2725  -4.2593   5.9472   6.3166   6.3527   6.7231   6.7758
     6.7954  10.5115  10.5287  10.5669  15.2561  15.2771  15.2842  17.8100

     occupation numbers 
     1.0000   1.0000   1.0000   1.0000   1.0000   1.0000   1.0000   1.0000
     1.0000   1.0000   1.0000   1.0000   1.0000   1.0000   1.0000   1.0000
     1.0000   1.0000   1.0000   1.0000   0.0000   0.0000   0.0000   0.0000

          k = 0.4444-0.5000-0.5000 (  2308 PWs)   bands (ev):

   -45.6575 -22.0306 -22.0306 -22.0280 -21.9447  -5.5055  -5.5046  -5.5046
    -4.3209  -4.3013  -4.3013   5.9188   6.2939   6.3367   6.7331   6.7789
     6.7789  10.5500  10.5500  10.5871  15.2881  15.2881  15.3119  17.7455

     occupation numbers 
     1.0000   1.0000   1.0000   1.0000   1.0000   1.0000   1.0000   1.0000
     1.0000   1.0000   1.0000   1.0000   1.0000   1.0000   1.0000   1.0000
     1.0000   1.0000   1.0000   1.0000   0.0000   0.0000   0.0000   0.0000

          k =-0.5000-0.5000-0.5000 (  2320 PWs)   bands (ev):

   -45.6575 -22.0305 -22.0305 -22.0305 -21.9440  -5.4794  -5.4794  -5.4794
    -4.3330  -4.3330  -4.3330   5.8925   6.2944   6.2944   6.7633   6.7633
     6.7633  10.5899  10.5899  10.5899  15.3195  15.3195  15.3195  17.7278

     occupation numbers 
     1.0000   1.0000   1.0000   1.0000   1.0000   1.0000   1.0000   1.0000
     1.0000   1.0000   1.0000   1.0000   1.0000   1.0000   1.0000   1.0000
     1.0000   1.0000   1.0000   1.0000   0.0000   0.0000   0.0000   0.0000

     the Fermi energy is    12.3439 ev

!    total energy              =    -287.00522355 Ry
     Harris-Foulkes estimate   =    -287.00522355 Ry
     estimated scf accuracy    <          4.4E-09 Ry

     The total energy is the sum of the following terms:

     one-electron contribution =     -73.13697517 Ry
     hartree contribution      =      59.87551219 Ry
     xc contribution           =     -58.61805189 Ry
     ewald contribution        =    -215.12570867 Ry
     smearing contrib. (-TS)   =       0.00000000 Ry

     convergence has been achieved in   9 iterations
 
     init_run     :      1.62s CPU      1.84s WALL (       1 calls)
     electrons    :     46.30s CPU     50.67s WALL (       1 calls)

     Called by init_run:
     wfcinit      :      1.54s CPU      1.68s WALL (       1 calls)
     wfcinit:atom :      0.01s CPU      0.01s WALL (     220 calls)
     wfcinit:wfcr :      1.48s CPU      1.61s WALL (     220 calls)
     potinit      :      0.01s CPU      0.01s WALL (       1 calls)
     hinit0       :      0.07s CPU      0.13s WALL (       1 calls)

     Called by electrons:
     c_bands      :     43.13s CPU     47.28s WALL (       9 calls)
     sum_band     :      3.09s CPU      3.29s WALL (       9 calls)
     v_of_rho     :      0.02s CPU      0.02s WALL (      10 calls)
     v_h          :      0.00s CPU      0.00s WALL (      10 calls)
     v_xc         :      0.02s CPU      0.02s WALL (      10 calls)
     newd         :      0.06s CPU      0.07s WALL (      10 calls)
     mix_rho      :      0.00s CPU      0.00s WALL (       9 calls)

     Called by c_bands:
     init_us_2    :      0.28s CPU      0.30s WALL (    4180 calls)
     cegterg      :     42.00s CPU     46.11s WALL (    1980 calls)

     Called by sum_band:
     sum_band:bec :      0.04s CPU      0.04s WALL (    1980 calls)
     addusdens    :      0.06s CPU      0.06s WALL (       9 calls)

     Called by *egterg:
     h_psi        :     14.92s CPU     15.79s WALL (    8159 calls)
     s_psi        :      0.37s CPU      0.39s WALL (    8159 calls)
     g_psi        :      0.08s CPU      0.09s WALL (    5959 calls)
     cdiaghg      :     22.94s CPU     25.39s WALL (    7939 calls)
     cegterg:over :      2.90s CPU      3.74s WALL (    5959 calls)
     cegterg:upda :      1.06s CPU      1.09s WALL (    5959 calls)
     cegterg:last :      0.45s CPU      0.47s WALL (    1980 calls)
     cdiaghg:chol :      0.65s CPU      0.76s WALL (    7939 calls)
     cdiaghg:inve :      0.39s CPU      0.46s WALL (    7939 calls)
     cdiaghg:para :      1.16s CPU      1.27s WALL (   15878 calls)

     Called by h_psi:
     h_psi:pot    :     14.89s CPU     15.75s WALL (    8159 calls)
     h_psi:calbec :      0.64s CPU      0.68s WALL (    8159 calls)
     vloc_psi     :     13.83s CPU     14.63s WALL (    8159 calls)
     add_vuspsi   :      0.39s CPU      0.41s WALL (    8159 calls)

     General routines
     calbec       :      0.84s CPU      0.89s WALL (   10139 calls)
     fft          :      0.01s CPU      0.06s WALL (     111 calls)
     ffts         :      0.00s CPU      0.00s WALL (       9 calls)
     fftw         :     15.39s CPU     16.30s WALL (  308068 calls)
 
     Parallel routines
     fft_scatt_xy :      1.27s CPU      1.35s WALL (  308188 calls)
     fft_scatt_yz :      9.47s CPU     10.07s WALL (  308188 calls)
 
     PWSCF        :    48.02s CPU        52.72s WALL

 
   This run was terminated on:  21:46:45   6Feb2019            

=------------------------------------------------------------------------------=
   JOB DONE.
=------------------------------------------------------------------------------=
