
     Program PWSCF v.6.3MaX starts on  6Feb2019 at 21:45:54 

     This program is part of the open-source Quantum ESPRESSO suite
     for quantum simulation of materials; please cite
         "P. Giannozzi et al., J. Phys.:Condens. Matter 21 395502 (2009);
         "P. Giannozzi et al., J. Phys.:Condens. Matter 29 465901 (2017);
          URL http://www.quantum-espresso.org", 
     in publications or presentations arising from this work. More details at
     http://www.quantum-espresso.org/quote

     Parallel version (MPI & OpenMP), running on      20 processor cores
     Number of MPI processes:                20
     Threads/MPI process:                     1

     MPI processes distributed on     1 nodes
     R & G space division:  proc/nbgrp/npool/nimage =      20
     Reading input from /home/azadoks/dftman/projects/SrTiO3 Convergence/EOSWorkflows/4b44c0aa611c/7e6efd1f185b/pwscf.in
Warning: card &IONS ignored
Warning: card / ignored
Warning: card &CELL ignored
Warning: card / ignored

     Current dimensions of program PWSCF are:
     Max number of different atomic species (ntypx) = 10
     Max number of k-points (npk) =  40000
     Max angular momentum in pseudopotentials (lmaxx) =  3
     Message from routine iosys:
     minimal I/O required, wf_collect reset to FALSE

     Subspace diagonalization in iterative solution of the eigenvalue problem:
     one sub-group per band group will be used
     scalapack distributed-memory algorithm (size of sub-group:  3*  3 procs)

 
     Parallelization info
     --------------------
     sticks:   dense  smooth     PW     G-vecs:    dense   smooth      PW
     Min          46      46     14                 1060     1060     177
     Max          47      47     16                 1063     1063     180
     Sum         933     933    285                21247    21247    3575
 


     bravais-lattice index     =            0
     lattice parameter (alat)  =       7.6209  a.u.
     unit-cell volume          =     442.6054 (a.u.)^3
     number of atoms/cell      =            5
     number of atomic types    =            3
     number of electrons       =        40.00
     number of Kohn-Sham states=           24
     kinetic-energy cutoff     =      50.0000  Ry
     charge density cutoff     =     200.0000  Ry
     convergence threshold     =      1.0E-08
     mixing beta               =       0.7000
     number of iterations used =            8  plain     mixing
     Exchange-correlation      =  SLA  PW   PBX  PBC ( 1  4  3  4 0 0)

     celldm(1)=   7.620888  celldm(2)=   0.000000  celldm(3)=   0.000000
     celldm(4)=   0.000000  celldm(5)=   0.000000  celldm(6)=   0.000000

     crystal axes: (cart. coord. in units of alat)
               a(1) = (   1.000000   0.000000   0.000000 )  
               a(2) = (   0.000000   1.000000   0.000000 )  
               a(3) = (   0.000000   0.000000   1.000000 )  

     reciprocal axes: (cart. coord. in units 2 pi/alat)
               b(1) = (  1.000000  0.000000  0.000000 )  
               b(2) = (  0.000000  1.000000  0.000000 )  
               b(3) = (  0.000000  0.000000  1.000000 )  


     PseudoPot. # 1 for O  read from file:
     /home/azadoks/.local/share/pseudo/GBRV_PBE_US/o_pbe_v1.2.uspp.F.UPF
     MD5 check sum: 734c27235a0248c51dbae37a1fbe46ec
     Pseudo is Ultrasoft + core correction, Zval =  6.0
     Generated by new atomic code, or converted to UPF format
     Using radial grid of  737 points,  5 beta functions with: 
                l(1) =   0
                l(2) =   0
                l(3) =   1
                l(4) =   1
                l(5) =   2
     Q(r) pseudized with  8 coefficients,  rinner =    0.900   0.900   0.900
                                                       0.900   0.900

     PseudoPot. # 2 for Sr read from file:
     /home/azadoks/.local/share/pseudo/GBRV_PBE_US/sr_pbe_v1.uspp.F.UPF
     MD5 check sum: 6b418c05fbe9db5448babca5e47b7a5b
     Pseudo is Ultrasoft + core correction, Zval = 10.0
     Generated by new atomic code, or converted to UPF format
     Using radial grid of  883 points,  6 beta functions with: 
                l(1) =   0
                l(2) =   0
                l(3) =   1
                l(4) =   1
                l(5) =   2
                l(6) =   2
     Q(r) pseudized with  6 coefficients,  rinner =    1.400   1.400   1.400
                                                       1.400   1.400

     PseudoPot. # 3 for Ti read from file:
     /home/azadoks/.local/share/pseudo/GBRV_PBE_US/ti_pbe_v1.4.uspp.F.UPF
     MD5 check sum: 88a00a6731bd790ddea75d31a80cb452
     Pseudo is Ultrasoft + core correction, Zval = 12.0
     Generated by new atomic code, or converted to UPF format
     Using radial grid of  851 points,  6 beta functions with: 
                l(1) =   0
                l(2) =   0
                l(3) =   1
                l(4) =   1
                l(5) =   2
                l(6) =   2
     Q(r) pseudized with  6 coefficients,  rinner =    1.000   1.000   1.000
                                                       1.000   1.000

     atomic species   valence    mass     pseudopotential
        O              6.00    15.99940     O ( 1.00)
        Sr            10.00    87.62000     Sr( 1.00)
        Ti            12.00    47.86700     Ti( 1.00)

     48 Sym. Ops., with inversion, found


                                    s                        frac. trans.

      isym =  1     identity                                     

 cryst.   s( 1) = (     1          0          0      )
                  (     0          1          0      )
                  (     0          0          1      )

 cart.    s( 1) = (  1.0000000  0.0000000  0.0000000 )
                  (  0.0000000  1.0000000  0.0000000 )
                  (  0.0000000  0.0000000  1.0000000 )


      isym =  2     180 deg rotation - cart. axis [0,0,1]        

 cryst.   s( 2) = (    -1          0          0      )
                  (     0         -1          0      )
                  (     0          0          1      )

 cart.    s( 2) = ( -1.0000000  0.0000000  0.0000000 )
                  (  0.0000000 -1.0000000  0.0000000 )
                  (  0.0000000  0.0000000  1.0000000 )


      isym =  3     180 deg rotation - cart. axis [0,1,0]        

 cryst.   s( 3) = (    -1          0          0      )
                  (     0          1          0      )
                  (     0          0         -1      )

 cart.    s( 3) = ( -1.0000000  0.0000000  0.0000000 )
                  (  0.0000000  1.0000000  0.0000000 )
                  (  0.0000000  0.0000000 -1.0000000 )


      isym =  4     180 deg rotation - cart. axis [1,0,0]        

 cryst.   s( 4) = (     1          0          0      )
                  (     0         -1          0      )
                  (     0          0         -1      )

 cart.    s( 4) = (  1.0000000  0.0000000  0.0000000 )
                  (  0.0000000 -1.0000000  0.0000000 )
                  (  0.0000000  0.0000000 -1.0000000 )


      isym =  5     180 deg rotation - cart. axis [1,1,0]        

 cryst.   s( 5) = (     0          1          0      )
                  (     1          0          0      )
                  (     0          0         -1      )

 cart.    s( 5) = (  0.0000000  1.0000000  0.0000000 )
                  (  1.0000000  0.0000000  0.0000000 )
                  (  0.0000000  0.0000000 -1.0000000 )


      isym =  6     180 deg rotation - cart. axis [1,-1,0]       

 cryst.   s( 6) = (     0         -1          0      )
                  (    -1          0          0      )
                  (     0          0         -1      )

 cart.    s( 6) = (  0.0000000 -1.0000000  0.0000000 )
                  ( -1.0000000  0.0000000  0.0000000 )
                  (  0.0000000  0.0000000 -1.0000000 )


      isym =  7      90 deg rotation - cart. axis [0,0,-1]       

 cryst.   s( 7) = (     0         -1          0      )
                  (     1          0          0      )
                  (     0          0          1      )

 cart.    s( 7) = (  0.0000000  1.0000000  0.0000000 )
                  ( -1.0000000  0.0000000  0.0000000 )
                  (  0.0000000  0.0000000  1.0000000 )


      isym =  8      90 deg rotation - cart. axis [0,0,1]        

 cryst.   s( 8) = (     0          1          0      )
                  (    -1          0          0      )
                  (     0          0          1      )

 cart.    s( 8) = (  0.0000000 -1.0000000  0.0000000 )
                  (  1.0000000  0.0000000  0.0000000 )
                  (  0.0000000  0.0000000  1.0000000 )


      isym =  9     180 deg rotation - cart. axis [1,0,1]        

 cryst.   s( 9) = (     0          0          1      )
                  (     0         -1          0      )
                  (     1          0          0      )

 cart.    s( 9) = (  0.0000000  0.0000000  1.0000000 )
                  (  0.0000000 -1.0000000  0.0000000 )
                  (  1.0000000  0.0000000  0.0000000 )


      isym = 10     180 deg rotation - cart. axis [-1,0,1]       

 cryst.   s(10) = (     0          0         -1      )
                  (     0         -1          0      )
                  (    -1          0          0      )

 cart.    s(10) = (  0.0000000  0.0000000 -1.0000000 )
                  (  0.0000000 -1.0000000  0.0000000 )
                  ( -1.0000000  0.0000000  0.0000000 )


      isym = 11      90 deg rotation - cart. axis [0,1,0]        

 cryst.   s(11) = (     0          0         -1      )
                  (     0          1          0      )
                  (     1          0          0      )

 cart.    s(11) = (  0.0000000  0.0000000  1.0000000 )
                  (  0.0000000  1.0000000  0.0000000 )
                  ( -1.0000000  0.0000000  0.0000000 )


      isym = 12      90 deg rotation - cart. axis [0,-1,0]       

 cryst.   s(12) = (     0          0          1      )
                  (     0          1          0      )
                  (    -1          0          0      )

 cart.    s(12) = (  0.0000000  0.0000000 -1.0000000 )
                  (  0.0000000  1.0000000  0.0000000 )
                  (  1.0000000  0.0000000  0.0000000 )


      isym = 13     180 deg rotation - cart. axis [0,1,1]        

 cryst.   s(13) = (    -1          0          0      )
                  (     0          0          1      )
                  (     0          1          0      )

 cart.    s(13) = ( -1.0000000  0.0000000  0.0000000 )
                  (  0.0000000  0.0000000  1.0000000 )
                  (  0.0000000  1.0000000  0.0000000 )


      isym = 14     180 deg rotation - cart. axis [0,1,-1]       

 cryst.   s(14) = (    -1          0          0      )
                  (     0          0         -1      )
                  (     0         -1          0      )

 cart.    s(14) = ( -1.0000000  0.0000000  0.0000000 )
                  (  0.0000000  0.0000000 -1.0000000 )
                  (  0.0000000 -1.0000000  0.0000000 )


      isym = 15      90 deg rotation - cart. axis [-1,0,0]       

 cryst.   s(15) = (     1          0          0      )
                  (     0          0         -1      )
                  (     0          1          0      )

 cart.    s(15) = (  1.0000000  0.0000000  0.0000000 )
                  (  0.0000000  0.0000000  1.0000000 )
                  (  0.0000000 -1.0000000  0.0000000 )


      isym = 16      90 deg rotation - cart. axis [1,0,0]        

 cryst.   s(16) = (     1          0          0      )
                  (     0          0          1      )
                  (     0         -1          0      )

 cart.    s(16) = (  1.0000000  0.0000000  0.0000000 )
                  (  0.0000000  0.0000000 -1.0000000 )
                  (  0.0000000  1.0000000  0.0000000 )


      isym = 17     120 deg rotation - cart. axis [-1,-1,-1]     

 cryst.   s(17) = (     0          0          1      )
                  (     1          0          0      )
                  (     0          1          0      )

 cart.    s(17) = (  0.0000000  1.0000000  0.0000000 )
                  (  0.0000000  0.0000000  1.0000000 )
                  (  1.0000000  0.0000000  0.0000000 )


      isym = 18     120 deg rotation - cart. axis [-1,1,1]       

 cryst.   s(18) = (     0          0         -1      )
                  (    -1          0          0      )
                  (     0          1          0      )

 cart.    s(18) = (  0.0000000 -1.0000000  0.0000000 )
                  (  0.0000000  0.0000000  1.0000000 )
                  ( -1.0000000  0.0000000  0.0000000 )


      isym = 19     120 deg rotation - cart. axis [1,1,-1]       

 cryst.   s(19) = (     0          0         -1      )
                  (     1          0          0      )
                  (     0         -1          0      )

 cart.    s(19) = (  0.0000000  1.0000000  0.0000000 )
                  (  0.0000000  0.0000000 -1.0000000 )
                  ( -1.0000000  0.0000000  0.0000000 )


      isym = 20     120 deg rotation - cart. axis [1,-1,1]       

 cryst.   s(20) = (     0          0          1      )
                  (    -1          0          0      )
                  (     0         -1          0      )

 cart.    s(20) = (  0.0000000 -1.0000000  0.0000000 )
                  (  0.0000000  0.0000000 -1.0000000 )
                  (  1.0000000  0.0000000  0.0000000 )


      isym = 21     120 deg rotation - cart. axis [1,1,1]        

 cryst.   s(21) = (     0          1          0      )
                  (     0          0          1      )
                  (     1          0          0      )

 cart.    s(21) = (  0.0000000  0.0000000  1.0000000 )
                  (  1.0000000  0.0000000  0.0000000 )
                  (  0.0000000  1.0000000  0.0000000 )


      isym = 22     120 deg rotation - cart. axis [-1,1,-1]      

 cryst.   s(22) = (     0         -1          0      )
                  (     0          0         -1      )
                  (     1          0          0      )

 cart.    s(22) = (  0.0000000  0.0000000  1.0000000 )
                  ( -1.0000000  0.0000000  0.0000000 )
                  (  0.0000000 -1.0000000  0.0000000 )


      isym = 23     120 deg rotation - cart. axis [1,-1,-1]      

 cryst.   s(23) = (     0         -1          0      )
                  (     0          0          1      )
                  (    -1          0          0      )

 cart.    s(23) = (  0.0000000  0.0000000 -1.0000000 )
                  ( -1.0000000  0.0000000  0.0000000 )
                  (  0.0000000  1.0000000  0.0000000 )


      isym = 24     120 deg rotation - cart. axis [-1,-1,1]      

 cryst.   s(24) = (     0          1          0      )
                  (     0          0         -1      )
                  (    -1          0          0      )

 cart.    s(24) = (  0.0000000  0.0000000 -1.0000000 )
                  (  1.0000000  0.0000000  0.0000000 )
                  (  0.0000000 -1.0000000  0.0000000 )


      isym = 25     inversion                                    

 cryst.   s(25) = (    -1          0          0      )
                  (     0         -1          0      )
                  (     0          0         -1      )

 cart.    s(25) = ( -1.0000000  0.0000000  0.0000000 )
                  (  0.0000000 -1.0000000  0.0000000 )
                  (  0.0000000  0.0000000 -1.0000000 )


      isym = 26     inv. 180 deg rotation - cart. axis [0,0,1]   

 cryst.   s(26) = (     1          0          0      )
                  (     0          1          0      )
                  (     0          0         -1      )

 cart.    s(26) = (  1.0000000  0.0000000  0.0000000 )
                  (  0.0000000  1.0000000  0.0000000 )
                  (  0.0000000  0.0000000 -1.0000000 )


      isym = 27     inv. 180 deg rotation - cart. axis [0,1,0]   

 cryst.   s(27) = (     1          0          0      )
                  (     0         -1          0      )
                  (     0          0          1      )

 cart.    s(27) = (  1.0000000  0.0000000  0.0000000 )
                  (  0.0000000 -1.0000000  0.0000000 )
                  (  0.0000000  0.0000000  1.0000000 )


      isym = 28     inv. 180 deg rotation - cart. axis [1,0,0]   

 cryst.   s(28) = (    -1          0          0      )
                  (     0          1          0      )
                  (     0          0          1      )

 cart.    s(28) = ( -1.0000000  0.0000000  0.0000000 )
                  (  0.0000000  1.0000000  0.0000000 )
                  (  0.0000000  0.0000000  1.0000000 )


      isym = 29     inv. 180 deg rotation - cart. axis [1,1,0]   

 cryst.   s(29) = (     0         -1          0      )
                  (    -1          0          0      )
                  (     0          0          1      )

 cart.    s(29) = (  0.0000000 -1.0000000  0.0000000 )
                  ( -1.0000000  0.0000000  0.0000000 )
                  (  0.0000000  0.0000000  1.0000000 )


      isym = 30     inv. 180 deg rotation - cart. axis [1,-1,0]  

 cryst.   s(30) = (     0          1          0      )
                  (     1          0          0      )
                  (     0          0          1      )

 cart.    s(30) = (  0.0000000  1.0000000  0.0000000 )
                  (  1.0000000  0.0000000  0.0000000 )
                  (  0.0000000  0.0000000  1.0000000 )


      isym = 31     inv.  90 deg rotation - cart. axis [0,0,-1]  

 cryst.   s(31) = (     0          1          0      )
                  (    -1          0          0      )
                  (     0          0         -1      )

 cart.    s(31) = (  0.0000000 -1.0000000  0.0000000 )
                  (  1.0000000  0.0000000  0.0000000 )
                  (  0.0000000  0.0000000 -1.0000000 )


      isym = 32     inv.  90 deg rotation - cart. axis [0,0,1]   

 cryst.   s(32) = (     0         -1          0      )
                  (     1          0          0      )
                  (     0          0         -1      )

 cart.    s(32) = (  0.0000000  1.0000000  0.0000000 )
                  ( -1.0000000  0.0000000  0.0000000 )
                  (  0.0000000  0.0000000 -1.0000000 )


      isym = 33     inv. 180 deg rotation - cart. axis [1,0,1]   

 cryst.   s(33) = (     0          0         -1      )
                  (     0          1          0      )
                  (    -1          0          0      )

 cart.    s(33) = (  0.0000000  0.0000000 -1.0000000 )
                  (  0.0000000  1.0000000  0.0000000 )
                  ( -1.0000000  0.0000000  0.0000000 )


      isym = 34     inv. 180 deg rotation - cart. axis [-1,0,1]  

 cryst.   s(34) = (     0          0          1      )
                  (     0          1          0      )
                  (     1          0          0      )

 cart.    s(34) = (  0.0000000  0.0000000  1.0000000 )
                  (  0.0000000  1.0000000  0.0000000 )
                  (  1.0000000  0.0000000  0.0000000 )


      isym = 35     inv.  90 deg rotation - cart. axis [0,1,0]   

 cryst.   s(35) = (     0          0          1      )
                  (     0         -1          0      )
                  (    -1          0          0      )

 cart.    s(35) = (  0.0000000  0.0000000 -1.0000000 )
                  (  0.0000000 -1.0000000  0.0000000 )
                  (  1.0000000  0.0000000  0.0000000 )


      isym = 36     inv.  90 deg rotation - cart. axis [0,-1,0]  

 cryst.   s(36) = (     0          0         -1      )
                  (     0         -1          0      )
                  (     1          0          0      )

 cart.    s(36) = (  0.0000000  0.0000000  1.0000000 )
                  (  0.0000000 -1.0000000  0.0000000 )
                  ( -1.0000000  0.0000000  0.0000000 )


      isym = 37     inv. 180 deg rotation - cart. axis [0,1,1]   

 cryst.   s(37) = (     1          0          0      )
                  (     0          0         -1      )
                  (     0         -1          0      )

 cart.    s(37) = (  1.0000000  0.0000000  0.0000000 )
                  (  0.0000000  0.0000000 -1.0000000 )
                  (  0.0000000 -1.0000000  0.0000000 )


      isym = 38     inv. 180 deg rotation - cart. axis [0,1,-1]  

 cryst.   s(38) = (     1          0          0      )
                  (     0          0          1      )
                  (     0          1          0      )

 cart.    s(38) = (  1.0000000  0.0000000  0.0000000 )
                  (  0.0000000  0.0000000  1.0000000 )
                  (  0.0000000  1.0000000  0.0000000 )


      isym = 39     inv.  90 deg rotation - cart. axis [-1,0,0]  

 cryst.   s(39) = (    -1          0          0      )
                  (     0          0          1      )
                  (     0         -1          0      )

 cart.    s(39) = ( -1.0000000  0.0000000  0.0000000 )
                  (  0.0000000  0.0000000 -1.0000000 )
                  (  0.0000000  1.0000000  0.0000000 )


      isym = 40     inv.  90 deg rotation - cart. axis [1,0,0]   

 cryst.   s(40) = (    -1          0          0      )
                  (     0          0         -1      )
                  (     0          1          0      )

 cart.    s(40) = ( -1.0000000  0.0000000  0.0000000 )
                  (  0.0000000  0.0000000  1.0000000 )
                  (  0.0000000 -1.0000000  0.0000000 )


      isym = 41     inv. 120 deg rotation - cart. axis [-1,-1,-1]

 cryst.   s(41) = (     0          0         -1      )
                  (    -1          0          0      )
                  (     0         -1          0      )

 cart.    s(41) = (  0.0000000 -1.0000000  0.0000000 )
                  (  0.0000000  0.0000000 -1.0000000 )
                  ( -1.0000000  0.0000000  0.0000000 )


      isym = 42     inv. 120 deg rotation - cart. axis [-1,1,1]  

 cryst.   s(42) = (     0          0          1      )
                  (     1          0          0      )
                  (     0         -1          0      )

 cart.    s(42) = (  0.0000000  1.0000000  0.0000000 )
                  (  0.0000000  0.0000000 -1.0000000 )
                  (  1.0000000  0.0000000  0.0000000 )


      isym = 43     inv. 120 deg rotation - cart. axis [1,1,-1]  

 cryst.   s(43) = (     0          0          1      )
                  (    -1          0          0      )
                  (     0          1          0      )

 cart.    s(43) = (  0.0000000 -1.0000000  0.0000000 )
                  (  0.0000000  0.0000000  1.0000000 )
                  (  1.0000000  0.0000000  0.0000000 )


      isym = 44     inv. 120 deg rotation - cart. axis [1,-1,1]  

 cryst.   s(44) = (     0          0         -1      )
                  (     1          0          0      )
                  (     0          1          0      )

 cart.    s(44) = (  0.0000000  1.0000000  0.0000000 )
                  (  0.0000000  0.0000000  1.0000000 )
                  ( -1.0000000  0.0000000  0.0000000 )


      isym = 45     inv. 120 deg rotation - cart. axis [1,1,1]   

 cryst.   s(45) = (     0         -1          0      )
                  (     0          0         -1      )
                  (    -1          0          0      )

 cart.    s(45) = (  0.0000000  0.0000000 -1.0000000 )
                  ( -1.0000000  0.0000000  0.0000000 )
                  (  0.0000000 -1.0000000  0.0000000 )


      isym = 46     inv. 120 deg rotation - cart. axis [-1,1,-1] 

 cryst.   s(46) = (     0          1          0      )
                  (     0          0          1      )
                  (    -1          0          0      )

 cart.    s(46) = (  0.0000000  0.0000000 -1.0000000 )
                  (  1.0000000  0.0000000  0.0000000 )
                  (  0.0000000  1.0000000  0.0000000 )


      isym = 47     inv. 120 deg rotation - cart. axis [1,-1,-1] 

 cryst.   s(47) = (     0          1          0      )
                  (     0          0         -1      )
                  (     1          0          0      )

 cart.    s(47) = (  0.0000000  0.0000000  1.0000000 )
                  (  1.0000000  0.0000000  0.0000000 )
                  (  0.0000000 -1.0000000  0.0000000 )


      isym = 48     inv. 120 deg rotation - cart. axis [-1,-1,1] 

 cryst.   s(48) = (     0         -1          0      )
                  (     0          0          1      )
                  (     1          0          0      )

 cart.    s(48) = (  0.0000000  0.0000000  1.0000000 )
                  ( -1.0000000  0.0000000  0.0000000 )
                  (  0.0000000  1.0000000  0.0000000 )


   Cartesian axes

     site n.     atom                  positions (alat units)
         1           O   tau(   1) = (   0.5000000   0.0000000   0.5000000  )
         2           O   tau(   2) = (   0.5000000   0.5000000   0.0000000  )
         3           O   tau(   3) = (   0.0000000   0.5000000   0.5000000  )
         4           Ti  tau(   4) = (   0.5000000   0.5000000   0.5000000  )
         5           Sr  tau(   5) = (   0.0000000   0.0000000   0.0000000  )

   Crystallographic axes

     site n.     atom                  positions (cryst. coord.)
         1           O   tau(   1) = (  0.5000000  0.0000000  0.5000000  )
         2           O   tau(   2) = (  0.5000000  0.5000000  0.0000000  )
         3           O   tau(   3) = (  0.0000000  0.5000000  0.5000000  )
         4           Ti  tau(   4) = (  0.5000000  0.5000000  0.5000000  )
         5           Sr  tau(   5) = (  0.0000000  0.0000000  0.0000000  )

     number of k points=   220  Marzari-Vanderbilt smearing, width (Ry)=  0.0010
                       cart. coord. in units 2pi/alat
        k(    1) = (   0.0000000   0.0000000   0.0000000), wk =   0.0003429
        k(    2) = (   0.0000000   0.0000000   0.0555556), wk =   0.0020576
        k(    3) = (   0.0000000   0.0000000   0.1111111), wk =   0.0020576
        k(    4) = (   0.0000000   0.0000000   0.1666667), wk =   0.0020576
        k(    5) = (   0.0000000   0.0000000   0.2222222), wk =   0.0020576
        k(    6) = (   0.0000000   0.0000000   0.2777778), wk =   0.0020576
        k(    7) = (   0.0000000   0.0000000   0.3333333), wk =   0.0020576
        k(    8) = (   0.0000000   0.0000000   0.3888889), wk =   0.0020576
        k(    9) = (   0.0000000   0.0000000   0.4444444), wk =   0.0020576
        k(   10) = (   0.0000000   0.0000000  -0.5000000), wk =   0.0010288
        k(   11) = (   0.0000000   0.0555556   0.0555556), wk =   0.0041152
        k(   12) = (   0.0000000   0.0555556   0.1111111), wk =   0.0082305
        k(   13) = (   0.0000000   0.0555556   0.1666667), wk =   0.0082305
        k(   14) = (   0.0000000   0.0555556   0.2222222), wk =   0.0082305
        k(   15) = (   0.0000000   0.0555556   0.2777778), wk =   0.0082305
        k(   16) = (   0.0000000   0.0555556   0.3333333), wk =   0.0082305
        k(   17) = (   0.0000000   0.0555556   0.3888889), wk =   0.0082305
        k(   18) = (   0.0000000   0.0555556   0.4444444), wk =   0.0082305
        k(   19) = (   0.0000000   0.0555556  -0.5000000), wk =   0.0041152
        k(   20) = (   0.0000000   0.1111111   0.1111111), wk =   0.0041152
        k(   21) = (   0.0000000   0.1111111   0.1666667), wk =   0.0082305
        k(   22) = (   0.0000000   0.1111111   0.2222222), wk =   0.0082305
        k(   23) = (   0.0000000   0.1111111   0.2777778), wk =   0.0082305
        k(   24) = (   0.0000000   0.1111111   0.3333333), wk =   0.0082305
        k(   25) = (   0.0000000   0.1111111   0.3888889), wk =   0.0082305
        k(   26) = (   0.0000000   0.1111111   0.4444444), wk =   0.0082305
        k(   27) = (   0.0000000   0.1111111  -0.5000000), wk =   0.0041152
        k(   28) = (   0.0000000   0.1666667   0.1666667), wk =   0.0041152
        k(   29) = (   0.0000000   0.1666667   0.2222222), wk =   0.0082305
        k(   30) = (   0.0000000   0.1666667   0.2777778), wk =   0.0082305
        k(   31) = (   0.0000000   0.1666667   0.3333333), wk =   0.0082305
        k(   32) = (   0.0000000   0.1666667   0.3888889), wk =   0.0082305
        k(   33) = (   0.0000000   0.1666667   0.4444444), wk =   0.0082305
        k(   34) = (   0.0000000   0.1666667  -0.5000000), wk =   0.0041152
        k(   35) = (   0.0000000   0.2222222   0.2222222), wk =   0.0041152
        k(   36) = (   0.0000000   0.2222222   0.2777778), wk =   0.0082305
        k(   37) = (   0.0000000   0.2222222   0.3333333), wk =   0.0082305
        k(   38) = (   0.0000000   0.2222222   0.3888889), wk =   0.0082305
        k(   39) = (   0.0000000   0.2222222   0.4444444), wk =   0.0082305
        k(   40) = (   0.0000000   0.2222222  -0.5000000), wk =   0.0041152
        k(   41) = (   0.0000000   0.2777778   0.2777778), wk =   0.0041152
        k(   42) = (   0.0000000   0.2777778   0.3333333), wk =   0.0082305
        k(   43) = (   0.0000000   0.2777778   0.3888889), wk =   0.0082305
        k(   44) = (   0.0000000   0.2777778   0.4444444), wk =   0.0082305
        k(   45) = (   0.0000000   0.2777778  -0.5000000), wk =   0.0041152
        k(   46) = (   0.0000000   0.3333333   0.3333333), wk =   0.0041152
        k(   47) = (   0.0000000   0.3333333   0.3888889), wk =   0.0082305
        k(   48) = (   0.0000000   0.3333333   0.4444444), wk =   0.0082305
        k(   49) = (   0.0000000   0.3333333  -0.5000000), wk =   0.0041152
        k(   50) = (   0.0000000   0.3888889   0.3888889), wk =   0.0041152
        k(   51) = (   0.0000000   0.3888889   0.4444444), wk =   0.0082305
        k(   52) = (   0.0000000   0.3888889  -0.5000000), wk =   0.0041152
        k(   53) = (   0.0000000   0.4444444   0.4444444), wk =   0.0041152
        k(   54) = (   0.0000000   0.4444444  -0.5000000), wk =   0.0041152
        k(   55) = (   0.0000000  -0.5000000  -0.5000000), wk =   0.0010288
        k(   56) = (   0.0555556   0.0555556   0.0555556), wk =   0.0027435
        k(   57) = (   0.0555556   0.0555556   0.1111111), wk =   0.0082305
        k(   58) = (   0.0555556   0.0555556   0.1666667), wk =   0.0082305
        k(   59) = (   0.0555556   0.0555556   0.2222222), wk =   0.0082305
        k(   60) = (   0.0555556   0.0555556   0.2777778), wk =   0.0082305
        k(   61) = (   0.0555556   0.0555556   0.3333333), wk =   0.0082305
        k(   62) = (   0.0555556   0.0555556   0.3888889), wk =   0.0082305
        k(   63) = (   0.0555556   0.0555556   0.4444444), wk =   0.0082305
        k(   64) = (   0.0555556   0.0555556  -0.5000000), wk =   0.0041152
        k(   65) = (   0.0555556   0.1111111   0.1111111), wk =   0.0082305
        k(   66) = (   0.0555556   0.1111111   0.1666667), wk =   0.0164609
        k(   67) = (   0.0555556   0.1111111   0.2222222), wk =   0.0164609
        k(   68) = (   0.0555556   0.1111111   0.2777778), wk =   0.0164609
        k(   69) = (   0.0555556   0.1111111   0.3333333), wk =   0.0164609
        k(   70) = (   0.0555556   0.1111111   0.3888889), wk =   0.0164609
        k(   71) = (   0.0555556   0.1111111   0.4444444), wk =   0.0164609
        k(   72) = (   0.0555556   0.1111111  -0.5000000), wk =   0.0082305
        k(   73) = (   0.0555556   0.1666667   0.1666667), wk =   0.0082305
        k(   74) = (   0.0555556   0.1666667   0.2222222), wk =   0.0164609
        k(   75) = (   0.0555556   0.1666667   0.2777778), wk =   0.0164609
        k(   76) = (   0.0555556   0.1666667   0.3333333), wk =   0.0164609
        k(   77) = (   0.0555556   0.1666667   0.3888889), wk =   0.0164609
        k(   78) = (   0.0555556   0.1666667   0.4444444), wk =   0.0164609
        k(   79) = (   0.0555556   0.1666667  -0.5000000), wk =   0.0082305
        k(   80) = (   0.0555556   0.2222222   0.2222222), wk =   0.0082305
        k(   81) = (   0.0555556   0.2222222   0.2777778), wk =   0.0164609
        k(   82) = (   0.0555556   0.2222222   0.3333333), wk =   0.0164609
        k(   83) = (   0.0555556   0.2222222   0.3888889), wk =   0.0164609
        k(   84) = (   0.0555556   0.2222222   0.4444444), wk =   0.0164609
        k(   85) = (   0.0555556   0.2222222  -0.5000000), wk =   0.0082305
        k(   86) = (   0.0555556   0.2777778   0.2777778), wk =   0.0082305
        k(   87) = (   0.0555556   0.2777778   0.3333333), wk =   0.0164609
        k(   88) = (   0.0555556   0.2777778   0.3888889), wk =   0.0164609
        k(   89) = (   0.0555556   0.2777778   0.4444444), wk =   0.0164609
        k(   90) = (   0.0555556   0.2777778  -0.5000000), wk =   0.0082305
        k(   91) = (   0.0555556   0.3333333   0.3333333), wk =   0.0082305
        k(   92) = (   0.0555556   0.3333333   0.3888889), wk =   0.0164609
        k(   93) = (   0.0555556   0.3333333   0.4444444), wk =   0.0164609
        k(   94) = (   0.0555556   0.3333333  -0.5000000), wk =   0.0082305
        k(   95) = (   0.0555556   0.3888889   0.3888889), wk =   0.0082305
        k(   96) = (   0.0555556   0.3888889   0.4444444), wk =   0.0164609
        k(   97) = (   0.0555556   0.3888889  -0.5000000), wk =   0.0082305
        k(   98) = (   0.0555556   0.4444444   0.4444444), wk =   0.0082305
        k(   99) = (   0.0555556   0.4444444  -0.5000000), wk =   0.0082305
        k(  100) = (   0.0555556  -0.5000000  -0.5000000), wk =   0.0020576
        k(  101) = (   0.1111111   0.1111111   0.1111111), wk =   0.0027435
        k(  102) = (   0.1111111   0.1111111   0.1666667), wk =   0.0082305
        k(  103) = (   0.1111111   0.1111111   0.2222222), wk =   0.0082305
        k(  104) = (   0.1111111   0.1111111   0.2777778), wk =   0.0082305
        k(  105) = (   0.1111111   0.1111111   0.3333333), wk =   0.0082305
        k(  106) = (   0.1111111   0.1111111   0.3888889), wk =   0.0082305
        k(  107) = (   0.1111111   0.1111111   0.4444444), wk =   0.0082305
        k(  108) = (   0.1111111   0.1111111  -0.5000000), wk =   0.0041152
        k(  109) = (   0.1111111   0.1666667   0.1666667), wk =   0.0082305
        k(  110) = (   0.1111111   0.1666667   0.2222222), wk =   0.0164609
        k(  111) = (   0.1111111   0.1666667   0.2777778), wk =   0.0164609
        k(  112) = (   0.1111111   0.1666667   0.3333333), wk =   0.0164609
        k(  113) = (   0.1111111   0.1666667   0.3888889), wk =   0.0164609
        k(  114) = (   0.1111111   0.1666667   0.4444444), wk =   0.0164609
        k(  115) = (   0.1111111   0.1666667  -0.5000000), wk =   0.0082305
        k(  116) = (   0.1111111   0.2222222   0.2222222), wk =   0.0082305
        k(  117) = (   0.1111111   0.2222222   0.2777778), wk =   0.0164609
        k(  118) = (   0.1111111   0.2222222   0.3333333), wk =   0.0164609
        k(  119) = (   0.1111111   0.2222222   0.3888889), wk =   0.0164609
        k(  120) = (   0.1111111   0.2222222   0.4444444), wk =   0.0164609
        k(  121) = (   0.1111111   0.2222222  -0.5000000), wk =   0.0082305
        k(  122) = (   0.1111111   0.2777778   0.2777778), wk =   0.0082305
        k(  123) = (   0.1111111   0.2777778   0.3333333), wk =   0.0164609
        k(  124) = (   0.1111111   0.2777778   0.3888889), wk =   0.0164609
        k(  125) = (   0.1111111   0.2777778   0.4444444), wk =   0.0164609
        k(  126) = (   0.1111111   0.2777778  -0.5000000), wk =   0.0082305
        k(  127) = (   0.1111111   0.3333333   0.3333333), wk =   0.0082305
        k(  128) = (   0.1111111   0.3333333   0.3888889), wk =   0.0164609
        k(  129) = (   0.1111111   0.3333333   0.4444444), wk =   0.0164609
        k(  130) = (   0.1111111   0.3333333  -0.5000000), wk =   0.0082305
        k(  131) = (   0.1111111   0.3888889   0.3888889), wk =   0.0082305
        k(  132) = (   0.1111111   0.3888889   0.4444444), wk =   0.0164609
        k(  133) = (   0.1111111   0.3888889  -0.5000000), wk =   0.0082305
        k(  134) = (   0.1111111   0.4444444   0.4444444), wk =   0.0082305
        k(  135) = (   0.1111111   0.4444444  -0.5000000), wk =   0.0082305
        k(  136) = (   0.1111111  -0.5000000  -0.5000000), wk =   0.0020576
        k(  137) = (   0.1666667   0.1666667   0.1666667), wk =   0.0027435
        k(  138) = (   0.1666667   0.1666667   0.2222222), wk =   0.0082305
        k(  139) = (   0.1666667   0.1666667   0.2777778), wk =   0.0082305
        k(  140) = (   0.1666667   0.1666667   0.3333333), wk =   0.0082305
        k(  141) = (   0.1666667   0.1666667   0.3888889), wk =   0.0082305
        k(  142) = (   0.1666667   0.1666667   0.4444444), wk =   0.0082305
        k(  143) = (   0.1666667   0.1666667  -0.5000000), wk =   0.0041152
        k(  144) = (   0.1666667   0.2222222   0.2222222), wk =   0.0082305
        k(  145) = (   0.1666667   0.2222222   0.2777778), wk =   0.0164609
        k(  146) = (   0.1666667   0.2222222   0.3333333), wk =   0.0164609
        k(  147) = (   0.1666667   0.2222222   0.3888889), wk =   0.0164609
        k(  148) = (   0.1666667   0.2222222   0.4444444), wk =   0.0164609
        k(  149) = (   0.1666667   0.2222222  -0.5000000), wk =   0.0082305
        k(  150) = (   0.1666667   0.2777778   0.2777778), wk =   0.0082305
        k(  151) = (   0.1666667   0.2777778   0.3333333), wk =   0.0164609
        k(  152) = (   0.1666667   0.2777778   0.3888889), wk =   0.0164609
        k(  153) = (   0.1666667   0.2777778   0.4444444), wk =   0.0164609
        k(  154) = (   0.1666667   0.2777778  -0.5000000), wk =   0.0082305
        k(  155) = (   0.1666667   0.3333333   0.3333333), wk =   0.0082305
        k(  156) = (   0.1666667   0.3333333   0.3888889), wk =   0.0164609
        k(  157) = (   0.1666667   0.3333333   0.4444444), wk =   0.0164609
        k(  158) = (   0.1666667   0.3333333  -0.5000000), wk =   0.0082305
        k(  159) = (   0.1666667   0.3888889   0.3888889), wk =   0.0082305
        k(  160) = (   0.1666667   0.3888889   0.4444444), wk =   0.0164609
        k(  161) = (   0.1666667   0.3888889  -0.5000000), wk =   0.0082305
        k(  162) = (   0.1666667   0.4444444   0.4444444), wk =   0.0082305
        k(  163) = (   0.1666667   0.4444444  -0.5000000), wk =   0.0082305
        k(  164) = (   0.1666667  -0.5000000  -0.5000000), wk =   0.0020576
        k(  165) = (   0.2222222   0.2222222   0.2222222), wk =   0.0027435
        k(  166) = (   0.2222222   0.2222222   0.2777778), wk =   0.0082305
        k(  167) = (   0.2222222   0.2222222   0.3333333), wk =   0.0082305
        k(  168) = (   0.2222222   0.2222222   0.3888889), wk =   0.0082305
        k(  169) = (   0.2222222   0.2222222   0.4444444), wk =   0.0082305
        k(  170) = (   0.2222222   0.2222222  -0.5000000), wk =   0.0041152
        k(  171) = (   0.2222222   0.2777778   0.2777778), wk =   0.0082305
        k(  172) = (   0.2222222   0.2777778   0.3333333), wk =   0.0164609
        k(  173) = (   0.2222222   0.2777778   0.3888889), wk =   0.0164609
        k(  174) = (   0.2222222   0.2777778   0.4444444), wk =   0.0164609
        k(  175) = (   0.2222222   0.2777778  -0.5000000), wk =   0.0082305
        k(  176) = (   0.2222222   0.3333333   0.3333333), wk =   0.0082305
        k(  177) = (   0.2222222   0.3333333   0.3888889), wk =   0.0164609
        k(  178) = (   0.2222222   0.3333333   0.4444444), wk =   0.0164609
        k(  179) = (   0.2222222   0.3333333  -0.5000000), wk =   0.0082305
        k(  180) = (   0.2222222   0.3888889   0.3888889), wk =   0.0082305
        k(  181) = (   0.2222222   0.3888889   0.4444444), wk =   0.0164609
        k(  182) = (   0.2222222   0.3888889  -0.5000000), wk =   0.0082305
        k(  183) = (   0.2222222   0.4444444   0.4444444), wk =   0.0082305
        k(  184) = (   0.2222222   0.4444444  -0.5000000), wk =   0.0082305
        k(  185) = (   0.2222222  -0.5000000  -0.5000000), wk =   0.0020576
        k(  186) = (   0.2777778   0.2777778   0.2777778), wk =   0.0027435
        k(  187) = (   0.2777778   0.2777778   0.3333333), wk =   0.0082305
        k(  188) = (   0.2777778   0.2777778   0.3888889), wk =   0.0082305
        k(  189) = (   0.2777778   0.2777778   0.4444444), wk =   0.0082305
        k(  190) = (   0.2777778   0.2777778  -0.5000000), wk =   0.0041152
        k(  191) = (   0.2777778   0.3333333   0.3333333), wk =   0.0082305
        k(  192) = (   0.2777778   0.3333333   0.3888889), wk =   0.0164609
        k(  193) = (   0.2777778   0.3333333   0.4444444), wk =   0.0164609
        k(  194) = (   0.2777778   0.3333333  -0.5000000), wk =   0.0082305
        k(  195) = (   0.2777778   0.3888889   0.3888889), wk =   0.0082305
        k(  196) = (   0.2777778   0.3888889   0.4444444), wk =   0.0164609
        k(  197) = (   0.2777778   0.3888889  -0.5000000), wk =   0.0082305
        k(  198) = (   0.2777778   0.4444444   0.4444444), wk =   0.0082305
        k(  199) = (   0.2777778   0.4444444  -0.5000000), wk =   0.0082305
        k(  200) = (   0.2777778  -0.5000000  -0.5000000), wk =   0.0020576
        k(  201) = (   0.3333333   0.3333333   0.3333333), wk =   0.0027435
        k(  202) = (   0.3333333   0.3333333   0.3888889), wk =   0.0082305
        k(  203) = (   0.3333333   0.3333333   0.4444444), wk =   0.0082305
        k(  204) = (   0.3333333   0.3333333  -0.5000000), wk =   0.0041152
        k(  205) = (   0.3333333   0.3888889   0.3888889), wk =   0.0082305
        k(  206) = (   0.3333333   0.3888889   0.4444444), wk =   0.0164609
        k(  207) = (   0.3333333   0.3888889  -0.5000000), wk =   0.0082305
        k(  208) = (   0.3333333   0.4444444   0.4444444), wk =   0.0082305
        k(  209) = (   0.3333333   0.4444444  -0.5000000), wk =   0.0082305
        k(  210) = (   0.3333333  -0.5000000  -0.5000000), wk =   0.0020576
        k(  211) = (   0.3888889   0.3888889   0.3888889), wk =   0.0027435
        k(  212) = (   0.3888889   0.3888889   0.4444444), wk =   0.0082305
        k(  213) = (   0.3888889   0.3888889  -0.5000000), wk =   0.0041152
        k(  214) = (   0.3888889   0.4444444   0.4444444), wk =   0.0082305
        k(  215) = (   0.3888889   0.4444444  -0.5000000), wk =   0.0082305
        k(  216) = (   0.3888889  -0.5000000  -0.5000000), wk =   0.0020576
        k(  217) = (   0.4444444   0.4444444   0.4444444), wk =   0.0027435
        k(  218) = (   0.4444444   0.4444444  -0.5000000), wk =   0.0041152
        k(  219) = (   0.4444444  -0.5000000  -0.5000000), wk =   0.0020576
        k(  220) = (  -0.5000000  -0.5000000  -0.5000000), wk =   0.0003429

                       cryst. coord.
        k(    1) = (   0.0000000   0.0000000   0.0000000), wk =   0.0003429
        k(    2) = (   0.0000000   0.0000000   0.0555556), wk =   0.0020576
        k(    3) = (   0.0000000   0.0000000   0.1111111), wk =   0.0020576
        k(    4) = (   0.0000000   0.0000000   0.1666667), wk =   0.0020576
        k(    5) = (   0.0000000   0.0000000   0.2222222), wk =   0.0020576
        k(    6) = (   0.0000000   0.0000000   0.2777778), wk =   0.0020576
        k(    7) = (   0.0000000   0.0000000   0.3333333), wk =   0.0020576
        k(    8) = (   0.0000000   0.0000000   0.3888889), wk =   0.0020576
        k(    9) = (   0.0000000   0.0000000   0.4444444), wk =   0.0020576
        k(   10) = (   0.0000000   0.0000000  -0.5000000), wk =   0.0010288
        k(   11) = (   0.0000000   0.0555556   0.0555556), wk =   0.0041152
        k(   12) = (   0.0000000   0.0555556   0.1111111), wk =   0.0082305
        k(   13) = (   0.0000000   0.0555556   0.1666667), wk =   0.0082305
        k(   14) = (   0.0000000   0.0555556   0.2222222), wk =   0.0082305
        k(   15) = (   0.0000000   0.0555556   0.2777778), wk =   0.0082305
        k(   16) = (   0.0000000   0.0555556   0.3333333), wk =   0.0082305
        k(   17) = (   0.0000000   0.0555556   0.3888889), wk =   0.0082305
        k(   18) = (   0.0000000   0.0555556   0.4444444), wk =   0.0082305
        k(   19) = (   0.0000000   0.0555556  -0.5000000), wk =   0.0041152
        k(   20) = (   0.0000000   0.1111111   0.1111111), wk =   0.0041152
        k(   21) = (   0.0000000   0.1111111   0.1666667), wk =   0.0082305
        k(   22) = (   0.0000000   0.1111111   0.2222222), wk =   0.0082305
        k(   23) = (   0.0000000   0.1111111   0.2777778), wk =   0.0082305
        k(   24) = (   0.0000000   0.1111111   0.3333333), wk =   0.0082305
        k(   25) = (   0.0000000   0.1111111   0.3888889), wk =   0.0082305
        k(   26) = (   0.0000000   0.1111111   0.4444444), wk =   0.0082305
        k(   27) = (   0.0000000   0.1111111  -0.5000000), wk =   0.0041152
        k(   28) = (   0.0000000   0.1666667   0.1666667), wk =   0.0041152
        k(   29) = (   0.0000000   0.1666667   0.2222222), wk =   0.0082305
        k(   30) = (   0.0000000   0.1666667   0.2777778), wk =   0.0082305
        k(   31) = (   0.0000000   0.1666667   0.3333333), wk =   0.0082305
        k(   32) = (   0.0000000   0.1666667   0.3888889), wk =   0.0082305
        k(   33) = (   0.0000000   0.1666667   0.4444444), wk =   0.0082305
        k(   34) = (   0.0000000   0.1666667  -0.5000000), wk =   0.0041152
        k(   35) = (   0.0000000   0.2222222   0.2222222), wk =   0.0041152
        k(   36) = (   0.0000000   0.2222222   0.2777778), wk =   0.0082305
        k(   37) = (   0.0000000   0.2222222   0.3333333), wk =   0.0082305
        k(   38) = (   0.0000000   0.2222222   0.3888889), wk =   0.0082305
        k(   39) = (   0.0000000   0.2222222   0.4444444), wk =   0.0082305
        k(   40) = (   0.0000000   0.2222222  -0.5000000), wk =   0.0041152
        k(   41) = (   0.0000000   0.2777778   0.2777778), wk =   0.0041152
        k(   42) = (   0.0000000   0.2777778   0.3333333), wk =   0.0082305
        k(   43) = (   0.0000000   0.2777778   0.3888889), wk =   0.0082305
        k(   44) = (   0.0000000   0.2777778   0.4444444), wk =   0.0082305
        k(   45) = (   0.0000000   0.2777778  -0.5000000), wk =   0.0041152
        k(   46) = (   0.0000000   0.3333333   0.3333333), wk =   0.0041152
        k(   47) = (   0.0000000   0.3333333   0.3888889), wk =   0.0082305
        k(   48) = (   0.0000000   0.3333333   0.4444444), wk =   0.0082305
        k(   49) = (   0.0000000   0.3333333  -0.5000000), wk =   0.0041152
        k(   50) = (   0.0000000   0.3888889   0.3888889), wk =   0.0041152
        k(   51) = (   0.0000000   0.3888889   0.4444444), wk =   0.0082305
        k(   52) = (   0.0000000   0.3888889  -0.5000000), wk =   0.0041152
        k(   53) = (   0.0000000   0.4444444   0.4444444), wk =   0.0041152
        k(   54) = (   0.0000000   0.4444444  -0.5000000), wk =   0.0041152
        k(   55) = (   0.0000000  -0.5000000  -0.5000000), wk =   0.0010288
        k(   56) = (   0.0555556   0.0555556   0.0555556), wk =   0.0027435
        k(   57) = (   0.0555556   0.0555556   0.1111111), wk =   0.0082305
        k(   58) = (   0.0555556   0.0555556   0.1666667), wk =   0.0082305
        k(   59) = (   0.0555556   0.0555556   0.2222222), wk =   0.0082305
        k(   60) = (   0.0555556   0.0555556   0.2777778), wk =   0.0082305
        k(   61) = (   0.0555556   0.0555556   0.3333333), wk =   0.0082305
        k(   62) = (   0.0555556   0.0555556   0.3888889), wk =   0.0082305
        k(   63) = (   0.0555556   0.0555556   0.4444444), wk =   0.0082305
        k(   64) = (   0.0555556   0.0555556  -0.5000000), wk =   0.0041152
        k(   65) = (   0.0555556   0.1111111   0.1111111), wk =   0.0082305
        k(   66) = (   0.0555556   0.1111111   0.1666667), wk =   0.0164609
        k(   67) = (   0.0555556   0.1111111   0.2222222), wk =   0.0164609
        k(   68) = (   0.0555556   0.1111111   0.2777778), wk =   0.0164609
        k(   69) = (   0.0555556   0.1111111   0.3333333), wk =   0.0164609
        k(   70) = (   0.0555556   0.1111111   0.3888889), wk =   0.0164609
        k(   71) = (   0.0555556   0.1111111   0.4444444), wk =   0.0164609
        k(   72) = (   0.0555556   0.1111111  -0.5000000), wk =   0.0082305
        k(   73) = (   0.0555556   0.1666667   0.1666667), wk =   0.0082305
        k(   74) = (   0.0555556   0.1666667   0.2222222), wk =   0.0164609
        k(   75) = (   0.0555556   0.1666667   0.2777778), wk =   0.0164609
        k(   76) = (   0.0555556   0.1666667   0.3333333), wk =   0.0164609
        k(   77) = (   0.0555556   0.1666667   0.3888889), wk =   0.0164609
        k(   78) = (   0.0555556   0.1666667   0.4444444), wk =   0.0164609
        k(   79) = (   0.0555556   0.1666667  -0.5000000), wk =   0.0082305
        k(   80) = (   0.0555556   0.2222222   0.2222222), wk =   0.0082305
        k(   81) = (   0.0555556   0.2222222   0.2777778), wk =   0.0164609
        k(   82) = (   0.0555556   0.2222222   0.3333333), wk =   0.0164609
        k(   83) = (   0.0555556   0.2222222   0.3888889), wk =   0.0164609
        k(   84) = (   0.0555556   0.2222222   0.4444444), wk =   0.0164609
        k(   85) = (   0.0555556   0.2222222  -0.5000000), wk =   0.0082305
        k(   86) = (   0.0555556   0.2777778   0.2777778), wk =   0.0082305
        k(   87) = (   0.0555556   0.2777778   0.3333333), wk =   0.0164609
        k(   88) = (   0.0555556   0.2777778   0.3888889), wk =   0.0164609
        k(   89) = (   0.0555556   0.2777778   0.4444444), wk =   0.0164609
        k(   90) = (   0.0555556   0.2777778  -0.5000000), wk =   0.0082305
        k(   91) = (   0.0555556   0.3333333   0.3333333), wk =   0.0082305
        k(   92) = (   0.0555556   0.3333333   0.3888889), wk =   0.0164609
        k(   93) = (   0.0555556   0.3333333   0.4444444), wk =   0.0164609
        k(   94) = (   0.0555556   0.3333333  -0.5000000), wk =   0.0082305
        k(   95) = (   0.0555556   0.3888889   0.3888889), wk =   0.0082305
        k(   96) = (   0.0555556   0.3888889   0.4444444), wk =   0.0164609
        k(   97) = (   0.0555556   0.3888889  -0.5000000), wk =   0.0082305
        k(   98) = (   0.0555556   0.4444444   0.4444444), wk =   0.0082305
        k(   99) = (   0.0555556   0.4444444  -0.5000000), wk =   0.0082305
        k(  100) = (   0.0555556  -0.5000000  -0.5000000), wk =   0.0020576
        k(  101) = (   0.1111111   0.1111111   0.1111111), wk =   0.0027435
        k(  102) = (   0.1111111   0.1111111   0.1666667), wk =   0.0082305
        k(  103) = (   0.1111111   0.1111111   0.2222222), wk =   0.0082305
        k(  104) = (   0.1111111   0.1111111   0.2777778), wk =   0.0082305
        k(  105) = (   0.1111111   0.1111111   0.3333333), wk =   0.0082305
        k(  106) = (   0.1111111   0.1111111   0.3888889), wk =   0.0082305
        k(  107) = (   0.1111111   0.1111111   0.4444444), wk =   0.0082305
        k(  108) = (   0.1111111   0.1111111  -0.5000000), wk =   0.0041152
        k(  109) = (   0.1111111   0.1666667   0.1666667), wk =   0.0082305
        k(  110) = (   0.1111111   0.1666667   0.2222222), wk =   0.0164609
        k(  111) = (   0.1111111   0.1666667   0.2777778), wk =   0.0164609
        k(  112) = (   0.1111111   0.1666667   0.3333333), wk =   0.0164609
        k(  113) = (   0.1111111   0.1666667   0.3888889), wk =   0.0164609
        k(  114) = (   0.1111111   0.1666667   0.4444444), wk =   0.0164609
        k(  115) = (   0.1111111   0.1666667  -0.5000000), wk =   0.0082305
        k(  116) = (   0.1111111   0.2222222   0.2222222), wk =   0.0082305
        k(  117) = (   0.1111111   0.2222222   0.2777778), wk =   0.0164609
        k(  118) = (   0.1111111   0.2222222   0.3333333), wk =   0.0164609
        k(  119) = (   0.1111111   0.2222222   0.3888889), wk =   0.0164609
        k(  120) = (   0.1111111   0.2222222   0.4444444), wk =   0.0164609
        k(  121) = (   0.1111111   0.2222222  -0.5000000), wk =   0.0082305
        k(  122) = (   0.1111111   0.2777778   0.2777778), wk =   0.0082305
        k(  123) = (   0.1111111   0.2777778   0.3333333), wk =   0.0164609
        k(  124) = (   0.1111111   0.2777778   0.3888889), wk =   0.0164609
        k(  125) = (   0.1111111   0.2777778   0.4444444), wk =   0.0164609
        k(  126) = (   0.1111111   0.2777778  -0.5000000), wk =   0.0082305
        k(  127) = (   0.1111111   0.3333333   0.3333333), wk =   0.0082305
        k(  128) = (   0.1111111   0.3333333   0.3888889), wk =   0.0164609
        k(  129) = (   0.1111111   0.3333333   0.4444444), wk =   0.0164609
        k(  130) = (   0.1111111   0.3333333  -0.5000000), wk =   0.0082305
        k(  131) = (   0.1111111   0.3888889   0.3888889), wk =   0.0082305
        k(  132) = (   0.1111111   0.3888889   0.4444444), wk =   0.0164609
        k(  133) = (   0.1111111   0.3888889  -0.5000000), wk =   0.0082305
        k(  134) = (   0.1111111   0.4444444   0.4444444), wk =   0.0082305
        k(  135) = (   0.1111111   0.4444444  -0.5000000), wk =   0.0082305
        k(  136) = (   0.1111111  -0.5000000  -0.5000000), wk =   0.0020576
        k(  137) = (   0.1666667   0.1666667   0.1666667), wk =   0.0027435
        k(  138) = (   0.1666667   0.1666667   0.2222222), wk =   0.0082305
        k(  139) = (   0.1666667   0.1666667   0.2777778), wk =   0.0082305
        k(  140) = (   0.1666667   0.1666667   0.3333333), wk =   0.0082305
        k(  141) = (   0.1666667   0.1666667   0.3888889), wk =   0.0082305
        k(  142) = (   0.1666667   0.1666667   0.4444444), wk =   0.0082305
        k(  143) = (   0.1666667   0.1666667  -0.5000000), wk =   0.0041152
        k(  144) = (   0.1666667   0.2222222   0.2222222), wk =   0.0082305
        k(  145) = (   0.1666667   0.2222222   0.2777778), wk =   0.0164609
        k(  146) = (   0.1666667   0.2222222   0.3333333), wk =   0.0164609
        k(  147) = (   0.1666667   0.2222222   0.3888889), wk =   0.0164609
        k(  148) = (   0.1666667   0.2222222   0.4444444), wk =   0.0164609
        k(  149) = (   0.1666667   0.2222222  -0.5000000), wk =   0.0082305
        k(  150) = (   0.1666667   0.2777778   0.2777778), wk =   0.0082305
        k(  151) = (   0.1666667   0.2777778   0.3333333), wk =   0.0164609
        k(  152) = (   0.1666667   0.2777778   0.3888889), wk =   0.0164609
        k(  153) = (   0.1666667   0.2777778   0.4444444), wk =   0.0164609
        k(  154) = (   0.1666667   0.2777778  -0.5000000), wk =   0.0082305
        k(  155) = (   0.1666667   0.3333333   0.3333333), wk =   0.0082305
        k(  156) = (   0.1666667   0.3333333   0.3888889), wk =   0.0164609
        k(  157) = (   0.1666667   0.3333333   0.4444444), wk =   0.0164609
        k(  158) = (   0.1666667   0.3333333  -0.5000000), wk =   0.0082305
        k(  159) = (   0.1666667   0.3888889   0.3888889), wk =   0.0082305
        k(  160) = (   0.1666667   0.3888889   0.4444444), wk =   0.0164609
        k(  161) = (   0.1666667   0.3888889  -0.5000000), wk =   0.0082305
        k(  162) = (   0.1666667   0.4444444   0.4444444), wk =   0.0082305
        k(  163) = (   0.1666667   0.4444444  -0.5000000), wk =   0.0082305
        k(  164) = (   0.1666667  -0.5000000  -0.5000000), wk =   0.0020576
        k(  165) = (   0.2222222   0.2222222   0.2222222), wk =   0.0027435
        k(  166) = (   0.2222222   0.2222222   0.2777778), wk =   0.0082305
        k(  167) = (   0.2222222   0.2222222   0.3333333), wk =   0.0082305
        k(  168) = (   0.2222222   0.2222222   0.3888889), wk =   0.0082305
        k(  169) = (   0.2222222   0.2222222   0.4444444), wk =   0.0082305
        k(  170) = (   0.2222222   0.2222222  -0.5000000), wk =   0.0041152
        k(  171) = (   0.2222222   0.2777778   0.2777778), wk =   0.0082305
        k(  172) = (   0.2222222   0.2777778   0.3333333), wk =   0.0164609
        k(  173) = (   0.2222222   0.2777778   0.3888889), wk =   0.0164609
        k(  174) = (   0.2222222   0.2777778   0.4444444), wk =   0.0164609
        k(  175) = (   0.2222222   0.2777778  -0.5000000), wk =   0.0082305
        k(  176) = (   0.2222222   0.3333333   0.3333333), wk =   0.0082305
        k(  177) = (   0.2222222   0.3333333   0.3888889), wk =   0.0164609
        k(  178) = (   0.2222222   0.3333333   0.4444444), wk =   0.0164609
        k(  179) = (   0.2222222   0.3333333  -0.5000000), wk =   0.0082305
        k(  180) = (   0.2222222   0.3888889   0.3888889), wk =   0.0082305
        k(  181) = (   0.2222222   0.3888889   0.4444444), wk =   0.0164609
        k(  182) = (   0.2222222   0.3888889  -0.5000000), wk =   0.0082305
        k(  183) = (   0.2222222   0.4444444   0.4444444), wk =   0.0082305
        k(  184) = (   0.2222222   0.4444444  -0.5000000), wk =   0.0082305
        k(  185) = (   0.2222222  -0.5000000  -0.5000000), wk =   0.0020576
        k(  186) = (   0.2777778   0.2777778   0.2777778), wk =   0.0027435
        k(  187) = (   0.2777778   0.2777778   0.3333333), wk =   0.0082305
        k(  188) = (   0.2777778   0.2777778   0.3888889), wk =   0.0082305
        k(  189) = (   0.2777778   0.2777778   0.4444444), wk =   0.0082305
        k(  190) = (   0.2777778   0.2777778  -0.5000000), wk =   0.0041152
        k(  191) = (   0.2777778   0.3333333   0.3333333), wk =   0.0082305
        k(  192) = (   0.2777778   0.3333333   0.3888889), wk =   0.0164609
        k(  193) = (   0.2777778   0.3333333   0.4444444), wk =   0.0164609
        k(  194) = (   0.2777778   0.3333333  -0.5000000), wk =   0.0082305
        k(  195) = (   0.2777778   0.3888889   0.3888889), wk =   0.0082305
        k(  196) = (   0.2777778   0.3888889   0.4444444), wk =   0.0164609
        k(  197) = (   0.2777778   0.3888889  -0.5000000), wk =   0.0082305
        k(  198) = (   0.2777778   0.4444444   0.4444444), wk =   0.0082305
        k(  199) = (   0.2777778   0.4444444  -0.5000000), wk =   0.0082305
        k(  200) = (   0.2777778  -0.5000000  -0.5000000), wk =   0.0020576
        k(  201) = (   0.3333333   0.3333333   0.3333333), wk =   0.0027435
        k(  202) = (   0.3333333   0.3333333   0.3888889), wk =   0.0082305
        k(  203) = (   0.3333333   0.3333333   0.4444444), wk =   0.0082305
        k(  204) = (   0.3333333   0.3333333  -0.5000000), wk =   0.0041152
        k(  205) = (   0.3333333   0.3888889   0.3888889), wk =   0.0082305
        k(  206) = (   0.3333333   0.3888889   0.4444444), wk =   0.0164609
        k(  207) = (   0.3333333   0.3888889  -0.5000000), wk =   0.0082305
        k(  208) = (   0.3333333   0.4444444   0.4444444), wk =   0.0082305
        k(  209) = (   0.3333333   0.4444444  -0.5000000), wk =   0.0082305
        k(  210) = (   0.3333333  -0.5000000  -0.5000000), wk =   0.0020576
        k(  211) = (   0.3888889   0.3888889   0.3888889), wk =   0.0027435
        k(  212) = (   0.3888889   0.3888889   0.4444444), wk =   0.0082305
        k(  213) = (   0.3888889   0.3888889  -0.5000000), wk =   0.0041152
        k(  214) = (   0.3888889   0.4444444   0.4444444), wk =   0.0082305
        k(  215) = (   0.3888889   0.4444444  -0.5000000), wk =   0.0082305
        k(  216) = (   0.3888889  -0.5000000  -0.5000000), wk =   0.0020576
        k(  217) = (   0.4444444   0.4444444   0.4444444), wk =   0.0027435
        k(  218) = (   0.4444444   0.4444444  -0.5000000), wk =   0.0041152
        k(  219) = (   0.4444444  -0.5000000  -0.5000000), wk =   0.0020576
        k(  220) = (  -0.5000000  -0.5000000  -0.5000000), wk =   0.0003429

     Dense  grid:    21247 G-vectors     FFT dimensions: (  36,  36,  36)

     Dynamical RAM for                 wfc:       0.05 MB

     Dynamical RAM for     wfc (w. buffer):      10.68 MB

     Dynamical RAM for           str. fact:       0.05 MB

     Dynamical RAM for           local pot:       0.00 MB

     Dynamical RAM for          nlocal pot:       0.15 MB

     Dynamical RAM for                qrad:       4.13 MB

     Dynamical RAM for          rho,v,vnew:       0.11 MB

     Dynamical RAM for               rhoin:       0.04 MB

     Dynamical RAM for            rho*nmix:       0.26 MB

     Dynamical RAM for           G-vectors:       0.07 MB

     Dynamical RAM for          h,s,v(r/c):       0.05 MB

     Dynamical RAM for          <psi|beta>:       0.03 MB

     Dynamical RAM for                 psi:       0.19 MB

     Dynamical RAM for                hpsi:       0.19 MB

     Dynamical RAM for                spsi:       0.19 MB

     Dynamical RAM for      wfcinit/wfcrot:       0.17 MB

     Dynamical RAM for           addusdens:       3.06 MB

     Estimated static dynamical RAM per process >      15.65 MB

     Estimated max dynamical RAM per process >      18.71 MB

     Estimated total dynamical RAM >     374.25 MB

     Check: negative/imaginary core charge=   -0.000005    0.000000

     Initial potential from superposition of free atoms
     Check: negative starting charge=   -0.063358

     starting charge   38.96630, renormalised to   40.00000

     negative rho (up, down):  6.504E-02 0.000E+00
     Starting wfcs are   35 randomized atomic wfcs

     total cpu time spent up to now is        2.0 secs

     Self-consistent Calculation

     iteration #  1     ecut=    50.00 Ry     beta= 0.70
     Davidson diagonalization with overlap
     ethr =  1.00E-02,  avg # of iterations =  2.0

     negative rho (up, down):  6.332E-02 0.000E+00

     total cpu time spent up to now is        6.0 secs

     total energy              =    -286.49615093 Ry
     Harris-Foulkes estimate   =    -287.27117620 Ry
     estimated scf accuracy    <       0.98064940 Ry

     iteration #  2     ecut=    50.00 Ry     beta= 0.70
     Davidson diagonalization with overlap
     ethr =  2.45E-03,  avg # of iterations =  3.6

     negative rho (up, down):  6.300E-02 0.000E+00

     total cpu time spent up to now is       13.4 secs

     total energy              =    -284.59029906 Ry
     Harris-Foulkes estimate   =    -288.27038060 Ry
     estimated scf accuracy    <      18.26766843 Ry

     iteration #  3     ecut=    50.00 Ry     beta= 0.70
     Davidson diagonalization with overlap
     ethr =  2.45E-03,  avg # of iterations =  3.8

     negative rho (up, down):  6.440E-02 0.000E+00

     total cpu time spent up to now is       20.9 secs

     total energy              =    -287.00094528 Ry
     Harris-Foulkes estimate   =    -287.11550394 Ry
     estimated scf accuracy    <       0.35325861 Ry

     iteration #  4     ecut=    50.00 Ry     beta= 0.70
     Davidson diagonalization with overlap
     ethr =  8.83E-04,  avg # of iterations =  2.3

     negative rho (up, down):  6.517E-02 0.000E+00

     total cpu time spent up to now is       25.6 secs

     total energy              =    -286.99952104 Ry
     Harris-Foulkes estimate   =    -287.03000827 Ry
     estimated scf accuracy    <       0.14662067 Ry

     iteration #  5     ecut=    50.00 Ry     beta= 0.70
     Davidson diagonalization with overlap
     ethr =  3.67E-04,  avg # of iterations =  2.7

     negative rho (up, down):  6.523E-02 0.000E+00

     total cpu time spent up to now is       30.5 secs

     total energy              =    -287.00235125 Ry
     Harris-Foulkes estimate   =    -287.00899579 Ry
     estimated scf accuracy    <       0.02780175 Ry

     iteration #  6     ecut=    50.00 Ry     beta= 0.70
     Davidson diagonalization with overlap
     ethr =  6.95E-05,  avg # of iterations =  2.9

     negative rho (up, down):  6.523E-02 0.000E+00

     total cpu time spent up to now is       35.5 secs

     total energy              =    -287.00306753 Ry
     Harris-Foulkes estimate   =    -287.00429770 Ry
     estimated scf accuracy    <       0.00410113 Ry

     iteration #  7     ecut=    50.00 Ry     beta= 0.70
     Davidson diagonalization with overlap
     ethr =  1.03E-05,  avg # of iterations =  3.2

     negative rho (up, down):  6.527E-02 0.000E+00

     total cpu time spent up to now is       41.1 secs

     total energy              =    -287.00355574 Ry
     Harris-Foulkes estimate   =    -287.00361008 Ry
     estimated scf accuracy    <       0.00009121 Ry

     iteration #  8     ecut=    50.00 Ry     beta= 0.70
     Davidson diagonalization with overlap
     ethr =  2.28E-07,  avg # of iterations =  3.2

     negative rho (up, down):  6.528E-02 0.000E+00

     total cpu time spent up to now is       47.5 secs

     total energy              =    -287.00359055 Ry
     Harris-Foulkes estimate   =    -287.00363270 Ry
     estimated scf accuracy    <       0.00012492 Ry

     iteration #  9     ecut=    50.00 Ry     beta= 0.70
     Davidson diagonalization with overlap
     ethr =  2.28E-07,  avg # of iterations =  2.9

     negative rho (up, down):  6.529E-02 0.000E+00

     total cpu time spent up to now is       52.6 secs

     total energy              =    -287.00360672 Ry
     Harris-Foulkes estimate   =    -287.00360714 Ry
     estimated scf accuracy    <       0.00000086 Ry

     iteration # 10     ecut=    50.00 Ry     beta= 0.70
     Davidson diagonalization with overlap
     ethr =  2.15E-09,  avg # of iterations =  3.1

     negative rho (up, down):  6.529E-02 0.000E+00

     total cpu time spent up to now is       58.8 secs

     total energy              =    -287.00360724 Ry
     Harris-Foulkes estimate   =    -287.00360740 Ry
     estimated scf accuracy    <       0.00000044 Ry

     iteration # 11     ecut=    50.00 Ry     beta= 0.70
     Davidson diagonalization with overlap
     ethr =  1.11E-09,  avg # of iterations =  2.0

     negative rho (up, down):  6.529E-02 0.000E+00

     total cpu time spent up to now is       63.0 secs

     total energy              =    -287.00360727 Ry
     Harris-Foulkes estimate   =    -287.00360729 Ry
     estimated scf accuracy    <       0.00000004 Ry

     iteration # 12     ecut=    50.00 Ry     beta= 0.70
     Davidson diagonalization with overlap
     ethr =  9.48E-11,  avg # of iterations =  2.8

     negative rho (up, down):  6.529E-02 0.000E+00

     total cpu time spent up to now is       68.6 secs

     End of self-consistent calculation

          k = 0.0000 0.0000 0.0000 (  2601 PWs)   bands (ev):

   -48.0475 -24.2796 -24.2499 -24.2499 -24.2499  -8.2809  -7.3809  -7.3809
    -6.2433  -6.2433  -6.2433   6.0323   6.0323   6.0323   7.7371   7.7371
     7.7371   8.3655   8.3655   8.3655  10.4553  10.4553  10.4553  12.4503

     occupation numbers 
     1.0000   1.0000   1.0000   1.0000   1.0000   1.0000   1.0000   1.0000
     1.0000   1.0000   1.0000   1.0000   1.0000   1.0000   1.0000   1.0000
     1.0000   1.0000   1.0000   1.0000   0.0000   0.0000   0.0000   0.0000

          k = 0.0000 0.0000 0.0556 (  2613 PWs)   bands (ev):

   -48.0475 -24.2843 -24.2499 -24.2499 -24.2461  -8.2811  -7.3867  -7.3800
    -6.2424  -6.2424  -6.2230   5.9953   6.0323   6.0323   7.6999   7.6999
     7.7132   8.2695   8.3440   8.3440  10.4590  10.5205  10.5205  12.5444

     occupation numbers 
     1.0000   1.0000   1.0000   1.0000   1.0000   1.0000   1.0000   1.0000
     1.0000   1.0000   1.0000   1.0000   1.0000   1.0000   1.0000   1.0000
     1.0000   1.0000   1.0000   1.0000   0.0000   0.0000   0.0000   0.0000

          k = 0.0000 0.0000 0.1111 (  2637 PWs)   bands (ev):

   -48.0474 -24.2944 -24.2497 -24.2497 -24.2384  -8.2842  -7.3978  -7.3775
    -6.2396  -6.2396  -6.1675   5.8885   6.0325   6.0325   7.5934   7.5934
     7.6460   8.0185   8.2929   8.2929  10.4695  10.6967  10.6967  12.4509

     occupation numbers 
     1.0000   1.0000   1.0000   1.0000   1.0000   1.0000   1.0000   1.0000
     1.0000   1.0000   1.0000   1.0000   1.0000   1.0000   1.0000   1.0000
     1.0000   1.0000   1.0000   1.0000   0.0000   0.0000   0.0000   0.0000

          k = 0.0000 0.0000 0.1667 (  2645 PWs)   bands (ev):

   -48.0474 -24.3064 -24.2495 -24.2495 -24.2302  -8.2958  -7.3999  -7.3736
    -6.2354  -6.2354  -6.0899   5.7231   6.0341   6.0341   7.4358   7.4358
     7.5471   7.6891   8.2344   8.2344  10.4857  10.9422  10.9422  12.4516

     occupation numbers 
     1.0000   1.0000   1.0000   1.0000   1.0000   1.0000   1.0000   1.0000
     1.0000   1.0000   1.0000   1.0000   1.0000   1.0000   1.0000   1.0000
     1.0000   1.0000   1.0000   1.0000   0.0000   0.0000   0.0000   0.0000

          k = 0.0000 0.0000 0.2222 (  2661 PWs)   bands (ev):

   -48.0473 -24.3187 -24.2492 -24.2492 -24.2226  -8.3196  -7.3821  -7.3689
    -6.2302  -6.2302  -6.0039   5.5166   6.0385   6.0385   7.2532   7.2532
     7.3492   7.4316   8.1794   8.1794  10.5059  11.2165  11.2165  12.4525

     occupation numbers 
     1.0000   1.0000   1.0000   1.0000   1.0000   1.0000   1.0000   1.0000
     1.0000   1.0000   1.0000   1.0000   1.0000   1.0000   1.0000   1.0000
     1.0000   1.0000   1.0000   1.0000   0.0000   0.0000   0.0000   0.0000

          k = 0.0000 0.0000 0.2778 (  2665 PWs)   bands (ev):

   -48.0472 -24.3302 -24.2489 -24.2489 -24.2160  -8.3540  -7.3638  -7.3438
    -6.2246  -6.2246  -5.9211   5.2921   6.0473   6.0473   7.0435   7.0694
     7.0694   7.3151   8.1314   8.1314  10.5277  11.4871  11.4871  12.4534

     occupation numbers 
     1.0000   1.0000   1.0000   1.0000   1.0000   1.0000   1.0000   1.0000
     1.0000   1.0000   1.0000   1.0000   1.0000   1.0000   1.0000   1.0000
     1.0000   1.0000   1.0000   1.0000   0.0000   0.0000   0.0000   0.0000

          k = 0.0000 0.0000 0.3333 (  2657 PWs)   bands (ev):

   -48.0471 -24.3402 -24.2486 -24.2486 -24.2106  -8.3921  -7.3590  -7.2938
    -6.2194  -6.2194  -5.8500   5.0770   6.0616   6.0616   6.7957   6.9026
     6.9026   7.2107   8.0919   8.0919  10.5484  11.7276  11.7276  12.4543

     occupation numbers 
     1.0000   1.0000   1.0000   1.0000   1.0000   1.0000   1.0000   1.0000
     1.0000   1.0000   1.0000   1.0000   1.0000   1.0000   1.0000   1.0000
     1.0000   1.0000   1.0000   1.0000   0.0000   0.0000   0.0000   0.0000

          k = 0.0000 0.0000 0.3889 (  2645 PWs)   bands (ev):

   -48.0470 -24.3479 -24.2483 -24.2483 -24.2066  -8.4258  -7.3551  -7.2449
    -6.2151  -6.2151  -5.7961   4.8989   6.0803   6.0803   6.6161   6.7667
     6.7667   7.1289   8.0624   8.0624  10.5654  11.9167  11.9167  12.4550

     occupation numbers 
     1.0000   1.0000   1.0000   1.0000   1.0000   1.0000   1.0000   1.0000
     1.0000   1.0000   1.0000   1.0000   1.0000   1.0000   1.0000   1.0000
     1.0000   1.0000   1.0000   1.0000   0.0000   0.0000   0.0000   0.0000

          k = 0.0000 0.0000 0.4444 (  2650 PWs)   bands (ev):

   -48.0469 -24.3528 -24.2482 -24.2482 -24.2042  -8.4487  -7.3525  -7.2098
    -6.2123  -6.2123  -5.7627   4.7817   6.0982   6.0982   6.5077   6.6753
     6.6753   7.0770   8.0442   8.0442  10.5767  12.0375  12.0375  12.4555

     occupation numbers 
     1.0000   1.0000   1.0000   1.0000   1.0000   1.0000   1.0000   1.0000
     1.0000   1.0000   1.0000   1.0000   1.0000   1.0000   1.0000   1.0000
     1.0000   1.0000   1.0000   1.0000   0.0000   0.0000   0.0000   0.0000

          k = 0.0000 0.0000-0.5000 (  2666 PWs)   bands (ev):

   -48.0469 -24.3545 -24.2481 -24.2481 -24.2033  -8.4568  -7.3516  -7.1970
    -6.2114  -6.2114  -5.7514   4.7408   6.1060   6.1060   6.4717   6.6424
     6.6424   7.0591   8.0380   8.0380  10.5806  12.0790  12.0790  12.4557

     occupation numbers 
     1.0000   1.0000   1.0000   1.0000   1.0000   1.0000   1.0000   1.0000
     1.0000   1.0000   1.0000   1.0000   1.0000   1.0000   1.0000   1.0000
     1.0000   1.0000   1.0000   1.0000   0.0000   0.0000   0.0000   0.0000

          k = 0.0000 0.0556 0.0556 (  2621 PWs)   bands (ev):

   -48.0475 -24.2877 -24.2512 -24.2498 -24.2422  -8.2808  -7.3900  -7.3820
    -6.2414  -6.2301  -6.2146   5.9704   6.0201   6.0323   7.6147   7.6647
     7.7392   8.2176   8.2865   8.3206  10.5142  10.5337  10.5786  12.4972

     occupation numbers 
     1.0000   1.0000   1.0000   1.0000   1.0000   1.0000   1.0000   1.0000
     1.0000   1.0000   1.0000   1.0000   1.0000   1.0000   1.0000   1.0000
     1.0000   1.0000   1.0000   1.0000   0.0000   0.0000   0.0000   0.0000

          k = 0.0000 0.0556 0.1111 (  2634 PWs)   bands (ev):

   -48.0474 -24.2961 -24.2518 -24.2497 -24.2354  -8.2823  -7.4014  -7.3798
    -6.2387  -6.2238  -6.1641   5.8713   6.0124   6.0327   7.4703   7.5637
     7.7128   7.9979   8.2256   8.2650  10.5319  10.7013  10.7391  12.5154

     occupation numbers 
     1.0000   1.0000   1.0000   1.0000   1.0000   1.0000   1.0000   1.0000
     1.0000   1.0000   1.0000   1.0000   1.0000   1.0000   1.0000   1.0000
     1.0000   1.0000   1.0000   1.0000   0.0000   0.0000   0.0000   0.0000

          k = 0.0000 0.0556 0.1667 (  2645 PWs)   bands (ev):

   -48.0473 -24.3070 -24.2518 -24.2494 -24.2282  -8.2913  -7.4060  -7.3749
    -6.2344  -6.2196  -6.0884   5.7101   6.0089   6.0344   7.2838   7.4120
     7.6174   7.7212   8.1677   8.2014  10.5476  10.9455  10.9691  12.5190

     occupation numbers 
     1.0000   1.0000   1.0000   1.0000   1.0000   1.0000   1.0000   1.0000
     1.0000   1.0000   1.0000   1.0000   1.0000   1.0000   1.0000   1.0000
     1.0000   1.0000   1.0000   1.0000   0.0000   0.0000   0.0000   0.0000

          k = 0.0000 0.0556 0.2222 (  2652 PWs)   bands (ev):

   -48.0472 -24.3185 -24.2514 -24.2491 -24.2215  -8.3122  -7.3922  -7.3679
    -6.2292  -6.2149  -6.0043   5.5074   6.0075   6.0391   7.0641   7.2341
     7.3783   7.5680   8.1133   8.1424  10.5669  11.2188  11.2319  12.5206

     occupation numbers 
     1.0000   1.0000   1.0000   1.0000   1.0000   1.0000   1.0000   1.0000
     1.0000   1.0000   1.0000   1.0000   1.0000   1.0000   1.0000   1.0000
     1.0000   1.0000   1.0000   1.0000   0.0000   0.0000   0.0000   0.0000

          k = 0.0000 0.0556 0.2778 (  2659 PWs)   bands (ev):

   -48.0471 -24.3296 -24.2508 -24.2488 -24.2156  -8.3440  -7.3681  -7.3502
    -6.2236  -6.2098  -5.9233   5.2861   6.0098   6.0483   6.8255   7.0536
     7.1487   7.4535   8.0656   8.0917  10.5876  11.4885  11.4953  12.5217

     occupation numbers 
     1.0000   1.0000   1.0000   1.0000   1.0000   1.0000   1.0000   1.0000
     1.0000   1.0000   1.0000   1.0000   1.0000   1.0000   1.0000   1.0000
     1.0000   1.0000   1.0000   1.0000   0.0000   0.0000   0.0000   0.0000

          k = 0.0000 0.0556 0.3333 (  2644 PWs)   bands (ev):

   -48.0470 -24.3392 -24.2503 -24.2485 -24.2108  -8.3801  -7.3591  -7.3057
    -6.2183  -6.2049  -5.8537   5.0732   6.0184   6.0631   6.6010   6.8888
     6.9766   7.3499   8.0263   8.0505  10.6073  11.7284  11.7320  12.5223

     occupation numbers 
     1.0000   1.0000   1.0000   1.0000   1.0000   1.0000   1.0000   1.0000
     1.0000   1.0000   1.0000   1.0000   1.0000   1.0000   1.0000   1.0000
     1.0000   1.0000   1.0000   1.0000   0.0000   0.0000   0.0000   0.0000

          k = 0.0000 0.0556 0.3889 (  2652 PWs)   bands (ev):

   -48.0470 -24.3468 -24.2498 -24.2483 -24.2072  -8.4125  -7.3536  -7.2594
    -6.2141  -6.2008  -5.8009   4.8964   6.0359   6.0823   6.4184   6.7539
     6.8550   7.2674   7.9969   8.0199  10.6236  11.9170  11.9195  12.5225

     occupation numbers 
     1.0000   1.0000   1.0000   1.0000   1.0000   1.0000   1.0000   1.0000
     1.0000   1.0000   1.0000   1.0000   1.0000   1.0000   1.0000   1.0000
     1.0000   1.0000   1.0000   1.0000   0.0000   0.0000   0.0000   0.0000

          k = 0.0000 0.0556 0.4444 (  2656 PWs)   bands (ev):

   -48.0469 -24.3516 -24.2495 -24.2481 -24.2050  -8.4346  -7.3502  -7.2256
    -6.2112  -6.1981  -5.7682   4.7797   6.0627   6.1008   6.2903   6.6628
     6.7815   7.2145   7.9785   8.0011  10.6343  12.0376  12.0401  12.5223

     occupation numbers 
     1.0000   1.0000   1.0000   1.0000   1.0000   1.0000   1.0000   1.0000
     1.0000   1.0000   1.0000   1.0000   1.0000   1.0000   1.0000   1.0000
     1.0000   1.0000   1.0000   1.0000   0.0000   0.0000   0.0000   0.0000

          k = 0.0000 0.0556-0.5000 (  2650 PWs)   bands (ev):

   -48.0469 -24.3532 -24.2494 -24.2481 -24.2042  -8.4425  -7.3491  -7.2133
    -6.2103  -6.1971  -5.7572   4.7390   6.0817   6.1089   6.2373   6.6300
     6.7568   7.1963   7.9723   7.9948  10.6380  12.0790  12.0817  12.5221

     occupation numbers 
     1.0000   1.0000   1.0000   1.0000   1.0000   1.0000   1.0000   1.0000
     1.0000   1.0000   1.0000   1.0000   1.0000   1.0000   1.0000   1.0000
     1.0000   1.0000   1.0000   1.0000   0.0000   0.0000   0.0000   0.0000

          k = 0.0000 0.1111 0.1111 (  2636 PWs)   bands (ev):

   -48.0474 -24.3011 -24.2548 -24.2495 -24.2299  -8.2788  -7.4149  -7.3783
    -6.2359  -6.1929  -6.1423   5.8022   5.9737   6.0335   7.2790   7.4765
     7.7440   7.8866   8.1059   8.1974  10.6762  10.7386  10.8628  12.6170

     occupation numbers 
     1.0000   1.0000   1.0000   1.0000   1.0000   1.0000   1.0000   1.0000
     1.0000   1.0000   1.0000   1.0000   1.0000   1.0000   1.0000   1.0000
     1.0000   1.0000   1.0000   1.0000   0.0000   0.0000   0.0000   0.0000

          k = 0.0000 0.1111 0.1667 (  2637 PWs)   bands (ev):

   -48.0473 -24.3088 -24.2563 -24.2493 -24.2242  -8.2802  -7.4267  -7.3707
    -6.2315  -6.1795  -6.0817   5.6646   5.9446   6.0359   7.0528   7.3414
     7.6272   7.7602   8.0329   8.1192  10.7133  10.9568  11.0531  12.6603

     occupation numbers 
     1.0000   1.0000   1.0000   1.0000   1.0000   1.0000   1.0000   1.0000
     1.0000   1.0000   1.0000   1.0000   1.0000   1.0000   1.0000   1.0000
     1.0000   1.0000   1.0000   1.0000   0.0000   0.0000   0.0000   0.0000

          k = 0.0000 0.1111 0.2222 (  2649 PWs)   bands (ev):

   -48.0472 -24.3181 -24.2565 -24.2490 -24.2191  -8.2922  -7.4231  -7.3594
    -6.2263  -6.1738  -6.0048   5.4773   5.9233   6.0414   6.8050   7.1777
     7.3839   7.7185   7.9722   8.0477  10.7320  11.2257  11.2843  12.6761

     occupation numbers 
     1.0000   1.0000   1.0000   1.0000   1.0000   1.0000   1.0000   1.0000
     1.0000   1.0000   1.0000   1.0000   1.0000   1.0000   1.0000   1.0000
     1.0000   1.0000   1.0000   1.0000   0.0000   0.0000   0.0000   0.0000

          k = 0.0000 0.1111 0.2778 (  2656 PWs)   bands (ev):

   -48.0471 -24.3277 -24.2559 -24.2487 -24.2148  -8.3156  -7.4020  -7.3444
    -6.2206  -6.1695  -5.9292   5.2670   5.9058   6.0515   6.5581   7.0073
     7.1794   7.6613   7.9167   7.9879  10.7506  11.4927  11.5266  12.6832

     occupation numbers 
     1.0000   1.0000   1.0000   1.0000   1.0000   1.0000   1.0000   1.0000
     1.0000   1.0000   1.0000   1.0000   1.0000   1.0000   1.0000   1.0000
     1.0000   1.0000   1.0000   1.0000   0.0000   0.0000   0.0000   0.0000

          k = 0.0000 0.1111 0.3333 (  2661 PWs)   bands (ev):

   -48.0470 -24.3365 -24.2550 -24.2484 -24.2114  -8.3453  -7.3747  -7.3227
    -6.2153  -6.1654  -5.8639   5.0613   5.8933   6.0675   6.3398   6.8488
     7.0266   7.5971   7.8710   7.9407  10.7681  11.7308  11.7512  12.6864

     occupation numbers 
     1.0000   1.0000   1.0000   1.0000   1.0000   1.0000   1.0000   1.0000
     1.0000   1.0000   1.0000   1.0000   1.0000   1.0000   1.0000   1.0000
     1.0000   1.0000   1.0000   1.0000   0.0000   0.0000   0.0000   0.0000

          k = 0.0000 0.1111 0.3889 (  2648 PWs)   bands (ev):

   -48.0469 -24.3434 -24.2541 -24.2481 -24.2089  -8.3734  -7.3555  -7.2934
    -6.2109  -6.1618  -5.8144   4.8886   5.8897   6.0882   6.1685   6.7173
     6.9214   7.5401   7.8372   7.9064  10.7825  11.9182  11.9331  12.6874

     occupation numbers 
     1.0000   1.0000   1.0000   1.0000   1.0000   1.0000   1.0000   1.0000
     1.0000   1.0000   1.0000   1.0000   1.0000   1.0000   1.0000   1.0000
     1.0000   1.0000   1.0000   1.0000   0.0000   0.0000   0.0000   0.0000

          k = 0.0000 0.1111 0.4444 (  2657 PWs)   bands (ev):

   -48.0469 -24.3479 -24.2534 -24.2480 -24.2074  -8.3931  -7.3459  -7.2679
    -6.2081  -6.1593  -5.7837   4.7738   5.8987   6.0514   6.1083   6.6273
     6.8597   7.5014   7.8165   7.8856  10.7920  12.0380  12.0516  12.6872

     occupation numbers 
     1.0000   1.0000   1.0000   1.0000   1.0000   1.0000   1.0000   1.0000
     1.0000   1.0000   1.0000   1.0000   1.0000   1.0000   1.0000   1.0000
     1.0000   1.0000   1.0000   1.0000   0.0000   0.0000   0.0000   0.0000

          k = 0.0000 0.1111-0.5000 (  2654 PWs)   bands (ev):

   -48.0468 -24.3494 -24.2532 -24.2479 -24.2069  -8.4002  -7.3429  -7.2581
[...]
     1.0000   1.0000   1.0000   1.0000   0.0000   0.0000   0.0000   0.0000

          k = 0.2778 0.3333 0.3333 (  2647 PWs)   bands (ev):

   -48.0463 -24.3009 -24.2796 -24.2736 -24.2304  -7.8333  -7.3867  -7.3129
    -6.2568  -6.1693  -5.9567   4.8279   5.2864   5.4020   5.5056   5.7624
     5.7855   8.0830   8.1343   8.4302  12.0657  12.1078  12.1939  14.8140

     occupation numbers 
     1.0000   1.0000   1.0000   1.0000   1.0000   1.0000   1.0000   1.0000
     1.0000   1.0000   1.0000   1.0000   1.0000   1.0000   1.0000   1.0000
     1.0000   1.0000   1.0000   1.0000   0.0000   0.0000   0.0000   0.0000

          k = 0.2778 0.3333 0.3889 (  2635 PWs)   bands (ev):

   -48.0462 -24.2998 -24.2809 -24.2731 -24.2343  -7.7723  -7.3943  -7.2778
    -6.2991  -6.1473  -5.9894   4.7497   5.1866   5.2967   5.4795   5.6577
     5.8081   8.1135   8.1868   8.4848  12.1045  12.2185  12.3064  14.8350

     occupation numbers 
     1.0000   1.0000   1.0000   1.0000   1.0000   1.0000   1.0000   1.0000
     1.0000   1.0000   1.0000   1.0000   1.0000   1.0000   1.0000   1.0000
     1.0000   1.0000   1.0000   1.0000   0.0000   0.0000   0.0000   0.0000

          k = 0.2778 0.3333 0.4444 (  2630 PWs)   bands (ev):

   -48.0461 -24.3008 -24.2799 -24.2724 -24.2374  -7.7318  -7.4023  -7.2500
    -6.3342  -6.1114  -6.0265   4.6670   5.1419   5.2250   5.4890   5.5801
     5.8328   8.1278   8.2178   8.5173  12.1193  12.3055  12.3868  14.8327

     occupation numbers 
     1.0000   1.0000   1.0000   1.0000   1.0000   1.0000   1.0000   1.0000
     1.0000   1.0000   1.0000   1.0000   1.0000   1.0000   1.0000   1.0000
     1.0000   1.0000   1.0000   1.0000   0.0000   0.0000   0.0000   0.0000

          k = 0.2778 0.3333-0.5000 (  2634 PWs)   bands (ev):

   -48.0461 -24.3014 -24.2792 -24.2719 -24.2387  -7.7176  -7.4052  -7.2397
    -6.3474  -6.0812  -6.0565   4.6324   5.1363   5.1956   5.5055   5.5418
     5.8418   8.1323   8.2276   8.5278  12.1241  12.3369  12.4161  14.8303

     occupation numbers 
     1.0000   1.0000   1.0000   1.0000   1.0000   1.0000   1.0000   1.0000
     1.0000   1.0000   1.0000   1.0000   1.0000   1.0000   1.0000   1.0000
     1.0000   1.0000   1.0000   1.0000   0.0000   0.0000   0.0000   0.0000

          k = 0.2778 0.3889 0.3889 (  2636 PWs)   bands (ev):

   -48.0461 -24.2958 -24.2851 -24.2726 -24.2382  -7.6892  -7.3916  -7.2681
    -6.3158  -6.1572  -6.0274   4.6855   5.0979   5.1671   5.4745   5.6571
     5.7141   8.1719   8.2254   8.5663  12.2232  12.2491  12.4049  14.8908

     occupation numbers 
     1.0000   1.0000   1.0000   1.0000   1.0000   1.0000   1.0000   1.0000
     1.0000   1.0000   1.0000   1.0000   1.0000   1.0000   1.0000   1.0000
     1.0000   1.0000   1.0000   1.0000   0.0000   0.0000   0.0000   0.0000

          k = 0.2778 0.3889 0.4444 (  2635 PWs)   bands (ev):

   -48.0461 -24.2953 -24.2855 -24.2720 -24.2413  -7.6271  -7.3962  -7.2625
    -6.3350  -6.1407  -6.0669   4.6111   5.0461   5.1007   5.4909   5.5934
     5.7172   8.2017   8.2494   8.6181  12.2480  12.3259  12.4763  14.8983

     occupation numbers 
     1.0000   1.0000   1.0000   1.0000   1.0000   1.0000   1.0000   1.0000
     1.0000   1.0000   1.0000   1.0000   1.0000   1.0000   1.0000   1.0000
     1.0000   1.0000   1.0000   1.0000   0.0000   0.0000   0.0000   0.0000

          k = 0.2778 0.3889-0.5000 (  2626 PWs)   bands (ev):

   -48.0460 -24.2957 -24.2849 -24.2717 -24.2426  -7.6030  -7.3996  -7.2611
    -6.3432  -6.1177  -6.0963   4.5788   5.0367   5.0752   5.5119   5.5528
     5.7239   8.2106   8.2580   8.6355  12.2530  12.3571  12.5024  14.8974

     occupation numbers 
     1.0000   1.0000   1.0000   1.0000   1.0000   1.0000   1.0000   1.0000
     1.0000   1.0000   1.0000   1.0000   1.0000   1.0000   1.0000   1.0000
     1.0000   1.0000   1.0000   1.0000   0.0000   0.0000   0.0000   0.0000

          k = 0.2778 0.4444 0.4444 (  2632 PWs)   bands (ev):

   -48.0460 -24.2917 -24.2886 -24.2717 -24.2445  -7.5360  -7.3949  -7.2922
    -6.3323  -6.1489  -6.1051   4.5460   4.9735   5.0478   5.5128   5.5967
     5.6494   8.2460   8.2652   8.6828  12.3336  12.3417  12.5419  14.9062

     occupation numbers 
     1.0000   1.0000   1.0000   1.0000   1.0000   1.0000   1.0000   1.0000
     1.0000   1.0000   1.0000   1.0000   1.0000   1.0000   1.0000   1.0000
     1.0000   1.0000   1.0000   1.0000   0.0000   0.0000   0.0000   0.0000

          k = 0.2778 0.4444-0.5000 (  2638 PWs)   bands (ev):

   -48.0460 -24.2915 -24.2886 -24.2715 -24.2457  -7.4919  -7.3969  -7.3129
    -6.3308  -6.1391  -6.1311   4.5171   4.9534   5.0300   5.5376   5.5699
     5.6393   8.2593   8.2717   8.7046  12.3419  12.3695  12.5660  14.9039

     occupation numbers 
     1.0000   1.0000   1.0000   1.0000   1.0000   1.0000   1.0000   1.0000
     1.0000   1.0000   1.0000   1.0000   1.0000   1.0000   1.0000   1.0000
     1.0000   1.0000   1.0000   1.0000   0.0000   0.0000   0.0000   0.0000

          k = 0.2778-0.5000-0.5000 (  2644 PWs)   bands (ev):

   -48.0460 -24.2898 -24.2898 -24.2714 -24.2469  -7.3961  -7.3961  -7.3886
    -6.3235  -6.1459  -6.1459   4.4896   4.9302   5.0139   5.5770   5.5770
     5.5811   8.2758   8.2758   8.7280  12.3738  12.3738  12.5895  14.9005

     occupation numbers 
     1.0000   1.0000   1.0000   1.0000   1.0000   1.0000   1.0000   1.0000
     1.0000   1.0000   1.0000   1.0000   1.0000   1.0000   1.0000   1.0000
     1.0000   1.0000   1.0000   1.0000   0.0000   0.0000   0.0000   0.0000

          k = 0.3333 0.3333 0.3333 (  2644 PWs)   bands (ev):

   -48.0462 -24.2966 -24.2793 -24.2793 -24.2337  -7.7534  -7.3262  -7.3262
    -6.2415  -6.2415  -5.9930   4.7928   5.2939   5.2939   5.4175   5.6346
     5.6346   8.2113   8.2113   8.4820  12.1834  12.2299  12.2299  15.1862

     occupation numbers 
     1.0000   1.0000   1.0000   1.0000   1.0000   1.0000   1.0000   1.0000
     1.0000   1.0000   1.0000   1.0000   1.0000   1.0000   1.0000   1.0000
     1.0000   1.0000   1.0000   1.0000   0.0000   0.0000   0.0000   0.0000

          k = 0.3333 0.3333 0.3889 (  2639 PWs)   bands (ev):

   -48.0461 -24.2952 -24.2813 -24.2790 -24.2371  -7.6824  -7.3448  -7.2703
    -6.3069  -6.2128  -6.0354   4.7203   5.1784   5.3024   5.3140   5.5387
     5.6365   8.2509   8.3036   8.5317  12.2306  12.3170  12.3425  15.1633

     occupation numbers 
     1.0000   1.0000   1.0000   1.0000   1.0000   1.0000   1.0000   1.0000
     1.0000   1.0000   1.0000   1.0000   1.0000   1.0000   1.0000   1.0000
     1.0000   1.0000   1.0000   1.0000   0.0000   0.0000   0.0000   0.0000

          k = 0.3333 0.3333 0.4444 (  2630 PWs)   bands (ev):

   -48.0460 -24.2963 -24.2799 -24.2788 -24.2398  -7.6306  -7.3631  -7.2293
    -6.3541  -6.1758  -6.0797   4.6380   5.1440   5.2282   5.3110   5.4774
     5.6591   8.2699   8.3584   8.5644  12.2467  12.3933  12.4231  15.1449

     occupation numbers 
     1.0000   1.0000   1.0000   1.0000   1.0000   1.0000   1.0000   1.0000
     1.0000   1.0000   1.0000   1.0000   1.0000   1.0000   1.0000   1.0000
     1.0000   1.0000   1.0000   1.0000   0.0000   0.0000   0.0000   0.0000

          k = 0.3333 0.3333-0.5000 (  2636 PWs)   bands (ev):

   -48.0460 -24.2970 -24.2790 -24.2788 -24.2409  -7.6109  -7.3714  -7.2140
    -6.3715  -6.1458  -6.1119   4.6030   5.1583   5.1784   5.3152   5.4555
     5.6684   8.2756   8.3765   8.5754  12.2519  12.4212  12.4525  15.1378

     occupation numbers 
     1.0000   1.0000   1.0000   1.0000   1.0000   1.0000   1.0000   1.0000
     1.0000   1.0000   1.0000   1.0000   1.0000   1.0000   1.0000   1.0000
     1.0000   1.0000   1.0000   1.0000   0.0000   0.0000   0.0000   0.0000

          k = 0.3333 0.3889 0.3889 (  2636 PWs)   bands (ev):

   -48.0460 -24.2920 -24.2847 -24.2795 -24.2399  -7.5980  -7.3221  -7.2534
    -6.3274  -6.2421  -6.0854   4.6567   5.1027   5.2273   5.2826   5.5197
     5.5366   8.3404   8.3744   8.5906  12.3347  12.3582  12.4314  15.2669

     occupation numbers 
     1.0000   1.0000   1.0000   1.0000   1.0000   1.0000   1.0000   1.0000
     1.0000   1.0000   1.0000   1.0000   1.0000   1.0000   1.0000   1.0000
     1.0000   1.0000   1.0000   1.0000   0.0000   0.0000   0.0000   0.0000

          k = 0.3333 0.3889 0.4444 (  2630 PWs)   bands (ev):

   -48.0460 -24.2924 -24.2850 -24.2789 -24.2421  -7.5309  -7.3327  -7.2259
    -6.3632  -6.2242  -6.1348   4.5818   5.0492   5.1881   5.2714   5.4622
     5.5479   8.3757   8.4259   8.6360  12.3602  12.4266  12.5026  15.2584

     occupation numbers 
     1.0000   1.0000   1.0000   1.0000   1.0000   1.0000   1.0000   1.0000
     1.0000   1.0000   1.0000   1.0000   1.0000   1.0000   1.0000   1.0000
     1.0000   1.0000   1.0000   1.0000   0.0000   0.0000   0.0000   0.0000

          k = 0.3333 0.3889-0.5000 (  2626 PWs)   bands (ev):

   -48.0459 -24.2932 -24.2845 -24.2786 -24.2429  -7.5022  -7.3435  -7.2138
    -6.3788  -6.1978  -6.1696   4.5492   5.0370   5.1702   5.2720   5.4393
     5.5569   8.3844   8.4447   8.6525  12.3657  12.4546  12.5289  15.2493

     occupation numbers 
     1.0000   1.0000   1.0000   1.0000   1.0000   1.0000   1.0000   1.0000
     1.0000   1.0000   1.0000   1.0000   1.0000   1.0000   1.0000   1.0000
     1.0000   1.0000   1.0000   1.0000   0.0000   0.0000   0.0000   0.0000

          k = 0.3333 0.4444 0.4444 (  2626 PWs)   bands (ev):

   -48.0459 -24.2901 -24.2883 -24.2786 -24.2438  -7.4440  -7.3197  -7.2376
    -6.3684  -6.2418  -6.1855   4.5165   4.9765   5.1563   5.2728   5.4771
     5.4812   8.4378   8.4544   8.6952  12.4369  12.4442  12.5680  15.2461

     occupation numbers 
     1.0000   1.0000   1.0000   1.0000   1.0000   1.0000   1.0000   1.0000
     1.0000   1.0000   1.0000   1.0000   1.0000   1.0000   1.0000   1.0000
     1.0000   1.0000   1.0000   1.0000   0.0000   0.0000   0.0000   0.0000

          k = 0.3333 0.4444-0.5000 (  2622 PWs)   bands (ev):

   -48.0459 -24.2905 -24.2882 -24.2784 -24.2445  -7.3993  -7.3253  -7.2459
    -6.3713  -6.2306  -6.2193   4.4876   4.9560   5.1434   5.2765   5.4547
     5.4880   8.4522   8.4689   8.7167  12.4455  12.4694  12.5922  15.2308

     occupation numbers 
     1.0000   1.0000   1.0000   1.0000   1.0000   1.0000   1.0000   1.0000
     1.0000   1.0000   1.0000   1.0000   1.0000   1.0000   1.0000   1.0000
     1.0000   1.0000   1.0000   1.0000   0.0000   0.0000   0.0000   0.0000

          k = 0.3333-0.5000-0.5000 (  2624 PWs)   bands (ev):

   -48.0459 -24.2895 -24.2895 -24.2784 -24.2450  -7.3190  -7.3190  -7.3019
    -6.3636  -6.2416  -6.2416   4.4602   4.9327   5.1315   5.2814   5.4633
     5.4633   8.4752   8.4752   8.7400  12.4744  12.4744  12.6157  15.2117

     occupation numbers 
     1.0000   1.0000   1.0000   1.0000   1.0000   1.0000   1.0000   1.0000
     1.0000   1.0000   1.0000   1.0000   1.0000   1.0000   1.0000   1.0000
     1.0000   1.0000   1.0000   1.0000   0.0000   0.0000   0.0000   0.0000

          k = 0.3889 0.3889 0.3889 (  2629 PWs)   bands (ev):

   -48.0459 -24.2893 -24.2844 -24.2844 -24.2415  -7.5107  -7.2563  -7.2563
    -6.3203  -6.3203  -6.1454   4.5965   5.1073   5.1073   5.2683   5.4479
     5.4479   8.4663   8.4663   8.6272  12.4297  12.4588  12.4588  15.5315

     occupation numbers 
     1.0000   1.0000   1.0000   1.0000   1.0000   1.0000   1.0000   1.0000
     1.0000   1.0000   1.0000   1.0000   1.0000   1.0000   1.0000   1.0000
     1.0000   1.0000   1.0000   1.0000   0.0000   0.0000   0.0000   0.0000

          k = 0.3889 0.3889 0.4444 (  2627 PWs)   bands (ev):

   -48.0459 -24.2901 -24.2849 -24.2843 -24.2427  -7.4371  -7.2761  -7.2069
    -6.3779  -6.2959  -6.2021   4.5266   5.0341   5.1110   5.2448   5.3933
     5.4499   8.5066   8.5437   8.6653  12.4614  12.5125  12.5312  15.4677

     occupation numbers 
     1.0000   1.0000   1.0000   1.0000   1.0000   1.0000   1.0000   1.0000
     1.0000   1.0000   1.0000   1.0000   1.0000   1.0000   1.0000   1.0000
     1.0000   1.0000   1.0000   1.0000   0.0000   0.0000   0.0000   0.0000

          k = 0.3889 0.3889-0.5000 (  2626 PWs)   bands (ev):

   -48.0459 -24.2911 -24.2843 -24.2842 -24.2432  -7.4016  -7.2932  -7.1880
    -6.3996  -6.2671  -6.2417   4.4959   5.0155   5.1124   5.2306   5.3748
     5.4576   8.5172   8.5698   8.6812  12.4674  12.5375  12.5578  15.4418

     occupation numbers 
     1.0000   1.0000   1.0000   1.0000   1.0000   1.0000   1.0000   1.0000
     1.0000   1.0000   1.0000   1.0000   1.0000   1.0000   1.0000   1.0000
     1.0000   1.0000   1.0000   1.0000   0.0000   0.0000   0.0000   0.0000

          k = 0.3889 0.4444 0.4444 (  2625 PWs)   bands (ev):

   -48.0458 -24.2889 -24.2880 -24.2842 -24.2432  -7.3552  -7.2476  -7.2009
    -6.3907  -6.3284  -6.2621   4.4642   4.9791   5.0804   5.2441   5.3857
     5.3969   8.5844   8.5965   8.7074  12.5307  12.5381  12.5896  15.4279

     occupation numbers 
     1.0000   1.0000   1.0000   1.0000   1.0000   1.0000   1.0000   1.0000
     1.0000   1.0000   1.0000   1.0000   1.0000   1.0000   1.0000   1.0000
     1.0000   1.0000   1.0000   1.0000   0.0000   0.0000   0.0000   0.0000

          k = 0.3889 0.4444-0.5000 (  2620 PWs)   bands (ev):

   -48.0458 -24.2897 -24.2879 -24.2841 -24.2434  -7.3100  -7.2575  -7.1943
    -6.4021  -6.3144  -6.3024   4.4367   4.9575   5.0787   5.2353   5.3718
     5.3998   8.6004   8.6189   8.7275  12.5397  12.5607  12.6138  15.3901

     occupation numbers 
     1.0000   1.0000   1.0000   1.0000   1.0000   1.0000   1.0000   1.0000
     1.0000   1.0000   1.0000   1.0000   1.0000   1.0000   1.0000   1.0000
     1.0000   1.0000   1.0000   1.0000   0.0000   0.0000   0.0000   0.0000

          k = 0.3889-0.5000-0.5000 (  2620 PWs)   bands (ev):

   -48.0458 -24.2892 -24.2892 -24.2840 -24.2435  -7.2446  -7.2446  -7.2296
    -6.3960  -6.3311  -6.3311   4.4105   4.9347   5.0759   5.2280   5.3804
     5.3804   8.6287   8.6287   8.7499  12.5662  12.5662  12.6373  15.3476

     occupation numbers 
     1.0000   1.0000   1.0000   1.0000   1.0000   1.0000   1.0000   1.0000
     1.0000   1.0000   1.0000   1.0000   1.0000   1.0000   1.0000   1.0000
     1.0000   1.0000   1.0000   1.0000   0.0000   0.0000   0.0000   0.0000

          k = 0.4444 0.4444 0.4444 (  2596 PWs)   bands (ev):

   -48.0458 -24.2882 -24.2878 -24.2878 -24.2429  -7.2787  -7.1922  -7.1922
    -6.3931  -6.3931  -6.3264   4.4067   4.9809   4.9809   5.2884   5.3456
     5.3456   8.6763   8.6763   8.7244  12.5960  12.6057  12.6057  15.4682

     occupation numbers 
     1.0000   1.0000   1.0000   1.0000   1.0000   1.0000   1.0000   1.0000
     1.0000   1.0000   1.0000   1.0000   1.0000   1.0000   1.0000   1.0000
     1.0000   1.0000   1.0000   1.0000   0.0000   0.0000   0.0000   0.0000

          k = 0.4444 0.4444-0.5000 (  2602 PWs)   bands (ev):

   -48.0458 -24.2892 -24.2878 -24.2877 -24.2427  -7.2342  -7.2065  -7.1708
    -6.4178  -6.3755  -6.3677   4.3814   4.9523   4.9816   5.2888   5.3284
     5.3475   8.6938   8.7075   8.7399  12.6074  12.6240  12.6306  15.4168

     occupation numbers 
     1.0000   1.0000   1.0000   1.0000   1.0000   1.0000   1.0000   1.0000
     1.0000   1.0000   1.0000   1.0000   1.0000   1.0000   1.0000   1.0000
     1.0000   1.0000   1.0000   1.0000   0.0000   0.0000   0.0000   0.0000

          k = 0.4444-0.5000-0.5000 (  2604 PWs)   bands (ev):

   -48.0457 -24.2890 -24.2890 -24.2877 -24.2425  -7.1871  -7.1871  -7.1816
    -6.4169  -6.3984  -6.3984   4.3571   4.9360   4.9682   5.2912   5.3301
     5.3301   8.7256   8.7256   8.7564  12.6322  12.6322  12.6515  15.3695

     occupation numbers 
     1.0000   1.0000   1.0000   1.0000   1.0000   1.0000   1.0000   1.0000
     1.0000   1.0000   1.0000   1.0000   1.0000   1.0000   1.0000   1.0000
     1.0000   1.0000   1.0000   1.0000   0.0000   0.0000   0.0000   0.0000

          k =-0.5000-0.5000-0.5000 (  2608 PWs)   bands (ev):

   -48.0457 -24.2889 -24.2889 -24.2889 -24.2422  -7.1647  -7.1647  -7.1647
    -6.4241  -6.4241  -6.4241   4.3337   4.9364   4.9364   5.3132   5.3132
     5.3132   8.7587   8.7587   8.7587  12.6564  12.6564  12.6564  15.3680

     occupation numbers 
     1.0000   1.0000   1.0000   1.0000   1.0000   1.0000   1.0000   1.0000
     1.0000   1.0000   1.0000   1.0000   1.0000   1.0000   1.0000   1.0000
     1.0000   1.0000   1.0000   1.0000   0.0000   0.0000   0.0000   0.0000

     the Fermi energy is     9.5930 ev

!    total energy              =    -287.00360728 Ry
     Harris-Foulkes estimate   =    -287.00360728 Ry
     estimated scf accuracy    <          7.1E-10 Ry

     The total energy is the sum of the following terms:

     one-electron contribution =     -86.66821956 Ry
     hartree contribution      =      63.63657396 Ry
     xc contribution           =     -58.19953772 Ry
     ewald contribution        =    -205.77242395 Ry
     smearing contrib. (-TS)   =       0.00000000 Ry

     convergence has been achieved in  12 iterations
 
     init_run     :      1.71s CPU      1.88s WALL (       1 calls)
     electrons    :     60.69s CPU     66.58s WALL (       1 calls)

     Called by init_run:
     wfcinit      :      1.60s CPU      1.73s WALL (       1 calls)
     wfcinit:atom :      0.01s CPU      0.01s WALL (     220 calls)
     wfcinit:wfcr :      1.53s CPU      1.65s WALL (     220 calls)
     potinit      :      0.01s CPU      0.01s WALL (       1 calls)
     hinit0       :      0.08s CPU      0.12s WALL (       1 calls)

     Called by electrons:
     c_bands      :     56.18s CPU     61.81s WALL (      12 calls)
     sum_band     :      4.39s CPU      4.62s WALL (      12 calls)
     v_of_rho     :      0.02s CPU      0.02s WALL (      13 calls)
     v_h          :      0.00s CPU      0.00s WALL (      13 calls)
     v_xc         :      0.02s CPU      0.02s WALL (      13 calls)
     newd         :      0.10s CPU      0.10s WALL (      13 calls)
     mix_rho      :      0.01s CPU      0.01s WALL (      12 calls)

     Called by c_bands:
     init_us_2    :      0.44s CPU      0.46s WALL (    5500 calls)
     cegterg      :     54.43s CPU     60.00s WALL (    2640 calls)

     Called by sum_band:
     sum_band:bec :      0.05s CPU      0.06s WALL (    2640 calls)
     addusdens    :      0.10s CPU      0.10s WALL (      12 calls)

     Called by *egterg:
     h_psi        :     19.92s CPU     21.02s WALL (   10474 calls)
     s_psi        :      0.53s CPU      0.56s WALL (   10474 calls)
     g_psi        :      0.12s CPU      0.12s WALL (    7614 calls)
     cdiaghg      :     28.91s CPU     32.27s WALL (   10254 calls)
     cegterg:over :      3.70s CPU      4.80s WALL (    7614 calls)
     cegterg:upda :      1.29s CPU      1.33s WALL (    7614 calls)
     cegterg:last :      0.52s CPU      0.54s WALL (    2640 calls)
     cdiaghg:chol :      0.85s CPU      1.01s WALL (   10254 calls)
     cdiaghg:inve :      0.51s CPU      0.61s WALL (   10254 calls)
     cdiaghg:para :      1.54s CPU      1.69s WALL (   20508 calls)

     Called by h_psi:
     h_psi:pot    :     19.87s CPU     20.97s WALL (   10474 calls)
     h_psi:calbec :      0.94s CPU      0.99s WALL (   10474 calls)
     vloc_psi     :     18.34s CPU     19.35s WALL (   10474 calls)
     add_vuspsi   :      0.55s CPU      0.58s WALL (   10474 calls)

     General routines
     calbec       :      1.22s CPU      1.30s WALL (   13114 calls)
     fft          :      0.02s CPU      0.04s WALL (     144 calls)
     ffts         :      0.00s CPU      0.00s WALL (      12 calls)
     fftw         :     20.64s CPU     21.77s WALL (  393994 calls)
 
     Parallel routines
     fft_scatt_xy :      1.62s CPU      1.71s WALL (  394150 calls)
     fft_scatt_yz :     12.92s CPU     13.70s WALL (  394150 calls)
 
     PWSCF        :  1m 2.48s CPU     1m 8.64s WALL

 
   This run was terminated on:  21:47: 2   6Feb2019            

=------------------------------------------------------------------------------=
   JOB DONE.
=------------------------------------------------------------------------------=
