
     Program PWSCF v.6.3MaX starts on  6Feb2019 at 21:54: 1 

     This program is part of the open-source Quantum ESPRESSO suite
     for quantum simulation of materials; please cite
         "P. Giannozzi et al., J. Phys.:Condens. Matter 21 395502 (2009);
         "P. Giannozzi et al., J. Phys.:Condens. Matter 29 465901 (2017);
          URL http://www.quantum-espresso.org", 
     in publications or presentations arising from this work. More details at
     http://www.quantum-espresso.org/quote

     Parallel version (MPI & OpenMP), running on      20 processor cores
     Number of MPI processes:                20
     Threads/MPI process:                     1

     MPI processes distributed on     1 nodes
     R & G space division:  proc/nbgrp/npool/nimage =      20
     Reading input from /home/azadoks/dftman/projects/SrTiO3 Convergence/EOSWorkflows/a692ef3dceb1/9aa75c889d85/pwscf.in
Warning: card &IONS ignored
Warning: card / ignored
Warning: card &CELL ignored
Warning: card / ignored

     Current dimensions of program PWSCF are:
     Max number of different atomic species (ntypx) = 10
     Max number of k-points (npk) =  40000
     Max angular momentum in pseudopotentials (lmaxx) =  3
     Message from routine iosys:
     minimal I/O required, wf_collect reset to FALSE

     Subspace diagonalization in iterative solution of the eigenvalue problem:
     one sub-group per band group will be used
     scalapack distributed-memory algorithm (size of sub-group:  3*  3 procs)

 
     Parallelization info
     --------------------
     sticks:   dense  smooth     PW     G-vecs:    dense   smooth      PW
     Min          59      59     17                 1527     1527     245
     Max          60      60     18                 1530     1530     250
     Sum        1185    1185    349                30551    30551    4945
 


     bravais-lattice index     =            0
     lattice parameter (alat)  =       8.6149  a.u.
     unit-cell volume          =     639.3712 (a.u.)^3
     number of atoms/cell      =            5
     number of atomic types    =            3
     number of electrons       =        40.00
     number of Kohn-Sham states=           24
     kinetic-energy cutoff     =      50.0000  Ry
     charge density cutoff     =     200.0000  Ry
     convergence threshold     =      1.0E-08
     mixing beta               =       0.7000
     number of iterations used =            8  plain     mixing
     Exchange-correlation      =  SLA  PW   PBX  PBC ( 1  4  3  4 0 0)

     celldm(1)=   8.614916  celldm(2)=   0.000000  celldm(3)=   0.000000
     celldm(4)=   0.000000  celldm(5)=   0.000000  celldm(6)=   0.000000

     crystal axes: (cart. coord. in units of alat)
               a(1) = (   1.000000   0.000000   0.000000 )  
               a(2) = (   0.000000   1.000000   0.000000 )  
               a(3) = (   0.000000   0.000000   1.000000 )  

     reciprocal axes: (cart. coord. in units 2 pi/alat)
               b(1) = (  1.000000  0.000000  0.000000 )  
               b(2) = (  0.000000  1.000000  0.000000 )  
               b(3) = (  0.000000  0.000000  1.000000 )  


     PseudoPot. # 1 for O  read from file:
     /home/azadoks/.local/share/pseudo/GBRV_PBE_US/o_pbe_v1.2.uspp.F.UPF
     MD5 check sum: 734c27235a0248c51dbae37a1fbe46ec
     Pseudo is Ultrasoft + core correction, Zval =  6.0
     Generated by new atomic code, or converted to UPF format
     Using radial grid of  737 points,  5 beta functions with: 
                l(1) =   0
                l(2) =   0
                l(3) =   1
                l(4) =   1
                l(5) =   2
     Q(r) pseudized with  8 coefficients,  rinner =    0.900   0.900   0.900
                                                       0.900   0.900

     PseudoPot. # 2 for Sr read from file:
     /home/azadoks/.local/share/pseudo/GBRV_PBE_US/sr_pbe_v1.uspp.F.UPF
     MD5 check sum: 6b418c05fbe9db5448babca5e47b7a5b
     Pseudo is Ultrasoft + core correction, Zval = 10.0
     Generated by new atomic code, or converted to UPF format
     Using radial grid of  883 points,  6 beta functions with: 
                l(1) =   0
                l(2) =   0
                l(3) =   1
                l(4) =   1
                l(5) =   2
                l(6) =   2
     Q(r) pseudized with  6 coefficients,  rinner =    1.400   1.400   1.400
                                                       1.400   1.400

     PseudoPot. # 3 for Ti read from file:
     /home/azadoks/.local/share/pseudo/GBRV_PBE_US/ti_pbe_v1.4.uspp.F.UPF
     MD5 check sum: 88a00a6731bd790ddea75d31a80cb452
     Pseudo is Ultrasoft + core correction, Zval = 12.0
     Generated by new atomic code, or converted to UPF format
     Using radial grid of  851 points,  6 beta functions with: 
                l(1) =   0
                l(2) =   0
                l(3) =   1
                l(4) =   1
                l(5) =   2
                l(6) =   2
     Q(r) pseudized with  6 coefficients,  rinner =    1.000   1.000   1.000
                                                       1.000   1.000

     atomic species   valence    mass     pseudopotential
        O              6.00    15.99940     O ( 1.00)
        Sr            10.00    87.62000     Sr( 1.00)
        Ti            12.00    47.86700     Ti( 1.00)

     48 Sym. Ops., with inversion, found


                                    s                        frac. trans.

      isym =  1     identity                                     

 cryst.   s( 1) = (     1          0          0      )
                  (     0          1          0      )
                  (     0          0          1      )

 cart.    s( 1) = (  1.0000000  0.0000000  0.0000000 )
                  (  0.0000000  1.0000000  0.0000000 )
                  (  0.0000000  0.0000000  1.0000000 )


      isym =  2     180 deg rotation - cart. axis [0,0,1]        

 cryst.   s( 2) = (    -1          0          0      )
                  (     0         -1          0      )
                  (     0          0          1      )

 cart.    s( 2) = ( -1.0000000  0.0000000  0.0000000 )
                  (  0.0000000 -1.0000000  0.0000000 )
                  (  0.0000000  0.0000000  1.0000000 )


      isym =  3     180 deg rotation - cart. axis [0,1,0]        

 cryst.   s( 3) = (    -1          0          0      )
                  (     0          1          0      )
                  (     0          0         -1      )

 cart.    s( 3) = ( -1.0000000  0.0000000  0.0000000 )
                  (  0.0000000  1.0000000  0.0000000 )
                  (  0.0000000  0.0000000 -1.0000000 )


      isym =  4     180 deg rotation - cart. axis [1,0,0]        

 cryst.   s( 4) = (     1          0          0      )
                  (     0         -1          0      )
                  (     0          0         -1      )

 cart.    s( 4) = (  1.0000000  0.0000000  0.0000000 )
                  (  0.0000000 -1.0000000  0.0000000 )
                  (  0.0000000  0.0000000 -1.0000000 )


      isym =  5     180 deg rotation - cart. axis [1,1,0]        

 cryst.   s( 5) = (     0          1          0      )
                  (     1          0          0      )
                  (     0          0         -1      )

 cart.    s( 5) = (  0.0000000  1.0000000  0.0000000 )
                  (  1.0000000  0.0000000  0.0000000 )
                  (  0.0000000  0.0000000 -1.0000000 )


      isym =  6     180 deg rotation - cart. axis [1,-1,0]       

 cryst.   s( 6) = (     0         -1          0      )
                  (    -1          0          0      )
                  (     0          0         -1      )

 cart.    s( 6) = (  0.0000000 -1.0000000  0.0000000 )
                  ( -1.0000000  0.0000000  0.0000000 )
                  (  0.0000000  0.0000000 -1.0000000 )


      isym =  7      90 deg rotation - cart. axis [0,0,-1]       

 cryst.   s( 7) = (     0         -1          0      )
                  (     1          0          0      )
                  (     0          0          1      )

 cart.    s( 7) = (  0.0000000  1.0000000  0.0000000 )
                  ( -1.0000000  0.0000000  0.0000000 )
                  (  0.0000000  0.0000000  1.0000000 )


      isym =  8      90 deg rotation - cart. axis [0,0,1]        

 cryst.   s( 8) = (     0          1          0      )
                  (    -1          0          0      )
                  (     0          0          1      )

 cart.    s( 8) = (  0.0000000 -1.0000000  0.0000000 )
                  (  1.0000000  0.0000000  0.0000000 )
                  (  0.0000000  0.0000000  1.0000000 )


      isym =  9     180 deg rotation - cart. axis [1,0,1]        

 cryst.   s( 9) = (     0          0          1      )
                  (     0         -1          0      )
                  (     1          0          0      )

 cart.    s( 9) = (  0.0000000  0.0000000  1.0000000 )
                  (  0.0000000 -1.0000000  0.0000000 )
                  (  1.0000000  0.0000000  0.0000000 )


      isym = 10     180 deg rotation - cart. axis [-1,0,1]       

 cryst.   s(10) = (     0          0         -1      )
                  (     0         -1          0      )
                  (    -1          0          0      )

 cart.    s(10) = (  0.0000000  0.0000000 -1.0000000 )
                  (  0.0000000 -1.0000000  0.0000000 )
                  ( -1.0000000  0.0000000  0.0000000 )


      isym = 11      90 deg rotation - cart. axis [0,1,0]        

 cryst.   s(11) = (     0          0         -1      )
                  (     0          1          0      )
                  (     1          0          0      )

 cart.    s(11) = (  0.0000000  0.0000000  1.0000000 )
                  (  0.0000000  1.0000000  0.0000000 )
                  ( -1.0000000  0.0000000  0.0000000 )


      isym = 12      90 deg rotation - cart. axis [0,-1,0]       

 cryst.   s(12) = (     0          0          1      )
                  (     0          1          0      )
                  (    -1          0          0      )

 cart.    s(12) = (  0.0000000  0.0000000 -1.0000000 )
                  (  0.0000000  1.0000000  0.0000000 )
                  (  1.0000000  0.0000000  0.0000000 )


      isym = 13     180 deg rotation - cart. axis [0,1,1]        

 cryst.   s(13) = (    -1          0          0      )
                  (     0          0          1      )
                  (     0          1          0      )

 cart.    s(13) = ( -1.0000000  0.0000000  0.0000000 )
                  (  0.0000000  0.0000000  1.0000000 )
                  (  0.0000000  1.0000000  0.0000000 )


      isym = 14     180 deg rotation - cart. axis [0,1,-1]       

 cryst.   s(14) = (    -1          0          0      )
                  (     0          0         -1      )
                  (     0         -1          0      )

 cart.    s(14) = ( -1.0000000  0.0000000  0.0000000 )
                  (  0.0000000  0.0000000 -1.0000000 )
                  (  0.0000000 -1.0000000  0.0000000 )


      isym = 15      90 deg rotation - cart. axis [-1,0,0]       

 cryst.   s(15) = (     1          0          0      )
                  (     0          0         -1      )
                  (     0          1          0      )

 cart.    s(15) = (  1.0000000  0.0000000  0.0000000 )
                  (  0.0000000  0.0000000  1.0000000 )
                  (  0.0000000 -1.0000000  0.0000000 )


      isym = 16      90 deg rotation - cart. axis [1,0,0]        

 cryst.   s(16) = (     1          0          0      )
                  (     0          0          1      )
                  (     0         -1          0      )

 cart.    s(16) = (  1.0000000  0.0000000  0.0000000 )
                  (  0.0000000  0.0000000 -1.0000000 )
                  (  0.0000000  1.0000000  0.0000000 )


      isym = 17     120 deg rotation - cart. axis [-1,-1,-1]     

 cryst.   s(17) = (     0          0          1      )
                  (     1          0          0      )
                  (     0          1          0      )

 cart.    s(17) = (  0.0000000  1.0000000  0.0000000 )
                  (  0.0000000  0.0000000  1.0000000 )
                  (  1.0000000  0.0000000  0.0000000 )


      isym = 18     120 deg rotation - cart. axis [-1,1,1]       

 cryst.   s(18) = (     0          0         -1      )
                  (    -1          0          0      )
                  (     0          1          0      )

 cart.    s(18) = (  0.0000000 -1.0000000  0.0000000 )
                  (  0.0000000  0.0000000  1.0000000 )
                  ( -1.0000000  0.0000000  0.0000000 )


      isym = 19     120 deg rotation - cart. axis [1,1,-1]       

 cryst.   s(19) = (     0          0         -1      )
                  (     1          0          0      )
                  (     0         -1          0      )

 cart.    s(19) = (  0.0000000  1.0000000  0.0000000 )
                  (  0.0000000  0.0000000 -1.0000000 )
                  ( -1.0000000  0.0000000  0.0000000 )


      isym = 20     120 deg rotation - cart. axis [1,-1,1]       

 cryst.   s(20) = (     0          0          1      )
                  (    -1          0          0      )
                  (     0         -1          0      )

 cart.    s(20) = (  0.0000000 -1.0000000  0.0000000 )
                  (  0.0000000  0.0000000 -1.0000000 )
                  (  1.0000000  0.0000000  0.0000000 )


      isym = 21     120 deg rotation - cart. axis [1,1,1]        

 cryst.   s(21) = (     0          1          0      )
                  (     0          0          1      )
                  (     1          0          0      )

 cart.    s(21) = (  0.0000000  0.0000000  1.0000000 )
                  (  1.0000000  0.0000000  0.0000000 )
                  (  0.0000000  1.0000000  0.0000000 )


      isym = 22     120 deg rotation - cart. axis [-1,1,-1]      

 cryst.   s(22) = (     0         -1          0      )
                  (     0          0         -1      )
                  (     1          0          0      )

 cart.    s(22) = (  0.0000000  0.0000000  1.0000000 )
                  ( -1.0000000  0.0000000  0.0000000 )
                  (  0.0000000 -1.0000000  0.0000000 )


      isym = 23     120 deg rotation - cart. axis [1,-1,-1]      

 cryst.   s(23) = (     0         -1          0      )
                  (     0          0          1      )
                  (    -1          0          0      )

 cart.    s(23) = (  0.0000000  0.0000000 -1.0000000 )
                  ( -1.0000000  0.0000000  0.0000000 )
                  (  0.0000000  1.0000000  0.0000000 )


      isym = 24     120 deg rotation - cart. axis [-1,-1,1]      

 cryst.   s(24) = (     0          1          0      )
                  (     0          0         -1      )
                  (    -1          0          0      )

 cart.    s(24) = (  0.0000000  0.0000000 -1.0000000 )
                  (  1.0000000  0.0000000  0.0000000 )
                  (  0.0000000 -1.0000000  0.0000000 )


      isym = 25     inversion                                    

 cryst.   s(25) = (    -1          0          0      )
                  (     0         -1          0      )
                  (     0          0         -1      )

 cart.    s(25) = ( -1.0000000  0.0000000  0.0000000 )
                  (  0.0000000 -1.0000000  0.0000000 )
                  (  0.0000000  0.0000000 -1.0000000 )


      isym = 26     inv. 180 deg rotation - cart. axis [0,0,1]   

 cryst.   s(26) = (     1          0          0      )
                  (     0          1          0      )
                  (     0          0         -1      )

 cart.    s(26) = (  1.0000000  0.0000000  0.0000000 )
                  (  0.0000000  1.0000000  0.0000000 )
                  (  0.0000000  0.0000000 -1.0000000 )


      isym = 27     inv. 180 deg rotation - cart. axis [0,1,0]   

 cryst.   s(27) = (     1          0          0      )
                  (     0         -1          0      )
                  (     0          0          1      )

 cart.    s(27) = (  1.0000000  0.0000000  0.0000000 )
                  (  0.0000000 -1.0000000  0.0000000 )
                  (  0.0000000  0.0000000  1.0000000 )


      isym = 28     inv. 180 deg rotation - cart. axis [1,0,0]   

 cryst.   s(28) = (    -1          0          0      )
                  (     0          1          0      )
                  (     0          0          1      )

 cart.    s(28) = ( -1.0000000  0.0000000  0.0000000 )
                  (  0.0000000  1.0000000  0.0000000 )
                  (  0.0000000  0.0000000  1.0000000 )


      isym = 29     inv. 180 deg rotation - cart. axis [1,1,0]   

 cryst.   s(29) = (     0         -1          0      )
                  (    -1          0          0      )
                  (     0          0          1      )

 cart.    s(29) = (  0.0000000 -1.0000000  0.0000000 )
                  ( -1.0000000  0.0000000  0.0000000 )
                  (  0.0000000  0.0000000  1.0000000 )


      isym = 30     inv. 180 deg rotation - cart. axis [1,-1,0]  

 cryst.   s(30) = (     0          1          0      )
                  (     1          0          0      )
                  (     0          0          1      )

 cart.    s(30) = (  0.0000000  1.0000000  0.0000000 )
                  (  1.0000000  0.0000000  0.0000000 )
                  (  0.0000000  0.0000000  1.0000000 )


      isym = 31     inv.  90 deg rotation - cart. axis [0,0,-1]  

 cryst.   s(31) = (     0          1          0      )
                  (    -1          0          0      )
                  (     0          0         -1      )

 cart.    s(31) = (  0.0000000 -1.0000000  0.0000000 )
                  (  1.0000000  0.0000000  0.0000000 )
                  (  0.0000000  0.0000000 -1.0000000 )


      isym = 32     inv.  90 deg rotation - cart. axis [0,0,1]   

 cryst.   s(32) = (     0         -1          0      )
                  (     1          0          0      )
                  (     0          0         -1      )

 cart.    s(32) = (  0.0000000  1.0000000  0.0000000 )
                  ( -1.0000000  0.0000000  0.0000000 )
                  (  0.0000000  0.0000000 -1.0000000 )


      isym = 33     inv. 180 deg rotation - cart. axis [1,0,1]   

 cryst.   s(33) = (     0          0         -1      )
                  (     0          1          0      )
                  (    -1          0          0      )

 cart.    s(33) = (  0.0000000  0.0000000 -1.0000000 )
                  (  0.0000000  1.0000000  0.0000000 )
                  ( -1.0000000  0.0000000  0.0000000 )


      isym = 34     inv. 180 deg rotation - cart. axis [-1,0,1]  

 cryst.   s(34) = (     0          0          1      )
                  (     0          1          0      )
                  (     1          0          0      )

 cart.    s(34) = (  0.0000000  0.0000000  1.0000000 )
                  (  0.0000000  1.0000000  0.0000000 )
                  (  1.0000000  0.0000000  0.0000000 )


      isym = 35     inv.  90 deg rotation - cart. axis [0,1,0]   

 cryst.   s(35) = (     0          0          1      )
                  (     0         -1          0      )
                  (    -1          0          0      )

 cart.    s(35) = (  0.0000000  0.0000000 -1.0000000 )
                  (  0.0000000 -1.0000000  0.0000000 )
                  (  1.0000000  0.0000000  0.0000000 )


      isym = 36     inv.  90 deg rotation - cart. axis [0,-1,0]  

 cryst.   s(36) = (     0          0         -1      )
                  (     0         -1          0      )
                  (     1          0          0      )

 cart.    s(36) = (  0.0000000  0.0000000  1.0000000 )
                  (  0.0000000 -1.0000000  0.0000000 )
                  ( -1.0000000  0.0000000  0.0000000 )


      isym = 37     inv. 180 deg rotation - cart. axis [0,1,1]   

 cryst.   s(37) = (     1          0          0      )
                  (     0          0         -1      )
                  (     0         -1          0      )

 cart.    s(37) = (  1.0000000  0.0000000  0.0000000 )
                  (  0.0000000  0.0000000 -1.0000000 )
                  (  0.0000000 -1.0000000  0.0000000 )


      isym = 38     inv. 180 deg rotation - cart. axis [0,1,-1]  

 cryst.   s(38) = (     1          0          0      )
                  (     0          0          1      )
                  (     0          1          0      )

 cart.    s(38) = (  1.0000000  0.0000000  0.0000000 )
                  (  0.0000000  0.0000000  1.0000000 )
                  (  0.0000000  1.0000000  0.0000000 )


      isym = 39     inv.  90 deg rotation - cart. axis [-1,0,0]  

 cryst.   s(39) = (    -1          0          0      )
                  (     0          0          1      )
                  (     0         -1          0      )

 cart.    s(39) = ( -1.0000000  0.0000000  0.0000000 )
                  (  0.0000000  0.0000000 -1.0000000 )
                  (  0.0000000  1.0000000  0.0000000 )


      isym = 40     inv.  90 deg rotation - cart. axis [1,0,0]   

 cryst.   s(40) = (    -1          0          0      )
                  (     0          0         -1      )
                  (     0          1          0      )

 cart.    s(40) = ( -1.0000000  0.0000000  0.0000000 )
                  (  0.0000000  0.0000000  1.0000000 )
                  (  0.0000000 -1.0000000  0.0000000 )


      isym = 41     inv. 120 deg rotation - cart. axis [-1,-1,-1]

 cryst.   s(41) = (     0          0         -1      )
                  (    -1          0          0      )
                  (     0         -1          0      )

 cart.    s(41) = (  0.0000000 -1.0000000  0.0000000 )
                  (  0.0000000  0.0000000 -1.0000000 )
                  ( -1.0000000  0.0000000  0.0000000 )


      isym = 42     inv. 120 deg rotation - cart. axis [-1,1,1]  

 cryst.   s(42) = (     0          0          1      )
                  (     1          0          0      )
                  (     0         -1          0      )

 cart.    s(42) = (  0.0000000  1.0000000  0.0000000 )
                  (  0.0000000  0.0000000 -1.0000000 )
                  (  1.0000000  0.0000000  0.0000000 )


      isym = 43     inv. 120 deg rotation - cart. axis [1,1,-1]  

 cryst.   s(43) = (     0          0          1      )
                  (    -1          0          0      )
                  (     0          1          0      )

 cart.    s(43) = (  0.0000000 -1.0000000  0.0000000 )
                  (  0.0000000  0.0000000  1.0000000 )
                  (  1.0000000  0.0000000  0.0000000 )


      isym = 44     inv. 120 deg rotation - cart. axis [1,-1,1]  

 cryst.   s(44) = (     0          0         -1      )
                  (     1          0          0      )
                  (     0          1          0      )

 cart.    s(44) = (  0.0000000  1.0000000  0.0000000 )
                  (  0.0000000  0.0000000  1.0000000 )
                  ( -1.0000000  0.0000000  0.0000000 )


      isym = 45     inv. 120 deg rotation - cart. axis [1,1,1]   

 cryst.   s(45) = (     0         -1          0      )
                  (     0          0         -1      )
                  (    -1          0          0      )

 cart.    s(45) = (  0.0000000  0.0000000 -1.0000000 )
                  ( -1.0000000  0.0000000  0.0000000 )
                  (  0.0000000 -1.0000000  0.0000000 )


      isym = 46     inv. 120 deg rotation - cart. axis [-1,1,-1] 

 cryst.   s(46) = (     0          1          0      )
                  (     0          0          1      )
                  (    -1          0          0      )

 cart.    s(46) = (  0.0000000  0.0000000 -1.0000000 )
                  (  1.0000000  0.0000000  0.0000000 )
                  (  0.0000000  1.0000000  0.0000000 )


      isym = 47     inv. 120 deg rotation - cart. axis [1,-1,-1] 

 cryst.   s(47) = (     0          1          0      )
                  (     0          0         -1      )
                  (     1          0          0      )

 cart.    s(47) = (  0.0000000  0.0000000  1.0000000 )
                  (  1.0000000  0.0000000  0.0000000 )
                  (  0.0000000 -1.0000000  0.0000000 )


      isym = 48     inv. 120 deg rotation - cart. axis [-1,-1,1] 

 cryst.   s(48) = (     0         -1          0      )
                  (     0          0          1      )
                  (     1          0          0      )

 cart.    s(48) = (  0.0000000  0.0000000  1.0000000 )
                  ( -1.0000000  0.0000000  0.0000000 )
                  (  0.0000000  1.0000000  0.0000000 )


   Cartesian axes

     site n.     atom                  positions (alat units)
         1           O   tau(   1) = (   0.5000000   0.0000000   0.5000000  )
         2           O   tau(   2) = (   0.5000000   0.5000000   0.0000000  )
         3           O   tau(   3) = (   0.0000000   0.5000000   0.5000000  )
         4           Ti  tau(   4) = (   0.5000000   0.5000000   0.5000000  )
         5           Sr  tau(   5) = (   0.0000000   0.0000000   0.0000000  )

   Crystallographic axes

     site n.     atom                  positions (cryst. coord.)
         1           O   tau(   1) = (  0.5000000  0.0000000  0.5000000  )
         2           O   tau(   2) = (  0.5000000  0.5000000  0.0000000  )
         3           O   tau(   3) = (  0.0000000  0.5000000  0.5000000  )
         4           Ti  tau(   4) = (  0.5000000  0.5000000  0.5000000  )
         5           Sr  tau(   5) = (  0.0000000  0.0000000  0.0000000  )

     number of k points=   364  Marzari-Vanderbilt smearing, width (Ry)=  0.0010
                       cart. coord. in units 2pi/alat
        k(    1) = (   0.0000000   0.0000000   0.0000000), wk =   0.0001878
        k(    2) = (   0.0000000   0.0000000   0.0454545), wk =   0.0011270
        k(    3) = (   0.0000000   0.0000000   0.0909091), wk =   0.0011270
        k(    4) = (   0.0000000   0.0000000   0.1363636), wk =   0.0011270
        k(    5) = (   0.0000000   0.0000000   0.1818182), wk =   0.0011270
        k(    6) = (   0.0000000   0.0000000   0.2272727), wk =   0.0011270
        k(    7) = (   0.0000000   0.0000000   0.2727273), wk =   0.0011270
        k(    8) = (   0.0000000   0.0000000   0.3181818), wk =   0.0011270
        k(    9) = (   0.0000000   0.0000000   0.3636364), wk =   0.0011270
        k(   10) = (   0.0000000   0.0000000   0.4090909), wk =   0.0011270
        k(   11) = (   0.0000000   0.0000000   0.4545455), wk =   0.0011270
        k(   12) = (   0.0000000   0.0000000  -0.5000000), wk =   0.0005635
        k(   13) = (   0.0000000   0.0454545   0.0454545), wk =   0.0022539
        k(   14) = (   0.0000000   0.0454545   0.0909091), wk =   0.0045079
        k(   15) = (   0.0000000   0.0454545   0.1363636), wk =   0.0045079
        k(   16) = (   0.0000000   0.0454545   0.1818182), wk =   0.0045079
        k(   17) = (   0.0000000   0.0454545   0.2272727), wk =   0.0045079
        k(   18) = (   0.0000000   0.0454545   0.2727273), wk =   0.0045079
        k(   19) = (   0.0000000   0.0454545   0.3181818), wk =   0.0045079
        k(   20) = (   0.0000000   0.0454545   0.3636364), wk =   0.0045079
        k(   21) = (   0.0000000   0.0454545   0.4090909), wk =   0.0045079
        k(   22) = (   0.0000000   0.0454545   0.4545455), wk =   0.0045079
        k(   23) = (   0.0000000   0.0454545  -0.5000000), wk =   0.0022539
        k(   24) = (   0.0000000   0.0909091   0.0909091), wk =   0.0022539
        k(   25) = (   0.0000000   0.0909091   0.1363636), wk =   0.0045079
        k(   26) = (   0.0000000   0.0909091   0.1818182), wk =   0.0045079
        k(   27) = (   0.0000000   0.0909091   0.2272727), wk =   0.0045079
        k(   28) = (   0.0000000   0.0909091   0.2727273), wk =   0.0045079
        k(   29) = (   0.0000000   0.0909091   0.3181818), wk =   0.0045079
        k(   30) = (   0.0000000   0.0909091   0.3636364), wk =   0.0045079
        k(   31) = (   0.0000000   0.0909091   0.4090909), wk =   0.0045079
        k(   32) = (   0.0000000   0.0909091   0.4545455), wk =   0.0045079
        k(   33) = (   0.0000000   0.0909091  -0.5000000), wk =   0.0022539
        k(   34) = (   0.0000000   0.1363636   0.1363636), wk =   0.0022539
        k(   35) = (   0.0000000   0.1363636   0.1818182), wk =   0.0045079
        k(   36) = (   0.0000000   0.1363636   0.2272727), wk =   0.0045079
        k(   37) = (   0.0000000   0.1363636   0.2727273), wk =   0.0045079
        k(   38) = (   0.0000000   0.1363636   0.3181818), wk =   0.0045079
        k(   39) = (   0.0000000   0.1363636   0.3636364), wk =   0.0045079
        k(   40) = (   0.0000000   0.1363636   0.4090909), wk =   0.0045079
        k(   41) = (   0.0000000   0.1363636   0.4545455), wk =   0.0045079
        k(   42) = (   0.0000000   0.1363636  -0.5000000), wk =   0.0022539
        k(   43) = (   0.0000000   0.1818182   0.1818182), wk =   0.0022539
        k(   44) = (   0.0000000   0.1818182   0.2272727), wk =   0.0045079
        k(   45) = (   0.0000000   0.1818182   0.2727273), wk =   0.0045079
        k(   46) = (   0.0000000   0.1818182   0.3181818), wk =   0.0045079
        k(   47) = (   0.0000000   0.1818182   0.3636364), wk =   0.0045079
        k(   48) = (   0.0000000   0.1818182   0.4090909), wk =   0.0045079
        k(   49) = (   0.0000000   0.1818182   0.4545455), wk =   0.0045079
        k(   50) = (   0.0000000   0.1818182  -0.5000000), wk =   0.0022539
        k(   51) = (   0.0000000   0.2272727   0.2272727), wk =   0.0022539
        k(   52) = (   0.0000000   0.2272727   0.2727273), wk =   0.0045079
        k(   53) = (   0.0000000   0.2272727   0.3181818), wk =   0.0045079
        k(   54) = (   0.0000000   0.2272727   0.3636364), wk =   0.0045079
        k(   55) = (   0.0000000   0.2272727   0.4090909), wk =   0.0045079
        k(   56) = (   0.0000000   0.2272727   0.4545455), wk =   0.0045079
        k(   57) = (   0.0000000   0.2272727  -0.5000000), wk =   0.0022539
        k(   58) = (   0.0000000   0.2727273   0.2727273), wk =   0.0022539
        k(   59) = (   0.0000000   0.2727273   0.3181818), wk =   0.0045079
        k(   60) = (   0.0000000   0.2727273   0.3636364), wk =   0.0045079
        k(   61) = (   0.0000000   0.2727273   0.4090909), wk =   0.0045079
        k(   62) = (   0.0000000   0.2727273   0.4545455), wk =   0.0045079
        k(   63) = (   0.0000000   0.2727273  -0.5000000), wk =   0.0022539
        k(   64) = (   0.0000000   0.3181818   0.3181818), wk =   0.0022539
        k(   65) = (   0.0000000   0.3181818   0.3636364), wk =   0.0045079
        k(   66) = (   0.0000000   0.3181818   0.4090909), wk =   0.0045079
        k(   67) = (   0.0000000   0.3181818   0.4545455), wk =   0.0045079
        k(   68) = (   0.0000000   0.3181818  -0.5000000), wk =   0.0022539
        k(   69) = (   0.0000000   0.3636364   0.3636364), wk =   0.0022539
        k(   70) = (   0.0000000   0.3636364   0.4090909), wk =   0.0045079
        k(   71) = (   0.0000000   0.3636364   0.4545455), wk =   0.0045079
        k(   72) = (   0.0000000   0.3636364  -0.5000000), wk =   0.0022539
        k(   73) = (   0.0000000   0.4090909   0.4090909), wk =   0.0022539
        k(   74) = (   0.0000000   0.4090909   0.4545455), wk =   0.0045079
        k(   75) = (   0.0000000   0.4090909  -0.5000000), wk =   0.0022539
        k(   76) = (   0.0000000   0.4545455   0.4545455), wk =   0.0022539
        k(   77) = (   0.0000000   0.4545455  -0.5000000), wk =   0.0022539
        k(   78) = (   0.0000000  -0.5000000  -0.5000000), wk =   0.0005635
        k(   79) = (   0.0454545   0.0454545   0.0454545), wk =   0.0015026
        k(   80) = (   0.0454545   0.0454545   0.0909091), wk =   0.0045079
        k(   81) = (   0.0454545   0.0454545   0.1363636), wk =   0.0045079
        k(   82) = (   0.0454545   0.0454545   0.1818182), wk =   0.0045079
        k(   83) = (   0.0454545   0.0454545   0.2272727), wk =   0.0045079
        k(   84) = (   0.0454545   0.0454545   0.2727273), wk =   0.0045079
        k(   85) = (   0.0454545   0.0454545   0.3181818), wk =   0.0045079
        k(   86) = (   0.0454545   0.0454545   0.3636364), wk =   0.0045079
        k(   87) = (   0.0454545   0.0454545   0.4090909), wk =   0.0045079
        k(   88) = (   0.0454545   0.0454545   0.4545455), wk =   0.0045079
        k(   89) = (   0.0454545   0.0454545  -0.5000000), wk =   0.0022539
        k(   90) = (   0.0454545   0.0909091   0.0909091), wk =   0.0045079
        k(   91) = (   0.0454545   0.0909091   0.1363636), wk =   0.0090158
        k(   92) = (   0.0454545   0.0909091   0.1818182), wk =   0.0090158
        k(   93) = (   0.0454545   0.0909091   0.2272727), wk =   0.0090158
        k(   94) = (   0.0454545   0.0909091   0.2727273), wk =   0.0090158
        k(   95) = (   0.0454545   0.0909091   0.3181818), wk =   0.0090158
        k(   96) = (   0.0454545   0.0909091   0.3636364), wk =   0.0090158
        k(   97) = (   0.0454545   0.0909091   0.4090909), wk =   0.0090158
        k(   98) = (   0.0454545   0.0909091   0.4545455), wk =   0.0090158
        k(   99) = (   0.0454545   0.0909091  -0.5000000), wk =   0.0045079
        k(  100) = (   0.0454545   0.1363636   0.1363636), wk =   0.0045079
        k(  101) = (   0.0454545   0.1363636   0.1818182), wk =   0.0090158
        k(  102) = (   0.0454545   0.1363636   0.2272727), wk =   0.0090158
        k(  103) = (   0.0454545   0.1363636   0.2727273), wk =   0.0090158
        k(  104) = (   0.0454545   0.1363636   0.3181818), wk =   0.0090158
        k(  105) = (   0.0454545   0.1363636   0.3636364), wk =   0.0090158
        k(  106) = (   0.0454545   0.1363636   0.4090909), wk =   0.0090158
        k(  107) = (   0.0454545   0.1363636   0.4545455), wk =   0.0090158
        k(  108) = (   0.0454545   0.1363636  -0.5000000), wk =   0.0045079
        k(  109) = (   0.0454545   0.1818182   0.1818182), wk =   0.0045079
        k(  110) = (   0.0454545   0.1818182   0.2272727), wk =   0.0090158
        k(  111) = (   0.0454545   0.1818182   0.2727273), wk =   0.0090158
        k(  112) = (   0.0454545   0.1818182   0.3181818), wk =   0.0090158
        k(  113) = (   0.0454545   0.1818182   0.3636364), wk =   0.0090158
        k(  114) = (   0.0454545   0.1818182   0.4090909), wk =   0.0090158
        k(  115) = (   0.0454545   0.1818182   0.4545455), wk =   0.0090158
        k(  116) = (   0.0454545   0.1818182  -0.5000000), wk =   0.0045079
        k(  117) = (   0.0454545   0.2272727   0.2272727), wk =   0.0045079
        k(  118) = (   0.0454545   0.2272727   0.2727273), wk =   0.0090158
        k(  119) = (   0.0454545   0.2272727   0.3181818), wk =   0.0090158
        k(  120) = (   0.0454545   0.2272727   0.3636364), wk =   0.0090158
        k(  121) = (   0.0454545   0.2272727   0.4090909), wk =   0.0090158
        k(  122) = (   0.0454545   0.2272727   0.4545455), wk =   0.0090158
        k(  123) = (   0.0454545   0.2272727  -0.5000000), wk =   0.0045079
        k(  124) = (   0.0454545   0.2727273   0.2727273), wk =   0.0045079
        k(  125) = (   0.0454545   0.2727273   0.3181818), wk =   0.0090158
        k(  126) = (   0.0454545   0.2727273   0.3636364), wk =   0.0090158
        k(  127) = (   0.0454545   0.2727273   0.4090909), wk =   0.0090158
        k(  128) = (   0.0454545   0.2727273   0.4545455), wk =   0.0090158
        k(  129) = (   0.0454545   0.2727273  -0.5000000), wk =   0.0045079
        k(  130) = (   0.0454545   0.3181818   0.3181818), wk =   0.0045079
        k(  131) = (   0.0454545   0.3181818   0.3636364), wk =   0.0090158
        k(  132) = (   0.0454545   0.3181818   0.4090909), wk =   0.0090158
        k(  133) = (   0.0454545   0.3181818   0.4545455), wk =   0.0090158
        k(  134) = (   0.0454545   0.3181818  -0.5000000), wk =   0.0045079
        k(  135) = (   0.0454545   0.3636364   0.3636364), wk =   0.0045079
        k(  136) = (   0.0454545   0.3636364   0.4090909), wk =   0.0090158
        k(  137) = (   0.0454545   0.3636364   0.4545455), wk =   0.0090158
        k(  138) = (   0.0454545   0.3636364  -0.5000000), wk =   0.0045079
        k(  139) = (   0.0454545   0.4090909   0.4090909), wk =   0.0045079
        k(  140) = (   0.0454545   0.4090909   0.4545455), wk =   0.0090158
        k(  141) = (   0.0454545   0.4090909  -0.5000000), wk =   0.0045079
        k(  142) = (   0.0454545   0.4545455   0.4545455), wk =   0.0045079
        k(  143) = (   0.0454545   0.4545455  -0.5000000), wk =   0.0045079
        k(  144) = (   0.0454545  -0.5000000  -0.5000000), wk =   0.0011270
        k(  145) = (   0.0909091   0.0909091   0.0909091), wk =   0.0015026
        k(  146) = (   0.0909091   0.0909091   0.1363636), wk =   0.0045079
        k(  147) = (   0.0909091   0.0909091   0.1818182), wk =   0.0045079
        k(  148) = (   0.0909091   0.0909091   0.2272727), wk =   0.0045079
        k(  149) = (   0.0909091   0.0909091   0.2727273), wk =   0.0045079
        k(  150) = (   0.0909091   0.0909091   0.3181818), wk =   0.0045079
        k(  151) = (   0.0909091   0.0909091   0.3636364), wk =   0.0045079
        k(  152) = (   0.0909091   0.0909091   0.4090909), wk =   0.0045079
        k(  153) = (   0.0909091   0.0909091   0.4545455), wk =   0.0045079
        k(  154) = (   0.0909091   0.0909091  -0.5000000), wk =   0.0022539
        k(  155) = (   0.0909091   0.1363636   0.1363636), wk =   0.0045079
        k(  156) = (   0.0909091   0.1363636   0.1818182), wk =   0.0090158
        k(  157) = (   0.0909091   0.1363636   0.2272727), wk =   0.0090158
        k(  158) = (   0.0909091   0.1363636   0.2727273), wk =   0.0090158
        k(  159) = (   0.0909091   0.1363636   0.3181818), wk =   0.0090158
        k(  160) = (   0.0909091   0.1363636   0.3636364), wk =   0.0090158
        k(  161) = (   0.0909091   0.1363636   0.4090909), wk =   0.0090158
        k(  162) = (   0.0909091   0.1363636   0.4545455), wk =   0.0090158
        k(  163) = (   0.0909091   0.1363636  -0.5000000), wk =   0.0045079
        k(  164) = (   0.0909091   0.1818182   0.1818182), wk =   0.0045079
        k(  165) = (   0.0909091   0.1818182   0.2272727), wk =   0.0090158
        k(  166) = (   0.0909091   0.1818182   0.2727273), wk =   0.0090158
        k(  167) = (   0.0909091   0.1818182   0.3181818), wk =   0.0090158
        k(  168) = (   0.0909091   0.1818182   0.3636364), wk =   0.0090158
        k(  169) = (   0.0909091   0.1818182   0.4090909), wk =   0.0090158
        k(  170) = (   0.0909091   0.1818182   0.4545455), wk =   0.0090158
        k(  171) = (   0.0909091   0.1818182  -0.5000000), wk =   0.0045079
        k(  172) = (   0.0909091   0.2272727   0.2272727), wk =   0.0045079
        k(  173) = (   0.0909091   0.2272727   0.2727273), wk =   0.0090158
        k(  174) = (   0.0909091   0.2272727   0.3181818), wk =   0.0090158
        k(  175) = (   0.0909091   0.2272727   0.3636364), wk =   0.0090158
        k(  176) = (   0.0909091   0.2272727   0.4090909), wk =   0.0090158
        k(  177) = (   0.0909091   0.2272727   0.4545455), wk =   0.0090158
        k(  178) = (   0.0909091   0.2272727  -0.5000000), wk =   0.0045079
        k(  179) = (   0.0909091   0.2727273   0.2727273), wk =   0.0045079
        k(  180) = (   0.0909091   0.2727273   0.3181818), wk =   0.0090158
        k(  181) = (   0.0909091   0.2727273   0.3636364), wk =   0.0090158
        k(  182) = (   0.0909091   0.2727273   0.4090909), wk =   0.0090158
        k(  183) = (   0.0909091   0.2727273   0.4545455), wk =   0.0090158
        k(  184) = (   0.0909091   0.2727273  -0.5000000), wk =   0.0045079
        k(  185) = (   0.0909091   0.3181818   0.3181818), wk =   0.0045079
        k(  186) = (   0.0909091   0.3181818   0.3636364), wk =   0.0090158
        k(  187) = (   0.0909091   0.3181818   0.4090909), wk =   0.0090158
        k(  188) = (   0.0909091   0.3181818   0.4545455), wk =   0.0090158
        k(  189) = (   0.0909091   0.3181818  -0.5000000), wk =   0.0045079
        k(  190) = (   0.0909091   0.3636364   0.3636364), wk =   0.0045079
        k(  191) = (   0.0909091   0.3636364   0.4090909), wk =   0.0090158
        k(  192) = (   0.0909091   0.3636364   0.4545455), wk =   0.0090158
        k(  193) = (   0.0909091   0.3636364  -0.5000000), wk =   0.0045079
        k(  194) = (   0.0909091   0.4090909   0.4090909), wk =   0.0045079
        k(  195) = (   0.0909091   0.4090909   0.4545455), wk =   0.0090158
        k(  196) = (   0.0909091   0.4090909  -0.5000000), wk =   0.0045079
        k(  197) = (   0.0909091   0.4545455   0.4545455), wk =   0.0045079
        k(  198) = (   0.0909091   0.4545455  -0.5000000), wk =   0.0045079
        k(  199) = (   0.0909091  -0.5000000  -0.5000000), wk =   0.0011270
        k(  200) = (   0.1363636   0.1363636   0.1363636), wk =   0.0015026
        k(  201) = (   0.1363636   0.1363636   0.1818182), wk =   0.0045079
        k(  202) = (   0.1363636   0.1363636   0.2272727), wk =   0.0045079
        k(  203) = (   0.1363636   0.1363636   0.2727273), wk =   0.0045079
        k(  204) = (   0.1363636   0.1363636   0.3181818), wk =   0.0045079
        k(  205) = (   0.1363636   0.1363636   0.3636364), wk =   0.0045079
        k(  206) = (   0.1363636   0.1363636   0.4090909), wk =   0.0045079
        k(  207) = (   0.1363636   0.1363636   0.4545455), wk =   0.0045079
        k(  208) = (   0.1363636   0.1363636  -0.5000000), wk =   0.0022539
        k(  209) = (   0.1363636   0.1818182   0.1818182), wk =   0.0045079
        k(  210) = (   0.1363636   0.1818182   0.2272727), wk =   0.0090158
        k(  211) = (   0.1363636   0.1818182   0.2727273), wk =   0.0090158
        k(  212) = (   0.1363636   0.1818182   0.3181818), wk =   0.0090158
        k(  213) = (   0.1363636   0.1818182   0.3636364), wk =   0.0090158
        k(  214) = (   0.1363636   0.1818182   0.4090909), wk =   0.0090158
        k(  215) = (   0.1363636   0.1818182   0.4545455), wk =   0.0090158
        k(  216) = (   0.1363636   0.1818182  -0.5000000), wk =   0.0045079
        k(  217) = (   0.1363636   0.2272727   0.2272727), wk =   0.0045079
        k(  218) = (   0.1363636   0.2272727   0.2727273), wk =   0.0090158
        k(  219) = (   0.1363636   0.2272727   0.3181818), wk =   0.0090158
        k(  220) = (   0.1363636   0.2272727   0.3636364), wk =   0.0090158
        k(  221) = (   0.1363636   0.2272727   0.4090909), wk =   0.0090158
        k(  222) = (   0.1363636   0.2272727   0.4545455), wk =   0.0090158
        k(  223) = (   0.1363636   0.2272727  -0.5000000), wk =   0.0045079
        k(  224) = (   0.1363636   0.2727273   0.2727273), wk =   0.0045079
        k(  225) = (   0.1363636   0.2727273   0.3181818), wk =   0.0090158
        k(  226) = (   0.1363636   0.2727273   0.3636364), wk =   0.0090158
        k(  227) = (   0.1363636   0.2727273   0.4090909), wk =   0.0090158
        k(  228) = (   0.1363636   0.2727273   0.4545455), wk =   0.0090158
        k(  229) = (   0.1363636   0.2727273  -0.5000000), wk =   0.0045079
        k(  230) = (   0.1363636   0.3181818   0.3181818), wk =   0.0045079
        k(  231) = (   0.1363636   0.3181818   0.3636364), wk =   0.0090158
        k(  232) = (   0.1363636   0.3181818   0.4090909), wk =   0.0090158
        k(  233) = (   0.1363636   0.3181818   0.4545455), wk =   0.0090158
        k(  234) = (   0.1363636   0.3181818  -0.5000000), wk =   0.0045079
        k(  235) = (   0.1363636   0.3636364   0.3636364), wk =   0.0045079
        k(  236) = (   0.1363636   0.3636364   0.4090909), wk =   0.0090158
        k(  237) = (   0.1363636   0.3636364   0.4545455), wk =   0.0090158
        k(  238) = (   0.1363636   0.3636364  -0.5000000), wk =   0.0045079
        k(  239) = (   0.1363636   0.4090909   0.4090909), wk =   0.0045079
        k(  240) = (   0.1363636   0.4090909   0.4545455), wk =   0.0090158
        k(  241) = (   0.1363636   0.4090909  -0.5000000), wk =   0.0045079
        k(  242) = (   0.1363636   0.4545455   0.4545455), wk =   0.0045079
        k(  243) = (   0.1363636   0.4545455  -0.5000000), wk =   0.0045079
        k(  244) = (   0.1363636  -0.5000000  -0.5000000), wk =   0.0011270
        k(  245) = (   0.1818182   0.1818182   0.1818182), wk =   0.0015026
        k(  246) = (   0.1818182   0.1818182   0.2272727), wk =   0.0045079
        k(  247) = (   0.1818182   0.1818182   0.2727273), wk =   0.0045079
        k(  248) = (   0.1818182   0.1818182   0.3181818), wk =   0.0045079
        k(  249) = (   0.1818182   0.1818182   0.3636364), wk =   0.0045079
        k(  250) = (   0.1818182   0.1818182   0.4090909), wk =   0.0045079
        k(  251) = (   0.1818182   0.1818182   0.4545455), wk =   0.0045079
        k(  252) = (   0.1818182   0.1818182  -0.5000000), wk =   0.0022539
        k(  253) = (   0.1818182   0.2272727   0.2272727), wk =   0.0045079
        k(  254) = (   0.1818182   0.2272727   0.2727273), wk =   0.0090158
        k(  255) = (   0.1818182   0.2272727   0.3181818), wk =   0.0090158
        k(  256) = (   0.1818182   0.2272727   0.3636364), wk =   0.0090158
        k(  257) = (   0.1818182   0.2272727   0.4090909), wk =   0.0090158
        k(  258) = (   0.1818182   0.2272727   0.4545455), wk =   0.0090158
        k(  259) = (   0.1818182   0.2272727  -0.5000000), wk =   0.0045079
        k(  260) = (   0.1818182   0.2727273   0.2727273), wk =   0.0045079
        k(  261) = (   0.1818182   0.2727273   0.3181818), wk =   0.0090158
        k(  262) = (   0.1818182   0.2727273   0.3636364), wk =   0.0090158
        k(  263) = (   0.1818182   0.2727273   0.4090909), wk =   0.0090158
        k(  264) = (   0.1818182   0.2727273   0.4545455), wk =   0.0090158
        k(  265) = (   0.1818182   0.2727273  -0.5000000), wk =   0.0045079
        k(  266) = (   0.1818182   0.3181818   0.3181818), wk =   0.0045079
        k(  267) = (   0.1818182   0.3181818   0.3636364), wk =   0.0090158
        k(  268) = (   0.1818182   0.3181818   0.4090909), wk =   0.0090158
        k(  269) = (   0.1818182   0.3181818   0.4545455), wk =   0.0090158
        k(  270) = (   0.1818182   0.3181818  -0.5000000), wk =   0.0045079
        k(  271) = (   0.1818182   0.3636364   0.3636364), wk =   0.0045079
        k(  272) = (   0.1818182   0.3636364   0.4090909), wk =   0.0090158
        k(  273) = (   0.1818182   0.3636364   0.4545455), wk =   0.0090158
        k(  274) = (   0.1818182   0.3636364  -0.5000000), wk =   0.0045079
        k(  275) = (   0.1818182   0.4090909   0.4090909), wk =   0.0045079
        k(  276) = (   0.1818182   0.4090909   0.4545455), wk =   0.0090158
        k(  277) = (   0.1818182   0.4090909  -0.5000000), wk =   0.0045079
        k(  278) = (   0.1818182   0.4545455   0.4545455), wk =   0.0045079
        k(  279) = (   0.1818182   0.4545455  -0.5000000), wk =   0.0045079
        k(  280) = (   0.1818182  -0.5000000  -0.5000000), wk =   0.0011270
        k(  281) = (   0.2272727   0.2272727   0.2272727), wk =   0.0015026
        k(  282) = (   0.2272727   0.2272727   0.2727273), wk =   0.0045079
        k(  283) = (   0.2272727   0.2272727   0.3181818), wk =   0.0045079
        k(  284) = (   0.2272727   0.2272727   0.3636364), wk =   0.0045079
        k(  285) = (   0.2272727   0.2272727   0.4090909), wk =   0.0045079
        k(  286) = (   0.2272727   0.2272727   0.4545455), wk =   0.0045079
        k(  287) = (   0.2272727   0.2272727  -0.5000000), wk =   0.0022539
        k(  288) = (   0.2272727   0.2727273   0.2727273), wk =   0.0045079
        k(  289) = (   0.2272727   0.2727273   0.3181818), wk =   0.0090158
        k(  290) = (   0.2272727   0.2727273   0.3636364), wk =   0.0090158
        k(  291) = (   0.2272727   0.2727273   0.4090909), wk =   0.0090158
        k(  292) = (   0.2272727   0.2727273   0.4545455), wk =   0.0090158
        k(  293) = (   0.2272727   0.2727273  -0.5000000), wk =   0.0045079
        k(  294) = (   0.2272727   0.3181818   0.3181818), wk =   0.0045079
        k(  295) = (   0.2272727   0.3181818   0.3636364), wk =   0.0090158
        k(  296) = (   0.2272727   0.3181818   0.4090909), wk =   0.0090158
        k(  297) = (   0.2272727   0.3181818   0.4545455), wk =   0.0090158
        k(  298) = (   0.2272727   0.3181818  -0.5000000), wk =   0.0045079
        k(  299) = (   0.2272727   0.3636364   0.3636364), wk =   0.0045079
        k(  300) = (   0.2272727   0.3636364   0.4090909), wk =   0.0090158
        k(  301) = (   0.2272727   0.3636364   0.4545455), wk =   0.0090158
        k(  302) = (   0.2272727   0.3636364  -0.5000000), wk =   0.0045079
        k(  303) = (   0.2272727   0.4090909   0.4090909), wk =   0.0045079
        k(  304) = (   0.2272727   0.4090909   0.4545455), wk =   0.0090158
        k(  305) = (   0.2272727   0.4090909  -0.5000000), wk =   0.0045079
        k(  306) = (   0.2272727   0.4545455   0.4545455), wk =   0.0045079
        k(  307) = (   0.2272727   0.4545455  -0.5000000), wk =   0.0045079
        k(  308) = (   0.2272727  -0.5000000  -0.5000000), wk =   0.0011270
        k(  309) = (   0.2727273   0.2727273   0.2727273), wk =   0.0015026
        k(  310) = (   0.2727273   0.2727273   0.3181818), wk =   0.0045079
        k(  311) = (   0.2727273   0.2727273   0.3636364), wk =   0.0045079
        k(  312) = (   0.2727273   0.2727273   0.4090909), wk =   0.0045079
        k(  313) = (   0.2727273   0.2727273   0.4545455), wk =   0.0045079
        k(  314) = (   0.2727273   0.2727273  -0.5000000), wk =   0.0022539
        k(  315) = (   0.2727273   0.3181818   0.3181818), wk =   0.0045079
        k(  316) = (   0.2727273   0.3181818   0.3636364), wk =   0.0090158
        k(  317) = (   0.2727273   0.3181818   0.4090909), wk =   0.0090158
        k(  318) = (   0.2727273   0.3181818   0.4545455), wk =   0.0090158
        k(  319) = (   0.2727273   0.3181818  -0.5000000), wk =   0.0045079
        k(  320) = (   0.2727273   0.3636364   0.3636364), wk =   0.0045079
        k(  321) = (   0.2727273   0.3636364   0.4090909), wk =   0.0090158
        k(  322) = (   0.2727273   0.3636364   0.4545455), wk =   0.0090158
        k(  323) = (   0.2727273   0.3636364  -0.5000000), wk =   0.0045079
        k(  324) = (   0.2727273   0.4090909   0.4090909), wk =   0.0045079
        k(  325) = (   0.2727273   0.4090909   0.4545455), wk =   0.0090158
        k(  326) = (   0.2727273   0.4090909  -0.5000000), wk =   0.0045079
        k(  327) = (   0.2727273   0.4545455   0.4545455), wk =   0.0045079
        k(  328) = (   0.2727273   0.4545455  -0.5000000), wk =   0.0045079
        k(  329) = (   0.2727273  -0.5000000  -0.5000000), wk =   0.0011270
        k(  330) = (   0.3181818   0.3181818   0.3181818), wk =   0.0015026
        k(  331) = (   0.3181818   0.3181818   0.3636364), wk =   0.0045079
        k(  332) = (   0.3181818   0.3181818   0.4090909), wk =   0.0045079
        k(  333) = (   0.3181818   0.3181818   0.4545455), wk =   0.0045079
        k(  334) = (   0.3181818   0.3181818  -0.5000000), wk =   0.0022539
        k(  335) = (   0.3181818   0.3636364   0.3636364), wk =   0.0045079
        k(  336) = (   0.3181818   0.3636364   0.4090909), wk =   0.0090158
        k(  337) = (   0.3181818   0.3636364   0.4545455), wk =   0.0090158
        k(  338) = (   0.3181818   0.3636364  -0.5000000), wk =   0.0045079
        k(  339) = (   0.3181818   0.4090909   0.4090909), wk =   0.0045079
        k(  340) = (   0.3181818   0.4090909   0.4545455), wk =   0.0090158
        k(  341) = (   0.3181818   0.4090909  -0.5000000), wk =   0.0045079
        k(  342) = (   0.3181818   0.4545455   0.4545455), wk =   0.0045079
        k(  343) = (   0.3181818   0.4545455  -0.5000000), wk =   0.0045079
        k(  344) = (   0.3181818  -0.5000000  -0.5000000), wk =   0.0011270
        k(  345) = (   0.3636364   0.3636364   0.3636364), wk =   0.0015026
        k(  346) = (   0.3636364   0.3636364   0.4090909), wk =   0.0045079
        k(  347) = (   0.3636364   0.3636364   0.4545455), wk =   0.0045079
        k(  348) = (   0.3636364   0.3636364  -0.5000000), wk =   0.0022539
        k(  349) = (   0.3636364   0.4090909   0.4090909), wk =   0.0045079
        k(  350) = (   0.3636364   0.4090909   0.4545455), wk =   0.0090158
        k(  351) = (   0.3636364   0.4090909  -0.5000000), wk =   0.0045079
        k(  352) = (   0.3636364   0.4545455   0.4545455), wk =   0.0045079
        k(  353) = (   0.3636364   0.4545455  -0.5000000), wk =   0.0045079
        k(  354) = (   0.3636364  -0.5000000  -0.5000000), wk =   0.0011270
        k(  355) = (   0.4090909   0.4090909   0.4090909), wk =   0.0015026
        k(  356) = (   0.4090909   0.4090909   0.4545455), wk =   0.0045079
        k(  357) = (   0.4090909   0.4090909  -0.5000000), wk =   0.0022539
        k(  358) = (   0.4090909   0.4545455   0.4545455), wk =   0.0045079
        k(  359) = (   0.4090909   0.4545455  -0.5000000), wk =   0.0045079
        k(  360) = (   0.4090909  -0.5000000  -0.5000000), wk =   0.0011270
        k(  361) = (   0.4545455   0.4545455   0.4545455), wk =   0.0015026
        k(  362) = (   0.4545455   0.4545455  -0.5000000), wk =   0.0022539
        k(  363) = (   0.4545455  -0.5000000  -0.5000000), wk =   0.0011270
        k(  364) = (  -0.5000000  -0.5000000  -0.5000000), wk =   0.0001878

                       cryst. coord.
        k(    1) = (   0.0000000   0.0000000   0.0000000), wk =   0.0001878
        k(    2) = (   0.0000000   0.0000000   0.0454545), wk =   0.0011270
        k(    3) = (   0.0000000   0.0000000   0.0909091), wk =   0.0011270
        k(    4) = (   0.0000000   0.0000000   0.1363636), wk =   0.0011270
        k(    5) = (   0.0000000   0.0000000   0.1818182), wk =   0.0011270
        k(    6) = (   0.0000000   0.0000000   0.2272727), wk =   0.0011270
        k(    7) = (   0.0000000   0.0000000   0.2727273), wk =   0.0011270
        k(    8) = (   0.0000000   0.0000000   0.3181818), wk =   0.0011270
        k(    9) = (   0.0000000   0.0000000   0.3636364), wk =   0.0011270
        k(   10) = (   0.0000000   0.0000000   0.4090909), wk =   0.0011270
        k(   11) = (   0.0000000   0.0000000   0.4545455), wk =   0.0011270
        k(   12) = (   0.0000000   0.0000000  -0.5000000), wk =   0.0005635
        k(   13) = (   0.0000000   0.0454545   0.0454545), wk =   0.0022539
        k(   14) = (   0.0000000   0.0454545   0.0909091), wk =   0.0045079
        k(   15) = (   0.0000000   0.0454545   0.1363636), wk =   0.0045079
        k(   16) = (   0.0000000   0.0454545   0.1818182), wk =   0.0045079
        k(   17) = (   0.0000000   0.0454545   0.2272727), wk =   0.0045079
        k(   18) = (   0.0000000   0.0454545   0.2727273), wk =   0.0045079
        k(   19) = (   0.0000000   0.0454545   0.3181818), wk =   0.0045079
        k(   20) = (   0.0000000   0.0454545   0.3636364), wk =   0.0045079
        k(   21) = (   0.0000000   0.0454545   0.4090909), wk =   0.0045079
        k(   22) = (   0.0000000   0.0454545   0.4545455), wk =   0.0045079
        k(   23) = (   0.0000000   0.0454545  -0.5000000), wk =   0.0022539
        k(   24) = (   0.0000000   0.0909091   0.0909091), wk =   0.0022539
        k(   25) = (   0.0000000   0.0909091   0.1363636), wk =   0.0045079
        k(   26) = (   0.0000000   0.0909091   0.1818182), wk =   0.0045079
        k(   27) = (   0.0000000   0.0909091   0.2272727), wk =   0.0045079
        k(   28) = (   0.0000000   0.0909091   0.2727273), wk =   0.0045079
        k(   29) = (   0.0000000   0.0909091   0.3181818), wk =   0.0045079
        k(   30) = (   0.0000000   0.0909091   0.3636364), wk =   0.0045079
        k(   31) = (   0.0000000   0.0909091   0.4090909), wk =   0.0045079
        k(   32) = (   0.0000000   0.0909091   0.4545455), wk =   0.0045079
        k(   33) = (   0.0000000   0.0909091  -0.5000000), wk =   0.0022539
        k(   34) = (   0.0000000   0.1363636   0.1363636), wk =   0.0022539
        k(   35) = (   0.0000000   0.1363636   0.1818182), wk =   0.0045079
        k(   36) = (   0.0000000   0.1363636   0.2272727), wk =   0.0045079
        k(   37) = (   0.0000000   0.1363636   0.2727273), wk =   0.0045079
        k(   38) = (   0.0000000   0.1363636   0.3181818), wk =   0.0045079
        k(   39) = (   0.0000000   0.1363636   0.3636364), wk =   0.0045079
        k(   40) = (   0.0000000   0.1363636   0.4090909), wk =   0.0045079
        k(   41) = (   0.0000000   0.1363636   0.4545455), wk =   0.0045079
        k(   42) = (   0.0000000   0.1363636  -0.5000000), wk =   0.0022539
        k(   43) = (   0.0000000   0.1818182   0.1818182), wk =   0.0022539
        k(   44) = (   0.0000000   0.1818182   0.2272727), wk =   0.0045079
        k(   45) = (   0.0000000   0.1818182   0.2727273), wk =   0.0045079
        k(   46) = (   0.0000000   0.1818182   0.3181818), wk =   0.0045079
        k(   47) = (   0.0000000   0.1818182   0.3636364), wk =   0.0045079
        k(   48) = (   0.0000000   0.1818182   0.4090909), wk =   0.0045079
        k(   49) = (   0.0000000   0.1818182   0.4545455), wk =   0.0045079
        k(   50) = (   0.0000000   0.1818182  -0.5000000), wk =   0.0022539
        k(   51) = (   0.0000000   0.2272727   0.2272727), wk =   0.0022539
        k(   52) = (   0.0000000   0.2272727   0.2727273), wk =   0.0045079
        k(   53) = (   0.0000000   0.2272727   0.3181818), wk =   0.0045079
        k(   54) = (   0.0000000   0.2272727   0.3636364), wk =   0.0045079
        k(   55) = (   0.0000000   0.2272727   0.4090909), wk =   0.0045079
        k(   56) = (   0.0000000   0.2272727   0.4545455), wk =   0.0045079
        k(   57) = (   0.0000000   0.2272727  -0.5000000), wk =   0.0022539
        k(   58) = (   0.0000000   0.2727273   0.2727273), wk =   0.0022539
        k(   59) = (   0.0000000   0.2727273   0.3181818), wk =   0.0045079
        k(   60) = (   0.0000000   0.2727273   0.3636364), wk =   0.0045079
        k(   61) = (   0.0000000   0.2727273   0.4090909), wk =   0.0045079
        k(   62) = (   0.0000000   0.2727273   0.4545455), wk =   0.0045079
        k(   63) = (   0.0000000   0.2727273  -0.5000000), wk =   0.0022539
        k(   64) = (   0.0000000   0.3181818   0.3181818), wk =   0.0022539
        k(   65) = (   0.0000000   0.3181818   0.3636364), wk =   0.0045079
        k(   66) = (   0.0000000   0.3181818   0.4090909), wk =   0.0045079
        k(   67) = (   0.0000000   0.3181818   0.4545455), wk =   0.0045079
        k(   68) = (   0.0000000   0.3181818  -0.5000000), wk =   0.0022539
        k(   69) = (   0.0000000   0.3636364   0.3636364), wk =   0.0022539
        k(   70) = (   0.0000000   0.3636364   0.4090909), wk =   0.0045079
        k(   71) = (   0.0000000   0.3636364   0.4545455), wk =   0.0045079
        k(   72) = (   0.0000000   0.3636364  -0.5000000), wk =   0.0022539
        k(   73) = (   0.0000000   0.4090909   0.4090909), wk =   0.0022539
        k(   74) = (   0.0000000   0.4090909   0.4545455), wk =   0.0045079
        k(   75) = (   0.0000000   0.4090909  -0.5000000), wk =   0.0022539
        k(   76) = (   0.0000000   0.4545455   0.4545455), wk =   0.0022539
        k(   77) = (   0.0000000   0.4545455  -0.5000000), wk =   0.0022539
        k(   78) = (   0.0000000  -0.5000000  -0.5000000), wk =   0.0005635
        k(   79) = (   0.0454545   0.0454545   0.0454545), wk =   0.0015026
        k(   80) = (   0.0454545   0.0454545   0.0909091), wk =   0.0045079
        k(   81) = (   0.0454545   0.0454545   0.1363636), wk =   0.0045079
        k(   82) = (   0.0454545   0.0454545   0.1818182), wk =   0.0045079
        k(   83) = (   0.0454545   0.0454545   0.2272727), wk =   0.0045079
        k(   84) = (   0.0454545   0.0454545   0.2727273), wk =   0.0045079
        k(   85) = (   0.0454545   0.0454545   0.3181818), wk =   0.0045079
        k(   86) = (   0.0454545   0.0454545   0.3636364), wk =   0.0045079
        k(   87) = (   0.0454545   0.0454545   0.4090909), wk =   0.0045079
        k(   88) = (   0.0454545   0.0454545   0.4545455), wk =   0.0045079
        k(   89) = (   0.0454545   0.0454545  -0.5000000), wk =   0.0022539
        k(   90) = (   0.0454545   0.0909091   0.0909091), wk =   0.0045079
        k(   91) = (   0.0454545   0.0909091   0.1363636), wk =   0.0090158
        k(   92) = (   0.0454545   0.0909091   0.1818182), wk =   0.0090158
        k(   93) = (   0.0454545   0.0909091   0.2272727), wk =   0.0090158
        k(   94) = (   0.0454545   0.0909091   0.2727273), wk =   0.0090158
        k(   95) = (   0.0454545   0.0909091   0.3181818), wk =   0.0090158
        k(   96) = (   0.0454545   0.0909091   0.3636364), wk =   0.0090158
        k(   97) = (   0.0454545   0.0909091   0.4090909), wk =   0.0090158
        k(   98) = (   0.0454545   0.0909091   0.4545455), wk =   0.0090158
        k(   99) = (   0.0454545   0.0909091  -0.5000000), wk =   0.0045079
        k(  100) = (   0.0454545   0.1363636   0.1363636), wk =   0.0045079
        k(  101) = (   0.0454545   0.1363636   0.1818182), wk =   0.0090158
        k(  102) = (   0.0454545   0.1363636   0.2272727), wk =   0.0090158
        k(  103) = (   0.0454545   0.1363636   0.2727273), wk =   0.0090158
        k(  104) = (   0.0454545   0.1363636   0.3181818), wk =   0.0090158
        k(  105) = (   0.0454545   0.1363636   0.3636364), wk =   0.0090158
        k(  106) = (   0.0454545   0.1363636   0.4090909), wk =   0.0090158
        k(  107) = (   0.0454545   0.1363636   0.4545455), wk =   0.0090158
        k(  108) = (   0.0454545   0.1363636  -0.5000000), wk =   0.0045079
        k(  109) = (   0.0454545   0.1818182   0.1818182), wk =   0.0045079
        k(  110) = (   0.0454545   0.1818182   0.2272727), wk =   0.0090158
        k(  111) = (   0.0454545   0.1818182   0.2727273), wk =   0.0090158
        k(  112) = (   0.0454545   0.1818182   0.3181818), wk =   0.0090158
        k(  113) = (   0.0454545   0.1818182   0.3636364), wk =   0.0090158
        k(  114) = (   0.0454545   0.1818182   0.4090909), wk =   0.0090158
        k(  115) = (   0.0454545   0.1818182   0.4545455), wk =   0.0090158
        k(  116) = (   0.0454545   0.1818182  -0.5000000), wk =   0.0045079
        k(  117) = (   0.0454545   0.2272727   0.2272727), wk =   0.0045079
        k(  118) = (   0.0454545   0.2272727   0.2727273), wk =   0.0090158
        k(  119) = (   0.0454545   0.2272727   0.3181818), wk =   0.0090158
        k(  120) = (   0.0454545   0.2272727   0.3636364), wk =   0.0090158
        k(  121) = (   0.0454545   0.2272727   0.4090909), wk =   0.0090158
        k(  122) = (   0.0454545   0.2272727   0.4545455), wk =   0.0090158
        k(  123) = (   0.0454545   0.2272727  -0.5000000), wk =   0.0045079
        k(  124) = (   0.0454545   0.2727273   0.2727273), wk =   0.0045079
        k(  125) = (   0.0454545   0.2727273   0.3181818), wk =   0.0090158
        k(  126) = (   0.0454545   0.2727273   0.3636364), wk =   0.0090158
        k(  127) = (   0.0454545   0.2727273   0.4090909), wk =   0.0090158
        k(  128) = (   0.0454545   0.2727273   0.4545455), wk =   0.0090158
        k(  129) = (   0.0454545   0.2727273  -0.5000000), wk =   0.0045079
        k(  130) = (   0.0454545   0.3181818   0.3181818), wk =   0.0045079
        k(  131) = (   0.0454545   0.3181818   0.3636364), wk =   0.0090158
        k(  132) = (   0.0454545   0.3181818   0.4090909), wk =   0.0090158
        k(  133) = (   0.0454545   0.3181818   0.4545455), wk =   0.0090158
        k(  134) = (   0.0454545   0.3181818  -0.5000000), wk =   0.0045079
        k(  135) = (   0.0454545   0.3636364   0.3636364), wk =   0.0045079
        k(  136) = (   0.0454545   0.3636364   0.4090909), wk =   0.0090158
        k(  137) = (   0.0454545   0.3636364   0.4545455), wk =   0.0090158
        k(  138) = (   0.0454545   0.3636364  -0.5000000), wk =   0.0045079
        k(  139) = (   0.0454545   0.4090909   0.4090909), wk =   0.0045079
        k(  140) = (   0.0454545   0.4090909   0.4545455), wk =   0.0090158
        k(  141) = (   0.0454545   0.4090909  -0.5000000), wk =   0.0045079
        k(  142) = (   0.0454545   0.4545455   0.4545455), wk =   0.0045079
        k(  143) = (   0.0454545   0.4545455  -0.5000000), wk =   0.0045079
        k(  144) = (   0.0454545  -0.5000000  -0.5000000), wk =   0.0011270
        k(  145) = (   0.0909091   0.0909091   0.0909091), wk =   0.0015026
        k(  146) = (   0.0909091   0.0909091   0.1363636), wk =   0.0045079
        k(  147) = (   0.0909091   0.0909091   0.1818182), wk =   0.0045079
        k(  148) = (   0.0909091   0.0909091   0.2272727), wk =   0.0045079
        k(  149) = (   0.0909091   0.0909091   0.2727273), wk =   0.0045079
        k(  150) = (   0.0909091   0.0909091   0.3181818), wk =   0.0045079
        k(  151) = (   0.0909091   0.0909091   0.3636364), wk =   0.0045079
        k(  152) = (   0.0909091   0.0909091   0.4090909), wk =   0.0045079
        k(  153) = (   0.0909091   0.0909091   0.4545455), wk =   0.0045079
        k(  154) = (   0.0909091   0.0909091  -0.5000000), wk =   0.0022539
        k(  155) = (   0.0909091   0.1363636   0.1363636), wk =   0.0045079
        k(  156) = (   0.0909091   0.1363636   0.1818182), wk =   0.0090158
        k(  157) = (   0.0909091   0.1363636   0.2272727), wk =   0.0090158
        k(  158) = (   0.0909091   0.1363636   0.2727273), wk =   0.0090158
        k(  159) = (   0.0909091   0.1363636   0.3181818), wk =   0.0090158
        k(  160) = (   0.0909091   0.1363636   0.3636364), wk =   0.0090158
        k(  161) = (   0.0909091   0.1363636   0.4090909), wk =   0.0090158
        k(  162) = (   0.0909091   0.1363636   0.4545455), wk =   0.0090158
        k(  163) = (   0.0909091   0.1363636  -0.5000000), wk =   0.0045079
        k(  164) = (   0.0909091   0.1818182   0.1818182), wk =   0.0045079
        k(  165) = (   0.0909091   0.1818182   0.2272727), wk =   0.0090158
        k(  166) = (   0.0909091   0.1818182   0.2727273), wk =   0.0090158
        k(  167) = (   0.0909091   0.1818182   0.3181818), wk =   0.0090158
        k(  168) = (   0.0909091   0.1818182   0.3636364), wk =   0.0090158
        k(  169) = (   0.0909091   0.1818182   0.4090909), wk =   0.0090158
        k(  170) = (   0.0909091   0.1818182   0.4545455), wk =   0.0090158
        k(  171) = (   0.0909091   0.1818182  -0.5000000), wk =   0.0045079
        k(  172) = (   0.0909091   0.2272727   0.2272727), wk =   0.0045079
        k(  173) = (   0.0909091   0.2272727   0.2727273), wk =   0.0090158
        k(  174) = (   0.0909091   0.2272727   0.3181818), wk =   0.0090158
        k(  175) = (   0.0909091   0.2272727   0.3636364), wk =   0.0090158
        k(  176) = (   0.0909091   0.2272727   0.4090909), wk =   0.0090158
        k(  177) = (   0.0909091   0.2272727   0.4545455), wk =   0.0090158
        k(  178) = (   0.0909091   0.2272727  -0.5000000), wk =   0.0045079
        k(  179) = (   0.0909091   0.2727273   0.2727273), wk =   0.0045079
        k(  180) = (   0.0909091   0.2727273   0.3181818), wk =   0.0090158
        k(  181) = (   0.0909091   0.2727273   0.3636364), wk =   0.0090158
        k(  182) = (   0.0909091   0.2727273   0.4090909), wk =   0.0090158
        k(  183) = (   0.0909091   0.2727273   0.4545455), wk =   0.0090158
        k(  184) = (   0.0909091   0.2727273  -0.5000000), wk =   0.0045079
        k(  185) = (   0.0909091   0.3181818   0.3181818), wk =   0.0045079
        k(  186) = (   0.0909091   0.3181818   0.3636364), wk =   0.0090158
        k(  187) = (   0.0909091   0.3181818   0.4090909), wk =   0.0090158
        k(  188) = (   0.0909091   0.3181818   0.4545455), wk =   0.0090158
        k(  189) = (   0.0909091   0.3181818  -0.5000000), wk =   0.0045079
        k(  190) = (   0.0909091   0.3636364   0.3636364), wk =   0.0045079
        k(  191) = (   0.0909091   0.3636364   0.4090909), wk =   0.0090158
        k(  192) = (   0.0909091   0.3636364   0.4545455), wk =   0.0090158
        k(  193) = (   0.0909091   0.3636364  -0.5000000), wk =   0.0045079
        k(  194) = (   0.0909091   0.4090909   0.4090909), wk =   0.0045079
        k(  195) = (   0.0909091   0.4090909   0.4545455), wk =   0.0090158
        k(  196) = (   0.0909091   0.4090909  -0.5000000), wk =   0.0045079
        k(  197) = (   0.0909091   0.4545455   0.4545455), wk =   0.0045079
        k(  198) = (   0.0909091   0.4545455  -0.5000000), wk =   0.0045079
        k(  199) = (   0.0909091  -0.5000000  -0.5000000), wk =   0.0011270
        k(  200) = (   0.1363636   0.1363636   0.1363636), wk =   0.0015026
        k(  201) = (   0.1363636   0.1363636   0.1818182), wk =   0.0045079
        k(  202) = (   0.1363636   0.1363636   0.2272727), wk =   0.0045079
        k(  203) = (   0.1363636   0.1363636   0.2727273), wk =   0.0045079
        k(  204) = (   0.1363636   0.1363636   0.3181818), wk =   0.0045079
        k(  205) = (   0.1363636   0.1363636   0.3636364), wk =   0.0045079
        k(  206) = (   0.1363636   0.1363636   0.4090909), wk =   0.0045079
        k(  207) = (   0.1363636   0.1363636   0.4545455), wk =   0.0045079
        k(  208) = (   0.1363636   0.1363636  -0.5000000), wk =   0.0022539
        k(  209) = (   0.1363636   0.1818182   0.1818182), wk =   0.0045079
        k(  210) = (   0.1363636   0.1818182   0.2272727), wk =   0.0090158
        k(  211) = (   0.1363636   0.1818182   0.2727273), wk =   0.0090158
        k(  212) = (   0.1363636   0.1818182   0.3181818), wk =   0.0090158
        k(  213) = (   0.1363636   0.1818182   0.3636364), wk =   0.0090158
        k(  214) = (   0.1363636   0.1818182   0.4090909), wk =   0.0090158
        k(  215) = (   0.1363636   0.1818182   0.4545455), wk =   0.0090158
        k(  216) = (   0.1363636   0.1818182  -0.5000000), wk =   0.0045079
        k(  217) = (   0.1363636   0.2272727   0.2272727), wk =   0.0045079
        k(  218) = (   0.1363636   0.2272727   0.2727273), wk =   0.0090158
        k(  219) = (   0.1363636   0.2272727   0.3181818), wk =   0.0090158
        k(  220) = (   0.1363636   0.2272727   0.3636364), wk =   0.0090158
        k(  221) = (   0.1363636   0.2272727   0.4090909), wk =   0.0090158
        k(  222) = (   0.1363636   0.2272727   0.4545455), wk =   0.0090158
        k(  223) = (   0.1363636   0.2272727  -0.5000000), wk =   0.0045079
        k(  224) = (   0.1363636   0.2727273   0.2727273), wk =   0.0045079
        k(  225) = (   0.1363636   0.2727273   0.3181818), wk =   0.0090158
        k(  226) = (   0.1363636   0.2727273   0.3636364), wk =   0.0090158
        k(  227) = (   0.1363636   0.2727273   0.4090909), wk =   0.0090158
        k(  228) = (   0.1363636   0.2727273   0.4545455), wk =   0.0090158
        k(  229) = (   0.1363636   0.2727273  -0.5000000), wk =   0.0045079
        k(  230) = (   0.1363636   0.3181818   0.3181818), wk =   0.0045079
        k(  231) = (   0.1363636   0.3181818   0.3636364), wk =   0.0090158
        k(  232) = (   0.1363636   0.3181818   0.4090909), wk =   0.0090158
        k(  233) = (   0.1363636   0.3181818   0.4545455), wk =   0.0090158
        k(  234) = (   0.1363636   0.3181818  -0.5000000), wk =   0.0045079
        k(  235) = (   0.1363636   0.3636364   0.3636364), wk =   0.0045079
        k(  236) = (   0.1363636   0.3636364   0.4090909), wk =   0.0090158
        k(  237) = (   0.1363636   0.3636364   0.4545455), wk =   0.0090158
        k(  238) = (   0.1363636   0.3636364  -0.5000000), wk =   0.0045079
        k(  239) = (   0.1363636   0.4090909   0.4090909), wk =   0.0045079
        k(  240) = (   0.1363636   0.4090909   0.4545455), wk =   0.0090158
        k(  241) = (   0.1363636   0.4090909  -0.5000000), wk =   0.0045079
        k(  242) = (   0.1363636   0.4545455   0.4545455), wk =   0.0045079
        k(  243) = (   0.1363636   0.4545455  -0.5000000), wk =   0.0045079
        k(  244) = (   0.1363636  -0.5000000  -0.5000000), wk =   0.0011270
        k(  245) = (   0.1818182   0.1818182   0.1818182), wk =   0.0015026
        k(  246) = (   0.1818182   0.1818182   0.2272727), wk =   0.0045079
        k(  247) = (   0.1818182   0.1818182   0.2727273), wk =   0.0045079
        k(  248) = (   0.1818182   0.1818182   0.3181818), wk =   0.0045079
        k(  249) = (   0.1818182   0.1818182   0.3636364), wk =   0.0045079
        k(  250) = (   0.1818182   0.1818182   0.4090909), wk =   0.0045079
        k(  251) = (   0.1818182   0.1818182   0.4545455), wk =   0.0045079
        k(  252) = (   0.1818182   0.1818182  -0.5000000), wk =   0.0022539
        k(  253) = (   0.1818182   0.2272727   0.2272727), wk =   0.0045079
        k(  254) = (   0.1818182   0.2272727   0.2727273), wk =   0.0090158
        k(  255) = (   0.1818182   0.2272727   0.3181818), wk =   0.0090158
        k(  256) = (   0.1818182   0.2272727   0.3636364), wk =   0.0090158
        k(  257) = (   0.1818182   0.2272727   0.4090909), wk =   0.0090158
        k(  258) = (   0.1818182   0.2272727   0.4545455), wk =   0.0090158
        k(  259) = (   0.1818182   0.2272727  -0.5000000), wk =   0.0045079
        k(  260) = (   0.1818182   0.2727273   0.2727273), wk =   0.0045079
        k(  261) = (   0.1818182   0.2727273   0.3181818), wk =   0.0090158
        k(  262) = (   0.1818182   0.2727273   0.3636364), wk =   0.0090158
        k(  263) = (   0.1818182   0.2727273   0.4090909), wk =   0.0090158
        k(  264) = (   0.1818182   0.2727273   0.4545455), wk =   0.0090158
        k(  265) = (   0.1818182   0.2727273  -0.5000000), wk =   0.0045079
        k(  266) = (   0.1818182   0.3181818   0.3181818), wk =   0.0045079
        k(  267) = (   0.1818182   0.3181818   0.3636364), wk =   0.0090158
        k(  268) = (   0.1818182   0.3181818   0.4090909), wk =   0.0090158
        k(  269) = (   0.1818182   0.3181818   0.4545455), wk =   0.0090158
        k(  270) = (   0.1818182   0.3181818  -0.5000000), wk =   0.0045079
        k(  271) = (   0.1818182   0.3636364   0.3636364), wk =   0.0045079
        k(  272) = (   0.1818182   0.3636364   0.4090909), wk =   0.0090158
        k(  273) = (   0.1818182   0.3636364   0.4545455), wk =   0.0090158
        k(  274) = (   0.1818182   0.3636364  -0.5000000), wk =   0.0045079
        k(  275) = (   0.1818182   0.4090909   0.4090909), wk =   0.0045079
        k(  276) = (   0.1818182   0.4090909   0.4545455), wk =   0.0090158
        k(  277) = (   0.1818182   0.4090909  -0.5000000), wk =   0.0045079
        k(  278) = (   0.1818182   0.4545455   0.4545455), wk =   0.0045079
        k(  279) = (   0.1818182   0.4545455  -0.5000000), wk =   0.0045079
        k(  280) = (   0.1818182  -0.5000000  -0.5000000), wk =   0.0011270
        k(  281) = (   0.2272727   0.2272727   0.2272727), wk =   0.0015026
        k(  282) = (   0.2272727   0.2272727   0.2727273), wk =   0.0045079
        k(  283) = (   0.2272727   0.2272727   0.3181818), wk =   0.0045079
        k(  284) = (   0.2272727   0.2272727   0.3636364), wk =   0.0045079
        k(  285) = (   0.2272727   0.2272727   0.4090909), wk =   0.0045079
        k(  286) = (   0.2272727   0.2272727   0.4545455), wk =   0.0045079
        k(  287) = (   0.2272727   0.2272727  -0.5000000), wk =   0.0022539
        k(  288) = (   0.2272727   0.2727273   0.2727273), wk =   0.0045079
        k(  289) = (   0.2272727   0.2727273   0.3181818), wk =   0.0090158
        k(  290) = (   0.2272727   0.2727273   0.3636364), wk =   0.0090158
        k(  291) = (   0.2272727   0.2727273   0.4090909), wk =   0.0090158
        k(  292) = (   0.2272727   0.2727273   0.4545455), wk =   0.0090158
        k(  293) = (   0.2272727   0.2727273  -0.5000000), wk =   0.0045079
        k(  294) = (   0.2272727   0.3181818   0.3181818), wk =   0.0045079
        k(  295) = (   0.2272727   0.3181818   0.3636364), wk =   0.0090158
        k(  296) = (   0.2272727   0.3181818   0.4090909), wk =   0.0090158
        k(  297) = (   0.2272727   0.3181818   0.4545455), wk =   0.0090158
        k(  298) = (   0.2272727   0.3181818  -0.5000000), wk =   0.0045079
        k(  299) = (   0.2272727   0.3636364   0.3636364), wk =   0.0045079
        k(  300) = (   0.2272727   0.3636364   0.4090909), wk =   0.0090158
        k(  301) = (   0.2272727   0.3636364   0.4545455), wk =   0.0090158
        k(  302) = (   0.2272727   0.3636364  -0.5000000), wk =   0.0045079
        k(  303) = (   0.2272727   0.4090909   0.4090909), wk =   0.0045079
        k(  304) = (   0.2272727   0.4090909   0.4545455), wk =   0.0090158
        k(  305) = (   0.2272727   0.4090909  -0.5000000), wk =   0.0045079
        k(  306) = (   0.2272727   0.4545455   0.4545455), wk =   0.0045079
        k(  307) = (   0.2272727   0.4545455  -0.5000000), wk =   0.0045079
        k(  308) = (   0.2272727  -0.5000000  -0.5000000), wk =   0.0011270
        k(  309) = (   0.2727273   0.2727273   0.2727273), wk =   0.0015026
        k(  310) = (   0.2727273   0.2727273   0.3181818), wk =   0.0045079
        k(  311) = (   0.2727273   0.2727273   0.3636364), wk =   0.0045079
        k(  312) = (   0.2727273   0.2727273   0.4090909), wk =   0.0045079
        k(  313) = (   0.2727273   0.2727273   0.4545455), wk =   0.0045079
        k(  314) = (   0.2727273   0.2727273  -0.5000000), wk =   0.0022539
        k(  315) = (   0.2727273   0.3181818   0.3181818), wk =   0.0045079
        k(  316) = (   0.2727273   0.3181818   0.3636364), wk =   0.0090158
        k(  317) = (   0.2727273   0.3181818   0.4090909), wk =   0.0090158
        k(  318) = (   0.2727273   0.3181818   0.4545455), wk =   0.0090158
        k(  319) = (   0.2727273   0.3181818  -0.5000000), wk =   0.0045079
        k(  320) = (   0.2727273   0.3636364   0.3636364), wk =   0.0045079
        k(  321) = (   0.2727273   0.3636364   0.4090909), wk =   0.0090158
        k(  322) = (   0.2727273   0.3636364   0.4545455), wk =   0.0090158
        k(  323) = (   0.2727273   0.3636364  -0.5000000), wk =   0.0045079
        k(  324) = (   0.2727273   0.4090909   0.4090909), wk =   0.0045079
        k(  325) = (   0.2727273   0.4090909   0.4545455), wk =   0.0090158
        k(  326) = (   0.2727273   0.4090909  -0.5000000), wk =   0.0045079
        k(  327) = (   0.2727273   0.4545455   0.4545455), wk =   0.0045079
        k(  328) = (   0.2727273   0.4545455  -0.5000000), wk =   0.0045079
        k(  329) = (   0.2727273  -0.5000000  -0.5000000), wk =   0.0011270
        k(  330) = (   0.3181818   0.3181818   0.3181818), wk =   0.0015026
        k(  331) = (   0.3181818   0.3181818   0.3636364), wk =   0.0045079
        k(  332) = (   0.3181818   0.3181818   0.4090909), wk =   0.0045079
        k(  333) = (   0.3181818   0.3181818   0.4545455), wk =   0.0045079
        k(  334) = (   0.3181818   0.3181818  -0.5000000), wk =   0.0022539
        k(  335) = (   0.3181818   0.3636364   0.3636364), wk =   0.0045079
        k(  336) = (   0.3181818   0.3636364   0.4090909), wk =   0.0090158
        k(  337) = (   0.3181818   0.3636364   0.4545455), wk =   0.0090158
        k(  338) = (   0.3181818   0.3636364  -0.5000000), wk =   0.0045079
        k(  339) = (   0.3181818   0.4090909   0.4090909), wk =   0.0045079
        k(  340) = (   0.3181818   0.4090909   0.4545455), wk =   0.0090158
        k(  341) = (   0.3181818   0.4090909  -0.5000000), wk =   0.0045079
        k(  342) = (   0.3181818   0.4545455   0.4545455), wk =   0.0045079
        k(  343) = (   0.3181818   0.4545455  -0.5000000), wk =   0.0045079
        k(  344) = (   0.3181818  -0.5000000  -0.5000000), wk =   0.0011270
        k(  345) = (   0.3636364   0.3636364   0.3636364), wk =   0.0015026
        k(  346) = (   0.3636364   0.3636364   0.4090909), wk =   0.0045079
        k(  347) = (   0.3636364   0.3636364   0.4545455), wk =   0.0045079
        k(  348) = (   0.3636364   0.3636364  -0.5000000), wk =   0.0022539
        k(  349) = (   0.3636364   0.4090909   0.4090909), wk =   0.0045079
[...]
     1.0000   1.0000   1.0000   1.0000   0.0000   0.0000   0.0000   0.0000

          k = 0.3182 0.3636 0.3636 (  3809 PWs)   bands (ev):

   -53.1883 -29.6618 -29.2860 -29.2859 -29.2852 -11.6413 -11.6032 -11.5869
   -10.6705 -10.6171 -10.6064   1.5906   2.1895   2.2651   2.4564   2.6438
     2.6680   4.4889   4.5056   4.6698   6.7394   6.7713   6.8081   8.4428

     occupation numbers 
     1.0000   1.0000   1.0000   1.0000   1.0000   1.0000   1.0000   1.0000
     1.0000   1.0000   1.0000   1.0000   1.0000   1.0000   1.0000   1.0000
     1.0000   1.0000   1.0000   1.0000   0.0000   0.0000   0.0000   0.0000

          k = 0.3182 0.3636 0.4091 (  3809 PWs)   bands (ev):

   -53.1882 -29.6616 -29.2865 -29.2859 -29.2852 -11.6358 -11.6070 -11.5823
   -10.6674 -10.6203 -10.6031   1.5378   2.1554   2.2657   2.4169   2.5990
     2.6597   4.5119   4.5379   4.6938   6.7596   6.8034   6.8479   8.4568

     occupation numbers 
     1.0000   1.0000   1.0000   1.0000   1.0000   1.0000   1.0000   1.0000
     1.0000   1.0000   1.0000   1.0000   1.0000   1.0000   1.0000   1.0000
     1.0000   1.0000   1.0000   1.0000   0.0000   0.0000   0.0000   0.0000

          k = 0.3182 0.3636 0.4545 (  3809 PWs)   bands (ev):

   -53.1882 -29.6615 -29.2869 -29.2859 -29.2852 -11.6329 -11.6095 -11.5788
   -10.6669 -10.6229 -10.5989   1.5008   2.1366   2.2686   2.3891   2.5666
     2.6637   4.5229   4.5577   4.7095   6.7660   6.8306   6.8749   8.4585

     occupation numbers 
     1.0000   1.0000   1.0000   1.0000   1.0000   1.0000   1.0000   1.0000
     1.0000   1.0000   1.0000   1.0000   1.0000   1.0000   1.0000   1.0000
     1.0000   1.0000   1.0000   1.0000   0.0000   0.0000   0.0000   0.0000

          k = 0.3182 0.3636-0.5000 (  3812 PWs)   bands (ev):

   -53.1882 -29.6615 -29.2870 -29.2859 -29.2852 -11.6321 -11.6102 -11.5775
   -10.6669 -10.6239 -10.5971   1.4875   2.1309   2.2699   2.3794   2.5554
     2.6657   4.5262   4.5642   4.7149   6.7678   6.8405   6.8845   8.4585

     occupation numbers 
     1.0000   1.0000   1.0000   1.0000   1.0000   1.0000   1.0000   1.0000
     1.0000   1.0000   1.0000   1.0000   1.0000   1.0000   1.0000   1.0000
     1.0000   1.0000   1.0000   1.0000   0.0000   0.0000   0.0000   0.0000

          k = 0.3182 0.4091 0.4091 (  3803 PWs)   bands (ev):

   -53.1882 -29.6615 -29.2865 -29.2865 -29.2852 -11.6284 -11.6094 -11.5799
   -10.6690 -10.6150 -10.6050   1.4883   2.1189   2.2620   2.3822   2.5940
     2.6116   4.5460   4.5628   4.7248   6.8003   6.8159   6.8833   8.4926

     occupation numbers 
     1.0000   1.0000   1.0000   1.0000   1.0000   1.0000   1.0000   1.0000
     1.0000   1.0000   1.0000   1.0000   1.0000   1.0000   1.0000   1.0000
     1.0000   1.0000   1.0000   1.0000   0.0000   0.0000   0.0000   0.0000

          k = 0.3182 0.4091 0.4545 (  3806 PWs)   bands (ev):

   -53.1882 -29.6614 -29.2869 -29.2865 -29.2851 -11.6241 -11.6114 -11.5775
   -10.6716 -10.6138 -10.6025   1.4533   2.0976   2.2633   2.3570   2.5685
     2.6094   4.5618   4.5794   4.7458   6.8116   6.8387   6.9079   8.5034

     occupation numbers 
     1.0000   1.0000   1.0000   1.0000   1.0000   1.0000   1.0000   1.0000
     1.0000   1.0000   1.0000   1.0000   1.0000   1.0000   1.0000   1.0000
     1.0000   1.0000   1.0000   1.0000   0.0000   0.0000   0.0000   0.0000

          k = 0.3182 0.4091-0.5000 (  3814 PWs)   bands (ev):

   -53.1882 -29.6613 -29.2870 -29.2865 -29.2851 -11.6227 -11.6120 -11.5765
   -10.6728 -10.6141 -10.6008   1.4407   2.0908   2.2642   2.3481   2.5576
     2.6114   4.5661   4.5855   4.7530   6.8136   6.8486   6.9166   8.5058

     occupation numbers 
     1.0000   1.0000   1.0000   1.0000   1.0000   1.0000   1.0000   1.0000
     1.0000   1.0000   1.0000   1.0000   1.0000   1.0000   1.0000   1.0000
     1.0000   1.0000   1.0000   1.0000   0.0000   0.0000   0.0000   0.0000

          k = 0.3182 0.4545 0.4545 (  3812 PWs)   bands (ev):

   -53.1882 -29.6613 -29.2869 -29.2869 -29.2851 -11.6185 -11.6133 -11.5758
   -10.6761 -10.6073 -10.6042   1.4197   2.0743   2.2639   2.3332   2.5728
     2.5780   4.5842   4.5901   4.7704   6.8402   6.8444   6.9309   8.5192

     occupation numbers 
     1.0000   1.0000   1.0000   1.0000   1.0000   1.0000   1.0000   1.0000
     1.0000   1.0000   1.0000   1.0000   1.0000   1.0000   1.0000   1.0000
     1.0000   1.0000   1.0000   1.0000   0.0000   0.0000   0.0000   0.0000

          k = 0.3182 0.4545-0.5000 (  3808 PWs)   bands (ev):

   -53.1882 -29.6612 -29.2870 -29.2869 -29.2851 -11.6167 -11.6139 -11.5752
   -10.6778 -10.6066 -10.6031   1.4076   2.0668   2.2645   2.3247   2.5641
     2.5781   4.5899   4.5951   4.7790   6.8437   6.8528   6.9391   8.5230

     occupation numbers 
     1.0000   1.0000   1.0000   1.0000   1.0000   1.0000   1.0000   1.0000
     1.0000   1.0000   1.0000   1.0000   1.0000   1.0000   1.0000   1.0000
     1.0000   1.0000   1.0000   1.0000   0.0000   0.0000   0.0000   0.0000

          k = 0.3182-0.5000-0.5000 (  3804 PWs)   bands (ev):

   -53.1882 -29.6612 -29.2870 -29.2870 -29.2851 -11.6146 -11.6146 -11.5746
   -10.6796 -10.6039 -10.6039   1.3957   2.0591   2.2651   2.3164   2.5669
     2.5669   4.5979   4.5979   4.7880   6.8542   6.8542   6.9472   8.5273

     occupation numbers 
     1.0000   1.0000   1.0000   1.0000   1.0000   1.0000   1.0000   1.0000
     1.0000   1.0000   1.0000   1.0000   1.0000   1.0000   1.0000   1.0000
     1.0000   1.0000   1.0000   1.0000   0.0000   0.0000   0.0000   0.0000

          k = 0.3636 0.3636 0.3636 (  3803 PWs)   bands (ev):

   -53.1882 -29.6616 -29.2859 -29.2859 -29.2859 -11.6329 -11.5945 -11.5945
   -10.6597 -10.6162 -10.6162   1.5372   2.1936   2.1936   2.4502   2.5984
     2.5984   4.5521   4.5521   4.6910   6.7846   6.8203   6.8203   8.6402

     occupation numbers 
     1.0000   1.0000   1.0000   1.0000   1.0000   1.0000   1.0000   1.0000
     1.0000   1.0000   1.0000   1.0000   1.0000   1.0000   1.0000   1.0000
     1.0000   1.0000   1.0000   1.0000   0.0000   0.0000   0.0000   0.0000

          k = 0.3636 0.3636 0.4091 (  3814 PWs)   bands (ev):

   -53.1882 -29.6614 -29.2865 -29.2859 -29.2859 -11.6264 -11.6003 -11.5875
   -10.6552 -10.6239 -10.6115   1.4872   2.1487   2.1974   2.4249   2.5472
     2.5891   4.5783   4.5968   4.7123   6.8086   6.8434   6.8612   8.6350

     occupation numbers 
     1.0000   1.0000   1.0000   1.0000   1.0000   1.0000   1.0000   1.0000
     1.0000   1.0000   1.0000   1.0000   1.0000   1.0000   1.0000   1.0000
     1.0000   1.0000   1.0000   1.0000   0.0000   0.0000   0.0000   0.0000

          k = 0.3636 0.3636 0.4545 (  3823 PWs)   bands (ev):

   -53.1882 -29.6613 -29.2869 -29.2859 -29.2859 -11.6223 -11.6039 -11.5831
   -10.6542 -10.6289 -10.6066   1.4520   2.1250   2.2001   2.4021   2.5158
     2.5920   4.5912   4.6233   4.7277   6.8162   6.8669   6.8885   8.6313

     occupation numbers 
     1.0000   1.0000   1.0000   1.0000   1.0000   1.0000   1.0000   1.0000
     1.0000   1.0000   1.0000   1.0000   1.0000   1.0000   1.0000   1.0000
     1.0000   1.0000   1.0000   1.0000   0.0000   0.0000   0.0000   0.0000

          k = 0.3636 0.3636-0.5000 (  3822 PWs)   bands (ev):

   -53.1882 -29.6613 -29.2870 -29.2859 -29.2859 -11.6209 -11.6051 -11.5816
   -10.6542 -10.6306 -10.6046   1.4393   2.1178   2.2012   2.3936   2.5052
     2.5940   4.5951   4.6321   4.7332   6.8181   6.8758   6.8980   8.6300

     occupation numbers 
     1.0000   1.0000   1.0000   1.0000   1.0000   1.0000   1.0000   1.0000
     1.0000   1.0000   1.0000   1.0000   1.0000   1.0000   1.0000   1.0000
     1.0000   1.0000   1.0000   1.0000   0.0000   0.0000   0.0000   0.0000

          k = 0.3636 0.4091 0.4091 (  3810 PWs)   bands (ev):

   -53.1882 -29.6613 -29.2865 -29.2865 -29.2859 -11.6189 -11.5998 -11.5868
   -10.6522 -10.6225 -10.6159   1.4399   2.1212   2.1778   2.4093   2.5278
     2.5438   4.6221   4.6332   4.7349   6.8456   6.8614   6.8912   8.7039

     occupation numbers 
     1.0000   1.0000   1.0000   1.0000   1.0000   1.0000   1.0000   1.0000
     1.0000   1.0000   1.0000   1.0000   1.0000   1.0000   1.0000   1.0000
     1.0000   1.0000   1.0000   1.0000   0.0000   0.0000   0.0000   0.0000

          k = 0.3636 0.4091 0.4545 (  3813 PWs)   bands (ev):

   -53.1882 -29.6612 -29.2868 -29.2865 -29.2859 -11.6139 -11.6023 -11.5836
   -10.6538 -10.6243 -10.6126   1.4063   2.0980   2.1762   2.3896   2.5029
     2.5404   4.6402   4.6583   4.7533   6.8576   6.8814   6.9156   8.7150

     occupation numbers 
     1.0000   1.0000   1.0000   1.0000   1.0000   1.0000   1.0000   1.0000
     1.0000   1.0000   1.0000   1.0000   1.0000   1.0000   1.0000   1.0000
     1.0000   1.0000   1.0000   1.0000   0.0000   0.0000   0.0000   0.0000

          k = 0.3636 0.4091-0.5000 (  3818 PWs)   bands (ev):

   -53.1882 -29.6611 -29.2870 -29.2865 -29.2859 -11.6121 -11.6035 -11.5823
   -10.6547 -10.6255 -10.6106   1.3943   2.0903   2.1763   2.3818   2.4928
     2.5423   4.6447   4.6673   4.7602   6.8597   6.8903   6.9243   8.7165

     occupation numbers 
     1.0000   1.0000   1.0000   1.0000   1.0000   1.0000   1.0000   1.0000
     1.0000   1.0000   1.0000   1.0000   1.0000   1.0000   1.0000   1.0000
     1.0000   1.0000   1.0000   1.0000   0.0000   0.0000   0.0000   0.0000

          k = 0.3636 0.4545 0.4545 (  3810 PWs)   bands (ev):

   -53.1882 -29.6611 -29.2868 -29.2868 -29.2859 -11.6085 -11.6032 -11.5820
   -10.6574 -10.6183 -10.6158   1.3740   2.0756   2.1714   2.3709   2.5049
     2.5113   4.6684   4.6738   4.7755   6.8837   6.8878   6.9382   8.7397

     occupation numbers 
     1.0000   1.0000   1.0000   1.0000   1.0000   1.0000   1.0000   1.0000
     1.0000   1.0000   1.0000   1.0000   1.0000   1.0000   1.0000   1.0000
     1.0000   1.0000   1.0000   1.0000   0.0000   0.0000   0.0000   0.0000

          k = 0.3636 0.4545-0.5000 (  3812 PWs)   bands (ev):

   -53.1882 -29.6610 -29.2870 -29.2868 -29.2859 -11.6064 -11.6040 -11.5812
   -10.6590 -10.6184 -10.6144   1.3623   2.0678   2.1707   2.3633   2.4974
     2.5110   4.6747   4.6811   4.7838   6.8873   6.8954   6.9464   8.7447

     occupation numbers 
     1.0000   1.0000   1.0000   1.0000   1.0000   1.0000   1.0000   1.0000
     1.0000   1.0000   1.0000   1.0000   1.0000   1.0000   1.0000   1.0000
     1.0000   1.0000   1.0000   1.0000   0.0000   0.0000   0.0000   0.0000

          k = 0.3636-0.5000-0.5000 (  3812 PWs)   bands (ev):

   -53.1882 -29.6610 -29.2870 -29.2870 -29.2859 -11.6044 -11.6044 -11.5806
   -10.6607 -10.6157 -10.6157   1.3508   2.0600   2.1698   2.3559   2.5004
     2.5004   4.6847   4.6847   4.7927   6.8969   6.8969   6.9544   8.7509

     occupation numbers 
     1.0000   1.0000   1.0000   1.0000   1.0000   1.0000   1.0000   1.0000
     1.0000   1.0000   1.0000   1.0000   1.0000   1.0000   1.0000   1.0000
     1.0000   1.0000   1.0000   1.0000   0.0000   0.0000   0.0000   0.0000

          k = 0.4091 0.4091 0.4091 (  3819 PWs)   bands (ev):

   -53.1882 -29.6611 -29.2865 -29.2865 -29.2865 -11.6112 -11.5923 -11.5923
   -10.6430 -10.6245 -10.6245   1.3946   2.1232   2.1232   2.4172   2.4944
     2.4944   4.6770   4.6770   4.7492   6.8814   6.8994   6.8994   8.8672

     occupation numbers 
     1.0000   1.0000   1.0000   1.0000   1.0000   1.0000   1.0000   1.0000
     1.0000   1.0000   1.0000   1.0000   1.0000   1.0000   1.0000   1.0000
     1.0000   1.0000   1.0000   1.0000   0.0000   0.0000   0.0000   0.0000

          k = 0.4091 0.4091 0.4545 (  3819 PWs)   bands (ev):

   -53.1882 -29.6610 -29.2868 -29.2865 -29.2865 -11.6059 -11.5961 -11.5874
   -10.6425 -10.6301 -10.6206   1.3625   2.0934   2.1246   2.4065   2.4643
     2.4908   4.6968   4.7101   4.7645   6.8957   6.9142   6.9248   8.8644

     occupation numbers 
     1.0000   1.0000   1.0000   1.0000   1.0000   1.0000   1.0000   1.0000
     1.0000   1.0000   1.0000   1.0000   1.0000   1.0000   1.0000   1.0000
     1.0000   1.0000   1.0000   1.0000   0.0000   0.0000   0.0000   0.0000

          k = 0.4091 0.4091-0.5000 (  3812 PWs)   bands (ev):

   -53.1882 -29.6610 -29.2870 -29.2865 -29.2864 -11.6036 -11.5979 -11.5857
   -10.6432 -10.6320 -10.6183   1.3509   2.0840   2.1251   2.4001   2.4541
     2.4925   4.7019   4.7211   4.7710   6.8981   6.9220   6.9337   8.8634

     occupation numbers 
     1.0000   1.0000   1.0000   1.0000   1.0000   1.0000   1.0000   1.0000
     1.0000   1.0000   1.0000   1.0000   1.0000   1.0000   1.0000   1.0000
     1.0000   1.0000   1.0000   1.0000   0.0000   0.0000   0.0000   0.0000

          k = 0.4091 0.4545 0.4545 (  3828 PWs)   bands (ev):

   -53.1882 -29.6609 -29.2868 -29.2868 -29.2864 -11.6005 -11.5953 -11.5869
   -10.6429 -10.6270 -10.6249   1.3314   2.0766   2.1108   2.3996   2.4568
     2.4628   4.7296   4.7338   4.7801   6.9199   6.9241   6.9440   8.9136

     occupation numbers 
     1.0000   1.0000   1.0000   1.0000   1.0000   1.0000   1.0000   1.0000
     1.0000   1.0000   1.0000   1.0000   1.0000   1.0000   1.0000   1.0000
     1.0000   1.0000   1.0000   1.0000   0.0000   0.0000   0.0000   0.0000

          k = 0.4091 0.4545-0.5000 (  3826 PWs)   bands (ev):

   -53.1882 -29.6609 -29.2869 -29.2868 -29.2864 -11.5982 -11.5962 -11.5858
   -10.6443 -10.6278 -10.6233   1.3202   2.0684   2.1094   2.3933   2.4495
     2.4624   4.7365   4.7434   4.7879   6.9237   6.9310   6.9521   8.9194

     occupation numbers 
     1.0000   1.0000   1.0000   1.0000   1.0000   1.0000   1.0000   1.0000
     1.0000   1.0000   1.0000   1.0000   1.0000   1.0000   1.0000   1.0000
     1.0000   1.0000   1.0000   1.0000   0.0000   0.0000   0.0000   0.0000

          k = 0.4091-0.5000-0.5000 (  3836 PWs)   bands (ev):

   -53.1882 -29.6608 -29.2869 -29.2869 -29.2864 -11.5963 -11.5963 -11.5853
   -10.6459 -10.6251 -10.6251   1.3091   2.0607   2.1071   2.3868   2.4523
     2.4523   4.7480   4.7480   4.7963   6.9326   6.9326   6.9600   8.9288

     occupation numbers 
     1.0000   1.0000   1.0000   1.0000   1.0000   1.0000   1.0000   1.0000
     1.0000   1.0000   1.0000   1.0000   1.0000   1.0000   1.0000   1.0000
     1.0000   1.0000   1.0000   1.0000   0.0000   0.0000   0.0000   0.0000

          k = 0.4545 0.4545 0.4545 (  3849 PWs)   bands (ev):

   -53.1882 -29.6608 -29.2868 -29.2868 -29.2868 -11.5951 -11.5901 -11.5901
   -10.6353 -10.6308 -10.6308   1.3012   2.0773   2.0773   2.4123   2.4334
     2.4334   4.7667   4.7667   4.7866   6.9435   6.9484   6.9484   9.0268

     occupation numbers 
     1.0000   1.0000   1.0000   1.0000   1.0000   1.0000   1.0000   1.0000
     1.0000   1.0000   1.0000   1.0000   1.0000   1.0000   1.0000   1.0000
     1.0000   1.0000   1.0000   1.0000   0.0000   0.0000   0.0000   0.0000

          k = 0.4545 0.4545-0.5000 (  3852 PWs)   bands (ev):

   -53.1882 -29.6608 -29.2869 -29.2868 -29.2868 -11.5929 -11.5917 -11.5883
   -10.6358 -10.6329 -10.6291   1.2903   2.0667   2.0775   2.4093   2.4236
     2.4330   4.7740   4.7791   4.7925   6.9480   6.9537   6.9569   9.0264

     occupation numbers 
     1.0000   1.0000   1.0000   1.0000   1.0000   1.0000   1.0000   1.0000
     1.0000   1.0000   1.0000   1.0000   1.0000   1.0000   1.0000   1.0000
     1.0000   1.0000   1.0000   1.0000   0.0000   0.0000   0.0000   0.0000

          k = 0.4545-0.5000-0.5000 (  3852 PWs)   bands (ev):

   -53.1882 -29.6607 -29.2869 -29.2869 -29.2868 -11.5910 -11.5910 -11.5882
   -10.6364 -10.6311 -10.6311   1.2795   2.0612   2.0724   2.4066   2.4231
     2.4231   4.7865   4.7865   4.7987   6.9565   6.9565   6.9637   9.0459

     occupation numbers 
     1.0000   1.0000   1.0000   1.0000   1.0000   1.0000   1.0000   1.0000
     1.0000   1.0000   1.0000   1.0000   1.0000   1.0000   1.0000   1.0000
     1.0000   1.0000   1.0000   1.0000   0.0000   0.0000   0.0000   0.0000

          k =-0.5000-0.5000-0.5000 (  3840 PWs)   bands (ev):

   -53.1882 -29.6607 -29.2869 -29.2869 -29.2869 -11.5892 -11.5892 -11.5892
   -10.6332 -10.6332 -10.6332   1.2688   2.0614   2.0614   2.4134   2.4134
     2.4134   4.7995   4.7995   4.7995   6.9649   6.9649   6.9649   9.0873

     occupation numbers 
     1.0000   1.0000   1.0000   1.0000   1.0000   1.0000   1.0000   1.0000
     1.0000   1.0000   1.0000   1.0000   1.0000   1.0000   1.0000   1.0000
     1.0000   1.0000   1.0000   1.0000   0.0000   0.0000   0.0000   0.0000

     the Fermi energy is     5.2189 ev

!    total energy              =    -286.69135759 Ry
     Harris-Foulkes estimate   =    -286.69135759 Ry
     estimated scf accuracy    <          6.1E-09 Ry

     The total energy is the sum of the following terms:

     one-electron contribution =    -122.11990061 Ry
     hartree contribution      =      74.82894152 Ry
     xc contribution           =     -57.37093091 Ry
     ewald contribution        =    -182.02946758 Ry
     smearing contrib. (-TS)   =       0.00000000 Ry

     convergence has been achieved in  13 iterations
 
     init_run     :      3.05s CPU      3.33s WALL (       1 calls)
     electrons    :    120.44s CPU    131.21s WALL (       1 calls)

     Called by init_run:
     wfcinit      :      2.93s CPU      3.16s WALL (       1 calls)
     wfcinit:atom :      0.03s CPU      0.03s WALL (     364 calls)
     wfcinit:wfcr :      2.76s CPU      2.98s WALL (     364 calls)
     potinit      :      0.01s CPU      0.01s WALL (       1 calls)
     hinit0       :      0.08s CPU      0.12s WALL (       1 calls)

     Called by electrons:
     c_bands      :    111.35s CPU    121.67s WALL (      13 calls)
     sum_band     :      8.90s CPU      9.32s WALL (      13 calls)
     v_of_rho     :      0.03s CPU      0.03s WALL (      14 calls)
     v_h          :      0.00s CPU      0.00s WALL (      14 calls)
     v_xc         :      0.03s CPU      0.03s WALL (      14 calls)
     newd         :      0.15s CPU      0.16s WALL (      14 calls)
     mix_rho      :      0.01s CPU      0.01s WALL (      13 calls)

     Called by c_bands:
     init_us_2    :      1.13s CPU      1.17s WALL (    9828 calls)
     cegterg      :    106.79s CPU    116.99s WALL (    4732 calls)

     Called by sum_band:
     sum_band:bec :      0.09s CPU      0.10s WALL (    4732 calls)
     addusdens    :      0.15s CPU      0.16s WALL (      13 calls)

     Called by *egterg:
     h_psi        :     40.31s CPU     42.28s WALL (   19026 calls)
     s_psi        :      1.34s CPU      1.40s WALL (   19026 calls)
     g_psi        :      0.32s CPU      0.32s WALL (   13930 calls)
     cdiaghg      :     54.48s CPU     60.55s WALL (   18662 calls)
     cegterg:over :      7.17s CPU      9.30s WALL (   13930 calls)
     cegterg:upda :      2.87s CPU      2.95s WALL (   13930 calls)
     cegterg:last :      1.11s CPU      1.17s WALL (    4732 calls)
     cdiaghg:chol :      1.59s CPU      1.87s WALL (   18662 calls)
     cdiaghg:inve :      0.93s CPU      1.11s WALL (   18662 calls)
     cdiaghg:para :      2.85s CPU      3.10s WALL (   37324 calls)

     Called by h_psi:
     h_psi:pot    :     40.17s CPU     42.13s WALL (   19026 calls)
     h_psi:calbec :      2.11s CPU      2.22s WALL (   19026 calls)
     vloc_psi     :     36.60s CPU     38.40s WALL (   19026 calls)
     add_vuspsi   :      1.38s CPU      1.45s WALL (   19026 calls)

     General routines
     calbec       :      2.73s CPU      2.87s WALL (   23758 calls)
     fft          :      0.02s CPU      0.05s WALL (     155 calls)
     ffts         :      0.00s CPU      0.00s WALL (      13 calls)
     fftw         :     41.07s CPU     43.06s WALL (  710636 calls)
 
     Parallel routines
     fft_scatt_xy :      3.22s CPU      3.38s WALL (  710804 calls)
     fft_scatt_yz :     25.90s CPU     27.25s WALL (  710804 calls)
 
     PWSCF        :  2m 3.59s CPU     2m14.72s WALL

 
   This run was terminated on:  21:56:16   6Feb2019            

=------------------------------------------------------------------------------=
   JOB DONE.
=------------------------------------------------------------------------------=
