
     Program PWSCF v.6.3MaX starts on  6Feb2019 at 22:36:40 

     This program is part of the open-source Quantum ESPRESSO suite
     for quantum simulation of materials; please cite
         "P. Giannozzi et al., J. Phys.:Condens. Matter 21 395502 (2009);
         "P. Giannozzi et al., J. Phys.:Condens. Matter 29 465901 (2017);
          URL http://www.quantum-espresso.org", 
     in publications or presentations arising from this work. More details at
     http://www.quantum-espresso.org/quote

     Parallel version (MPI & OpenMP), running on      20 processor cores
     Number of MPI processes:                20
     Threads/MPI process:                     1

     MPI processes distributed on     1 nodes
     R & G space division:  proc/nbgrp/npool/nimage =      20
     Reading input from /home/azadoks/dftman/projects/SrTiO3 Convergence/EOSWorkflows/143efdfa1861/a6d74ac9912b/pwscf.in
Warning: card &IONS ignored
Warning: card / ignored
Warning: card &CELL ignored
Warning: card / ignored

     Current dimensions of program PWSCF are:
     Max number of different atomic species (ntypx) = 10
     Max number of k-points (npk) =  40000
     Max angular momentum in pseudopotentials (lmaxx) =  3
     Message from routine iosys:
     minimal I/O required, wf_collect reset to FALSE

     Subspace diagonalization in iterative solution of the eigenvalue problem:
     one sub-group per band group will be used
     scalapack distributed-memory algorithm (size of sub-group:  3*  3 procs)

 
     Parallelization info
     --------------------
     sticks:   dense  smooth     PW     G-vecs:    dense   smooth      PW
     Min          27      27      8                  471      471      86
     Max          28      28      9                  474      474      89
     Sum         545     545    177                 9435     9435    1743
 


     bravais-lattice index     =            0
     lattice parameter (alat)  =       6.9582  a.u.
     unit-cell volume          =     336.8921 (a.u.)^3
     number of atoms/cell      =            5
     number of atomic types    =            3
     number of electrons       =        40.00
     number of Kohn-Sham states=           24
     kinetic-energy cutoff     =      35.0000  Ry
     charge density cutoff     =     140.0000  Ry
     convergence threshold     =      1.0E-08
     mixing beta               =       0.7000
     number of iterations used =            8  plain     mixing
     Exchange-correlation      =  SLA  PW   PBX  PBC ( 1  4  3  4 0 0)

     celldm(1)=   6.958200  celldm(2)=   0.000000  celldm(3)=   0.000000
     celldm(4)=   0.000000  celldm(5)=   0.000000  celldm(6)=   0.000000

     crystal axes: (cart. coord. in units of alat)
               a(1) = (   1.000000   0.000000   0.000000 )  
               a(2) = (   0.000000   1.000000   0.000000 )  
               a(3) = (   0.000000   0.000000   1.000000 )  

     reciprocal axes: (cart. coord. in units 2 pi/alat)
               b(1) = (  1.000000  0.000000  0.000000 )  
               b(2) = (  0.000000  1.000000  0.000000 )  
               b(3) = (  0.000000  0.000000  1.000000 )  


     PseudoPot. # 1 for O  read from file:
     /home/azadoks/.local/share/pseudo/GBRV_PBE_US/o_pbe_v1.2.uspp.F.UPF
     MD5 check sum: 734c27235a0248c51dbae37a1fbe46ec
     Pseudo is Ultrasoft + core correction, Zval =  6.0
     Generated by new atomic code, or converted to UPF format
     Using radial grid of  737 points,  5 beta functions with: 
                l(1) =   0
                l(2) =   0
                l(3) =   1
                l(4) =   1
                l(5) =   2
     Q(r) pseudized with  8 coefficients,  rinner =    0.900   0.900   0.900
                                                       0.900   0.900

     PseudoPot. # 2 for Sr read from file:
     /home/azadoks/.local/share/pseudo/GBRV_PBE_US/sr_pbe_v1.uspp.F.UPF
     MD5 check sum: 6b418c05fbe9db5448babca5e47b7a5b
     Pseudo is Ultrasoft + core correction, Zval = 10.0
     Generated by new atomic code, or converted to UPF format
     Using radial grid of  883 points,  6 beta functions with: 
                l(1) =   0
                l(2) =   0
                l(3) =   1
                l(4) =   1
                l(5) =   2
                l(6) =   2
     Q(r) pseudized with  6 coefficients,  rinner =    1.400   1.400   1.400
                                                       1.400   1.400

     PseudoPot. # 3 for Ti read from file:
     /home/azadoks/.local/share/pseudo/GBRV_PBE_US/ti_pbe_v1.4.uspp.F.UPF
     MD5 check sum: 88a00a6731bd790ddea75d31a80cb452
     Pseudo is Ultrasoft + core correction, Zval = 12.0
     Generated by new atomic code, or converted to UPF format
     Using radial grid of  851 points,  6 beta functions with: 
                l(1) =   0
                l(2) =   0
                l(3) =   1
                l(4) =   1
                l(5) =   2
                l(6) =   2
     Q(r) pseudized with  6 coefficients,  rinner =    1.000   1.000   1.000
                                                       1.000   1.000

     atomic species   valence    mass     pseudopotential
        O              6.00    15.99940     O ( 1.00)
        Sr            10.00    87.62000     Sr( 1.00)
        Ti            12.00    47.86700     Ti( 1.00)

     48 Sym. Ops., with inversion, found


                                    s                        frac. trans.

      isym =  1     identity                                     

 cryst.   s( 1) = (     1          0          0      )
                  (     0          1          0      )
                  (     0          0          1      )

 cart.    s( 1) = (  1.0000000  0.0000000  0.0000000 )
                  (  0.0000000  1.0000000  0.0000000 )
                  (  0.0000000  0.0000000  1.0000000 )


      isym =  2     180 deg rotation - cart. axis [0,0,1]        

 cryst.   s( 2) = (    -1          0          0      )
                  (     0         -1          0      )
                  (     0          0          1      )

 cart.    s( 2) = ( -1.0000000  0.0000000  0.0000000 )
                  (  0.0000000 -1.0000000  0.0000000 )
                  (  0.0000000  0.0000000  1.0000000 )


      isym =  3     180 deg rotation - cart. axis [0,1,0]        

 cryst.   s( 3) = (    -1          0          0      )
                  (     0          1          0      )
                  (     0          0         -1      )

 cart.    s( 3) = ( -1.0000000  0.0000000  0.0000000 )
                  (  0.0000000  1.0000000  0.0000000 )
                  (  0.0000000  0.0000000 -1.0000000 )


      isym =  4     180 deg rotation - cart. axis [1,0,0]        

 cryst.   s( 4) = (     1          0          0      )
                  (     0         -1          0      )
                  (     0          0         -1      )

 cart.    s( 4) = (  1.0000000  0.0000000  0.0000000 )
                  (  0.0000000 -1.0000000  0.0000000 )
                  (  0.0000000  0.0000000 -1.0000000 )


      isym =  5     180 deg rotation - cart. axis [1,1,0]        

 cryst.   s( 5) = (     0          1          0      )
                  (     1          0          0      )
                  (     0          0         -1      )

 cart.    s( 5) = (  0.0000000  1.0000000  0.0000000 )
                  (  1.0000000  0.0000000  0.0000000 )
                  (  0.0000000  0.0000000 -1.0000000 )


      isym =  6     180 deg rotation - cart. axis [1,-1,0]       

 cryst.   s( 6) = (     0         -1          0      )
                  (    -1          0          0      )
                  (     0          0         -1      )

 cart.    s( 6) = (  0.0000000 -1.0000000  0.0000000 )
                  ( -1.0000000  0.0000000  0.0000000 )
                  (  0.0000000  0.0000000 -1.0000000 )


      isym =  7      90 deg rotation - cart. axis [0,0,-1]       

 cryst.   s( 7) = (     0         -1          0      )
                  (     1          0          0      )
                  (     0          0          1      )

 cart.    s( 7) = (  0.0000000  1.0000000  0.0000000 )
                  ( -1.0000000  0.0000000  0.0000000 )
                  (  0.0000000  0.0000000  1.0000000 )


      isym =  8      90 deg rotation - cart. axis [0,0,1]        

 cryst.   s( 8) = (     0          1          0      )
                  (    -1          0          0      )
                  (     0          0          1      )

 cart.    s( 8) = (  0.0000000 -1.0000000  0.0000000 )
                  (  1.0000000  0.0000000  0.0000000 )
                  (  0.0000000  0.0000000  1.0000000 )


      isym =  9     180 deg rotation - cart. axis [1,0,1]        

 cryst.   s( 9) = (     0          0          1      )
                  (     0         -1          0      )
                  (     1          0          0      )

 cart.    s( 9) = (  0.0000000  0.0000000  1.0000000 )
                  (  0.0000000 -1.0000000  0.0000000 )
                  (  1.0000000  0.0000000  0.0000000 )


      isym = 10     180 deg rotation - cart. axis [-1,0,1]       

 cryst.   s(10) = (     0          0         -1      )
                  (     0         -1          0      )
                  (    -1          0          0      )

 cart.    s(10) = (  0.0000000  0.0000000 -1.0000000 )
                  (  0.0000000 -1.0000000  0.0000000 )
                  ( -1.0000000  0.0000000  0.0000000 )


      isym = 11      90 deg rotation - cart. axis [0,1,0]        

 cryst.   s(11) = (     0          0         -1      )
                  (     0          1          0      )
                  (     1          0          0      )

 cart.    s(11) = (  0.0000000  0.0000000  1.0000000 )
                  (  0.0000000  1.0000000  0.0000000 )
                  ( -1.0000000  0.0000000  0.0000000 )


      isym = 12      90 deg rotation - cart. axis [0,-1,0]       

 cryst.   s(12) = (     0          0          1      )
                  (     0          1          0      )
                  (    -1          0          0      )

 cart.    s(12) = (  0.0000000  0.0000000 -1.0000000 )
                  (  0.0000000  1.0000000  0.0000000 )
                  (  1.0000000  0.0000000  0.0000000 )


      isym = 13     180 deg rotation - cart. axis [0,1,1]        

 cryst.   s(13) = (    -1          0          0      )
                  (     0          0          1      )
                  (     0          1          0      )

 cart.    s(13) = ( -1.0000000  0.0000000  0.0000000 )
                  (  0.0000000  0.0000000  1.0000000 )
                  (  0.0000000  1.0000000  0.0000000 )


      isym = 14     180 deg rotation - cart. axis [0,1,-1]       

 cryst.   s(14) = (    -1          0          0      )
                  (     0          0         -1      )
                  (     0         -1          0      )

 cart.    s(14) = ( -1.0000000  0.0000000  0.0000000 )
                  (  0.0000000  0.0000000 -1.0000000 )
                  (  0.0000000 -1.0000000  0.0000000 )


      isym = 15      90 deg rotation - cart. axis [-1,0,0]       

 cryst.   s(15) = (     1          0          0      )
                  (     0          0         -1      )
                  (     0          1          0      )

 cart.    s(15) = (  1.0000000  0.0000000  0.0000000 )
                  (  0.0000000  0.0000000  1.0000000 )
                  (  0.0000000 -1.0000000  0.0000000 )


      isym = 16      90 deg rotation - cart. axis [1,0,0]        

 cryst.   s(16) = (     1          0          0      )
                  (     0          0          1      )
                  (     0         -1          0      )

 cart.    s(16) = (  1.0000000  0.0000000  0.0000000 )
                  (  0.0000000  0.0000000 -1.0000000 )
                  (  0.0000000  1.0000000  0.0000000 )


      isym = 17     120 deg rotation - cart. axis [-1,-1,-1]     

 cryst.   s(17) = (     0          0          1      )
                  (     1          0          0      )
                  (     0          1          0      )

 cart.    s(17) = (  0.0000000  1.0000000  0.0000000 )
                  (  0.0000000  0.0000000  1.0000000 )
                  (  1.0000000  0.0000000  0.0000000 )


      isym = 18     120 deg rotation - cart. axis [-1,1,1]       

 cryst.   s(18) = (     0          0         -1      )
                  (    -1          0          0      )
                  (     0          1          0      )

 cart.    s(18) = (  0.0000000 -1.0000000  0.0000000 )
                  (  0.0000000  0.0000000  1.0000000 )
                  ( -1.0000000  0.0000000  0.0000000 )


      isym = 19     120 deg rotation - cart. axis [1,1,-1]       

 cryst.   s(19) = (     0          0         -1      )
                  (     1          0          0      )
                  (     0         -1          0      )

 cart.    s(19) = (  0.0000000  1.0000000  0.0000000 )
                  (  0.0000000  0.0000000 -1.0000000 )
                  ( -1.0000000  0.0000000  0.0000000 )


      isym = 20     120 deg rotation - cart. axis [1,-1,1]       

 cryst.   s(20) = (     0          0          1      )
                  (    -1          0          0      )
                  (     0         -1          0      )

 cart.    s(20) = (  0.0000000 -1.0000000  0.0000000 )
                  (  0.0000000  0.0000000 -1.0000000 )
                  (  1.0000000  0.0000000  0.0000000 )


      isym = 21     120 deg rotation - cart. axis [1,1,1]        

 cryst.   s(21) = (     0          1          0      )
                  (     0          0          1      )
                  (     1          0          0      )

 cart.    s(21) = (  0.0000000  0.0000000  1.0000000 )
                  (  1.0000000  0.0000000  0.0000000 )
                  (  0.0000000  1.0000000  0.0000000 )


      isym = 22     120 deg rotation - cart. axis [-1,1,-1]      

 cryst.   s(22) = (     0         -1          0      )
                  (     0          0         -1      )
                  (     1          0          0      )

 cart.    s(22) = (  0.0000000  0.0000000  1.0000000 )
                  ( -1.0000000  0.0000000  0.0000000 )
                  (  0.0000000 -1.0000000  0.0000000 )


      isym = 23     120 deg rotation - cart. axis [1,-1,-1]      

 cryst.   s(23) = (     0         -1          0      )
                  (     0          0          1      )
                  (    -1          0          0      )

 cart.    s(23) = (  0.0000000  0.0000000 -1.0000000 )
                  ( -1.0000000  0.0000000  0.0000000 )
                  (  0.0000000  1.0000000  0.0000000 )


      isym = 24     120 deg rotation - cart. axis [-1,-1,1]      

 cryst.   s(24) = (     0          1          0      )
                  (     0          0         -1      )
                  (    -1          0          0      )

 cart.    s(24) = (  0.0000000  0.0000000 -1.0000000 )
                  (  1.0000000  0.0000000  0.0000000 )
                  (  0.0000000 -1.0000000  0.0000000 )


      isym = 25     inversion                                    

 cryst.   s(25) = (    -1          0          0      )
                  (     0         -1          0      )
                  (     0          0         -1      )

 cart.    s(25) = ( -1.0000000  0.0000000  0.0000000 )
                  (  0.0000000 -1.0000000  0.0000000 )
                  (  0.0000000  0.0000000 -1.0000000 )


      isym = 26     inv. 180 deg rotation - cart. axis [0,0,1]   

 cryst.   s(26) = (     1          0          0      )
                  (     0          1          0      )
                  (     0          0         -1      )

 cart.    s(26) = (  1.0000000  0.0000000  0.0000000 )
                  (  0.0000000  1.0000000  0.0000000 )
                  (  0.0000000  0.0000000 -1.0000000 )


      isym = 27     inv. 180 deg rotation - cart. axis [0,1,0]   

 cryst.   s(27) = (     1          0          0      )
                  (     0         -1          0      )
                  (     0          0          1      )

 cart.    s(27) = (  1.0000000  0.0000000  0.0000000 )
                  (  0.0000000 -1.0000000  0.0000000 )
                  (  0.0000000  0.0000000  1.0000000 )


      isym = 28     inv. 180 deg rotation - cart. axis [1,0,0]   

 cryst.   s(28) = (    -1          0          0      )
                  (     0          1          0      )
                  (     0          0          1      )

 cart.    s(28) = ( -1.0000000  0.0000000  0.0000000 )
                  (  0.0000000  1.0000000  0.0000000 )
                  (  0.0000000  0.0000000  1.0000000 )


      isym = 29     inv. 180 deg rotation - cart. axis [1,1,0]   

 cryst.   s(29) = (     0         -1          0      )
                  (    -1          0          0      )
                  (     0          0          1      )

 cart.    s(29) = (  0.0000000 -1.0000000  0.0000000 )
                  ( -1.0000000  0.0000000  0.0000000 )
                  (  0.0000000  0.0000000  1.0000000 )


      isym = 30     inv. 180 deg rotation - cart. axis [1,-1,0]  

 cryst.   s(30) = (     0          1          0      )
                  (     1          0          0      )
                  (     0          0          1      )

 cart.    s(30) = (  0.0000000  1.0000000  0.0000000 )
                  (  1.0000000  0.0000000  0.0000000 )
                  (  0.0000000  0.0000000  1.0000000 )


      isym = 31     inv.  90 deg rotation - cart. axis [0,0,-1]  

 cryst.   s(31) = (     0          1          0      )
                  (    -1          0          0      )
                  (     0          0         -1      )

 cart.    s(31) = (  0.0000000 -1.0000000  0.0000000 )
                  (  1.0000000  0.0000000  0.0000000 )
                  (  0.0000000  0.0000000 -1.0000000 )


      isym = 32     inv.  90 deg rotation - cart. axis [0,0,1]   

 cryst.   s(32) = (     0         -1          0      )
                  (     1          0          0      )
                  (     0          0         -1      )

 cart.    s(32) = (  0.0000000  1.0000000  0.0000000 )
                  ( -1.0000000  0.0000000  0.0000000 )
                  (  0.0000000  0.0000000 -1.0000000 )


      isym = 33     inv. 180 deg rotation - cart. axis [1,0,1]   

 cryst.   s(33) = (     0          0         -1      )
                  (     0          1          0      )
                  (    -1          0          0      )

 cart.    s(33) = (  0.0000000  0.0000000 -1.0000000 )
                  (  0.0000000  1.0000000  0.0000000 )
                  ( -1.0000000  0.0000000  0.0000000 )


      isym = 34     inv. 180 deg rotation - cart. axis [-1,0,1]  

 cryst.   s(34) = (     0          0          1      )
                  (     0          1          0      )
                  (     1          0          0      )

 cart.    s(34) = (  0.0000000  0.0000000  1.0000000 )
                  (  0.0000000  1.0000000  0.0000000 )
                  (  1.0000000  0.0000000  0.0000000 )


      isym = 35     inv.  90 deg rotation - cart. axis [0,1,0]   

 cryst.   s(35) = (     0          0          1      )
                  (     0         -1          0      )
                  (    -1          0          0      )

 cart.    s(35) = (  0.0000000  0.0000000 -1.0000000 )
                  (  0.0000000 -1.0000000  0.0000000 )
                  (  1.0000000  0.0000000  0.0000000 )


      isym = 36     inv.  90 deg rotation - cart. axis [0,-1,0]  

 cryst.   s(36) = (     0          0         -1      )
                  (     0         -1          0      )
                  (     1          0          0      )

 cart.    s(36) = (  0.0000000  0.0000000  1.0000000 )
                  (  0.0000000 -1.0000000  0.0000000 )
                  ( -1.0000000  0.0000000  0.0000000 )


      isym = 37     inv. 180 deg rotation - cart. axis [0,1,1]   

 cryst.   s(37) = (     1          0          0      )
                  (     0          0         -1      )
                  (     0         -1          0      )

 cart.    s(37) = (  1.0000000  0.0000000  0.0000000 )
                  (  0.0000000  0.0000000 -1.0000000 )
                  (  0.0000000 -1.0000000  0.0000000 )


      isym = 38     inv. 180 deg rotation - cart. axis [0,1,-1]  

 cryst.   s(38) = (     1          0          0      )
                  (     0          0          1      )
                  (     0          1          0      )

 cart.    s(38) = (  1.0000000  0.0000000  0.0000000 )
                  (  0.0000000  0.0000000  1.0000000 )
                  (  0.0000000  1.0000000  0.0000000 )


      isym = 39     inv.  90 deg rotation - cart. axis [-1,0,0]  

 cryst.   s(39) = (    -1          0          0      )
                  (     0          0          1      )
                  (     0         -1          0      )

 cart.    s(39) = ( -1.0000000  0.0000000  0.0000000 )
                  (  0.0000000  0.0000000 -1.0000000 )
                  (  0.0000000  1.0000000  0.0000000 )


      isym = 40     inv.  90 deg rotation - cart. axis [1,0,0]   

 cryst.   s(40) = (    -1          0          0      )
                  (     0          0         -1      )
                  (     0          1          0      )

 cart.    s(40) = ( -1.0000000  0.0000000  0.0000000 )
                  (  0.0000000  0.0000000  1.0000000 )
                  (  0.0000000 -1.0000000  0.0000000 )


      isym = 41     inv. 120 deg rotation - cart. axis [-1,-1,-1]

 cryst.   s(41) = (     0          0         -1      )
                  (    -1          0          0      )
                  (     0         -1          0      )

 cart.    s(41) = (  0.0000000 -1.0000000  0.0000000 )
                  (  0.0000000  0.0000000 -1.0000000 )
                  ( -1.0000000  0.0000000  0.0000000 )


      isym = 42     inv. 120 deg rotation - cart. axis [-1,1,1]  

 cryst.   s(42) = (     0          0          1      )
                  (     1          0          0      )
                  (     0         -1          0      )

 cart.    s(42) = (  0.0000000  1.0000000  0.0000000 )
                  (  0.0000000  0.0000000 -1.0000000 )
                  (  1.0000000  0.0000000  0.0000000 )


      isym = 43     inv. 120 deg rotation - cart. axis [1,1,-1]  

 cryst.   s(43) = (     0          0          1      )
                  (    -1          0          0      )
                  (     0          1          0      )

 cart.    s(43) = (  0.0000000 -1.0000000  0.0000000 )
                  (  0.0000000  0.0000000  1.0000000 )
                  (  1.0000000  0.0000000  0.0000000 )


      isym = 44     inv. 120 deg rotation - cart. axis [1,-1,1]  

 cryst.   s(44) = (     0          0         -1      )
                  (     1          0          0      )
                  (     0          1          0      )

 cart.    s(44) = (  0.0000000  1.0000000  0.0000000 )
                  (  0.0000000  0.0000000  1.0000000 )
                  ( -1.0000000  0.0000000  0.0000000 )


      isym = 45     inv. 120 deg rotation - cart. axis [1,1,1]   

 cryst.   s(45) = (     0         -1          0      )
                  (     0          0         -1      )
                  (    -1          0          0      )

 cart.    s(45) = (  0.0000000  0.0000000 -1.0000000 )
                  ( -1.0000000  0.0000000  0.0000000 )
                  (  0.0000000 -1.0000000  0.0000000 )


      isym = 46     inv. 120 deg rotation - cart. axis [-1,1,-1] 

 cryst.   s(46) = (     0          1          0      )
                  (     0          0          1      )
                  (    -1          0          0      )

 cart.    s(46) = (  0.0000000  0.0000000 -1.0000000 )
                  (  1.0000000  0.0000000  0.0000000 )
                  (  0.0000000  1.0000000  0.0000000 )


      isym = 47     inv. 120 deg rotation - cart. axis [1,-1,-1] 

 cryst.   s(47) = (     0          1          0      )
                  (     0          0         -1      )
                  (     1          0          0      )

 cart.    s(47) = (  0.0000000  0.0000000  1.0000000 )
                  (  1.0000000  0.0000000  0.0000000 )
                  (  0.0000000 -1.0000000  0.0000000 )


      isym = 48     inv. 120 deg rotation - cart. axis [-1,-1,1] 

 cryst.   s(48) = (     0         -1          0      )
                  (     0          0          1      )
                  (     1          0          0      )

 cart.    s(48) = (  0.0000000  0.0000000  1.0000000 )
                  ( -1.0000000  0.0000000  0.0000000 )
                  (  0.0000000  1.0000000  0.0000000 )


   Cartesian axes

     site n.     atom                  positions (alat units)
         1           O   tau(   1) = (   0.5000000   0.0000000   0.5000000  )
         2           O   tau(   2) = (   0.5000000   0.5000000   0.0000000  )
         3           O   tau(   3) = (   0.0000000   0.5000000   0.5000000  )
         4           Ti  tau(   4) = (   0.5000000   0.5000000   0.5000000  )
         5           Sr  tau(   5) = (   0.0000000   0.0000000   0.0000000  )

   Crystallographic axes

     site n.     atom                  positions (cryst. coord.)
         1           O   tau(   1) = (  0.5000000  0.0000000  0.5000000  )
         2           O   tau(   2) = (  0.5000000  0.5000000  0.0000000  )
         3           O   tau(   3) = (  0.0000000  0.5000000  0.5000000  )
         4           Ti  tau(   4) = (  0.5000000  0.5000000  0.5000000  )
         5           Sr  tau(   5) = (  0.0000000  0.0000000  0.0000000  )

     number of k points=   364  Marzari-Vanderbilt smearing, width (Ry)=  0.0010
                       cart. coord. in units 2pi/alat
        k(    1) = (   0.0000000   0.0000000   0.0000000), wk =   0.0001878
        k(    2) = (   0.0000000   0.0000000   0.0454545), wk =   0.0011270
        k(    3) = (   0.0000000   0.0000000   0.0909091), wk =   0.0011270
        k(    4) = (   0.0000000   0.0000000   0.1363636), wk =   0.0011270
        k(    5) = (   0.0000000   0.0000000   0.1818182), wk =   0.0011270
        k(    6) = (   0.0000000   0.0000000   0.2272727), wk =   0.0011270
        k(    7) = (   0.0000000   0.0000000   0.2727273), wk =   0.0011270
        k(    8) = (   0.0000000   0.0000000   0.3181818), wk =   0.0011270
        k(    9) = (   0.0000000   0.0000000   0.3636364), wk =   0.0011270
        k(   10) = (   0.0000000   0.0000000   0.4090909), wk =   0.0011270
        k(   11) = (   0.0000000   0.0000000   0.4545455), wk =   0.0011270
        k(   12) = (   0.0000000   0.0000000  -0.5000000), wk =   0.0005635
        k(   13) = (   0.0000000   0.0454545   0.0454545), wk =   0.0022539
        k(   14) = (   0.0000000   0.0454545   0.0909091), wk =   0.0045079
        k(   15) = (   0.0000000   0.0454545   0.1363636), wk =   0.0045079
        k(   16) = (   0.0000000   0.0454545   0.1818182), wk =   0.0045079
        k(   17) = (   0.0000000   0.0454545   0.2272727), wk =   0.0045079
        k(   18) = (   0.0000000   0.0454545   0.2727273), wk =   0.0045079
        k(   19) = (   0.0000000   0.0454545   0.3181818), wk =   0.0045079
        k(   20) = (   0.0000000   0.0454545   0.3636364), wk =   0.0045079
        k(   21) = (   0.0000000   0.0454545   0.4090909), wk =   0.0045079
        k(   22) = (   0.0000000   0.0454545   0.4545455), wk =   0.0045079
        k(   23) = (   0.0000000   0.0454545  -0.5000000), wk =   0.0022539
        k(   24) = (   0.0000000   0.0909091   0.0909091), wk =   0.0022539
        k(   25) = (   0.0000000   0.0909091   0.1363636), wk =   0.0045079
        k(   26) = (   0.0000000   0.0909091   0.1818182), wk =   0.0045079
        k(   27) = (   0.0000000   0.0909091   0.2272727), wk =   0.0045079
        k(   28) = (   0.0000000   0.0909091   0.2727273), wk =   0.0045079
        k(   29) = (   0.0000000   0.0909091   0.3181818), wk =   0.0045079
        k(   30) = (   0.0000000   0.0909091   0.3636364), wk =   0.0045079
        k(   31) = (   0.0000000   0.0909091   0.4090909), wk =   0.0045079
        k(   32) = (   0.0000000   0.0909091   0.4545455), wk =   0.0045079
        k(   33) = (   0.0000000   0.0909091  -0.5000000), wk =   0.0022539
        k(   34) = (   0.0000000   0.1363636   0.1363636), wk =   0.0022539
        k(   35) = (   0.0000000   0.1363636   0.1818182), wk =   0.0045079
        k(   36) = (   0.0000000   0.1363636   0.2272727), wk =   0.0045079
        k(   37) = (   0.0000000   0.1363636   0.2727273), wk =   0.0045079
        k(   38) = (   0.0000000   0.1363636   0.3181818), wk =   0.0045079
        k(   39) = (   0.0000000   0.1363636   0.3636364), wk =   0.0045079
        k(   40) = (   0.0000000   0.1363636   0.4090909), wk =   0.0045079
        k(   41) = (   0.0000000   0.1363636   0.4545455), wk =   0.0045079
        k(   42) = (   0.0000000   0.1363636  -0.5000000), wk =   0.0022539
        k(   43) = (   0.0000000   0.1818182   0.1818182), wk =   0.0022539
        k(   44) = (   0.0000000   0.1818182   0.2272727), wk =   0.0045079
        k(   45) = (   0.0000000   0.1818182   0.2727273), wk =   0.0045079
        k(   46) = (   0.0000000   0.1818182   0.3181818), wk =   0.0045079
        k(   47) = (   0.0000000   0.1818182   0.3636364), wk =   0.0045079
        k(   48) = (   0.0000000   0.1818182   0.4090909), wk =   0.0045079
        k(   49) = (   0.0000000   0.1818182   0.4545455), wk =   0.0045079
        k(   50) = (   0.0000000   0.1818182  -0.5000000), wk =   0.0022539
        k(   51) = (   0.0000000   0.2272727   0.2272727), wk =   0.0022539
        k(   52) = (   0.0000000   0.2272727   0.2727273), wk =   0.0045079
        k(   53) = (   0.0000000   0.2272727   0.3181818), wk =   0.0045079
        k(   54) = (   0.0000000   0.2272727   0.3636364), wk =   0.0045079
        k(   55) = (   0.0000000   0.2272727   0.4090909), wk =   0.0045079
        k(   56) = (   0.0000000   0.2272727   0.4545455), wk =   0.0045079
        k(   57) = (   0.0000000   0.2272727  -0.5000000), wk =   0.0022539
        k(   58) = (   0.0000000   0.2727273   0.2727273), wk =   0.0022539
        k(   59) = (   0.0000000   0.2727273   0.3181818), wk =   0.0045079
        k(   60) = (   0.0000000   0.2727273   0.3636364), wk =   0.0045079
        k(   61) = (   0.0000000   0.2727273   0.4090909), wk =   0.0045079
        k(   62) = (   0.0000000   0.2727273   0.4545455), wk =   0.0045079
        k(   63) = (   0.0000000   0.2727273  -0.5000000), wk =   0.0022539
        k(   64) = (   0.0000000   0.3181818   0.3181818), wk =   0.0022539
        k(   65) = (   0.0000000   0.3181818   0.3636364), wk =   0.0045079
        k(   66) = (   0.0000000   0.3181818   0.4090909), wk =   0.0045079
        k(   67) = (   0.0000000   0.3181818   0.4545455), wk =   0.0045079
        k(   68) = (   0.0000000   0.3181818  -0.5000000), wk =   0.0022539
        k(   69) = (   0.0000000   0.3636364   0.3636364), wk =   0.0022539
        k(   70) = (   0.0000000   0.3636364   0.4090909), wk =   0.0045079
        k(   71) = (   0.0000000   0.3636364   0.4545455), wk =   0.0045079
        k(   72) = (   0.0000000   0.3636364  -0.5000000), wk =   0.0022539
        k(   73) = (   0.0000000   0.4090909   0.4090909), wk =   0.0022539
        k(   74) = (   0.0000000   0.4090909   0.4545455), wk =   0.0045079
        k(   75) = (   0.0000000   0.4090909  -0.5000000), wk =   0.0022539
        k(   76) = (   0.0000000   0.4545455   0.4545455), wk =   0.0022539
        k(   77) = (   0.0000000   0.4545455  -0.5000000), wk =   0.0022539
        k(   78) = (   0.0000000  -0.5000000  -0.5000000), wk =   0.0005635
        k(   79) = (   0.0454545   0.0454545   0.0454545), wk =   0.0015026
        k(   80) = (   0.0454545   0.0454545   0.0909091), wk =   0.0045079
        k(   81) = (   0.0454545   0.0454545   0.1363636), wk =   0.0045079
        k(   82) = (   0.0454545   0.0454545   0.1818182), wk =   0.0045079
        k(   83) = (   0.0454545   0.0454545   0.2272727), wk =   0.0045079
        k(   84) = (   0.0454545   0.0454545   0.2727273), wk =   0.0045079
        k(   85) = (   0.0454545   0.0454545   0.3181818), wk =   0.0045079
        k(   86) = (   0.0454545   0.0454545   0.3636364), wk =   0.0045079
        k(   87) = (   0.0454545   0.0454545   0.4090909), wk =   0.0045079
        k(   88) = (   0.0454545   0.0454545   0.4545455), wk =   0.0045079
        k(   89) = (   0.0454545   0.0454545  -0.5000000), wk =   0.0022539
        k(   90) = (   0.0454545   0.0909091   0.0909091), wk =   0.0045079
        k(   91) = (   0.0454545   0.0909091   0.1363636), wk =   0.0090158
        k(   92) = (   0.0454545   0.0909091   0.1818182), wk =   0.0090158
        k(   93) = (   0.0454545   0.0909091   0.2272727), wk =   0.0090158
        k(   94) = (   0.0454545   0.0909091   0.2727273), wk =   0.0090158
        k(   95) = (   0.0454545   0.0909091   0.3181818), wk =   0.0090158
        k(   96) = (   0.0454545   0.0909091   0.3636364), wk =   0.0090158
        k(   97) = (   0.0454545   0.0909091   0.4090909), wk =   0.0090158
        k(   98) = (   0.0454545   0.0909091   0.4545455), wk =   0.0090158
        k(   99) = (   0.0454545   0.0909091  -0.5000000), wk =   0.0045079
        k(  100) = (   0.0454545   0.1363636   0.1363636), wk =   0.0045079
        k(  101) = (   0.0454545   0.1363636   0.1818182), wk =   0.0090158
        k(  102) = (   0.0454545   0.1363636   0.2272727), wk =   0.0090158
        k(  103) = (   0.0454545   0.1363636   0.2727273), wk =   0.0090158
        k(  104) = (   0.0454545   0.1363636   0.3181818), wk =   0.0090158
        k(  105) = (   0.0454545   0.1363636   0.3636364), wk =   0.0090158
        k(  106) = (   0.0454545   0.1363636   0.4090909), wk =   0.0090158
        k(  107) = (   0.0454545   0.1363636   0.4545455), wk =   0.0090158
        k(  108) = (   0.0454545   0.1363636  -0.5000000), wk =   0.0045079
        k(  109) = (   0.0454545   0.1818182   0.1818182), wk =   0.0045079
        k(  110) = (   0.0454545   0.1818182   0.2272727), wk =   0.0090158
        k(  111) = (   0.0454545   0.1818182   0.2727273), wk =   0.0090158
        k(  112) = (   0.0454545   0.1818182   0.3181818), wk =   0.0090158
        k(  113) = (   0.0454545   0.1818182   0.3636364), wk =   0.0090158
        k(  114) = (   0.0454545   0.1818182   0.4090909), wk =   0.0090158
        k(  115) = (   0.0454545   0.1818182   0.4545455), wk =   0.0090158
        k(  116) = (   0.0454545   0.1818182  -0.5000000), wk =   0.0045079
        k(  117) = (   0.0454545   0.2272727   0.2272727), wk =   0.0045079
        k(  118) = (   0.0454545   0.2272727   0.2727273), wk =   0.0090158
        k(  119) = (   0.0454545   0.2272727   0.3181818), wk =   0.0090158
        k(  120) = (   0.0454545   0.2272727   0.3636364), wk =   0.0090158
        k(  121) = (   0.0454545   0.2272727   0.4090909), wk =   0.0090158
        k(  122) = (   0.0454545   0.2272727   0.4545455), wk =   0.0090158
        k(  123) = (   0.0454545   0.2272727  -0.5000000), wk =   0.0045079
        k(  124) = (   0.0454545   0.2727273   0.2727273), wk =   0.0045079
        k(  125) = (   0.0454545   0.2727273   0.3181818), wk =   0.0090158
        k(  126) = (   0.0454545   0.2727273   0.3636364), wk =   0.0090158
        k(  127) = (   0.0454545   0.2727273   0.4090909), wk =   0.0090158
        k(  128) = (   0.0454545   0.2727273   0.4545455), wk =   0.0090158
        k(  129) = (   0.0454545   0.2727273  -0.5000000), wk =   0.0045079
        k(  130) = (   0.0454545   0.3181818   0.3181818), wk =   0.0045079
        k(  131) = (   0.0454545   0.3181818   0.3636364), wk =   0.0090158
        k(  132) = (   0.0454545   0.3181818   0.4090909), wk =   0.0090158
        k(  133) = (   0.0454545   0.3181818   0.4545455), wk =   0.0090158
        k(  134) = (   0.0454545   0.3181818  -0.5000000), wk =   0.0045079
        k(  135) = (   0.0454545   0.3636364   0.3636364), wk =   0.0045079
        k(  136) = (   0.0454545   0.3636364   0.4090909), wk =   0.0090158
        k(  137) = (   0.0454545   0.3636364   0.4545455), wk =   0.0090158
        k(  138) = (   0.0454545   0.3636364  -0.5000000), wk =   0.0045079
        k(  139) = (   0.0454545   0.4090909   0.4090909), wk =   0.0045079
        k(  140) = (   0.0454545   0.4090909   0.4545455), wk =   0.0090158
        k(  141) = (   0.0454545   0.4090909  -0.5000000), wk =   0.0045079
        k(  142) = (   0.0454545   0.4545455   0.4545455), wk =   0.0045079
        k(  143) = (   0.0454545   0.4545455  -0.5000000), wk =   0.0045079
        k(  144) = (   0.0454545  -0.5000000  -0.5000000), wk =   0.0011270
        k(  145) = (   0.0909091   0.0909091   0.0909091), wk =   0.0015026
        k(  146) = (   0.0909091   0.0909091   0.1363636), wk =   0.0045079
        k(  147) = (   0.0909091   0.0909091   0.1818182), wk =   0.0045079
        k(  148) = (   0.0909091   0.0909091   0.2272727), wk =   0.0045079
        k(  149) = (   0.0909091   0.0909091   0.2727273), wk =   0.0045079
        k(  150) = (   0.0909091   0.0909091   0.3181818), wk =   0.0045079
        k(  151) = (   0.0909091   0.0909091   0.3636364), wk =   0.0045079
        k(  152) = (   0.0909091   0.0909091   0.4090909), wk =   0.0045079
        k(  153) = (   0.0909091   0.0909091   0.4545455), wk =   0.0045079
        k(  154) = (   0.0909091   0.0909091  -0.5000000), wk =   0.0022539
        k(  155) = (   0.0909091   0.1363636   0.1363636), wk =   0.0045079
        k(  156) = (   0.0909091   0.1363636   0.1818182), wk =   0.0090158
        k(  157) = (   0.0909091   0.1363636   0.2272727), wk =   0.0090158
        k(  158) = (   0.0909091   0.1363636   0.2727273), wk =   0.0090158
        k(  159) = (   0.0909091   0.1363636   0.3181818), wk =   0.0090158
        k(  160) = (   0.0909091   0.1363636   0.3636364), wk =   0.0090158
        k(  161) = (   0.0909091   0.1363636   0.4090909), wk =   0.0090158
        k(  162) = (   0.0909091   0.1363636   0.4545455), wk =   0.0090158
        k(  163) = (   0.0909091   0.1363636  -0.5000000), wk =   0.0045079
        k(  164) = (   0.0909091   0.1818182   0.1818182), wk =   0.0045079
        k(  165) = (   0.0909091   0.1818182   0.2272727), wk =   0.0090158
        k(  166) = (   0.0909091   0.1818182   0.2727273), wk =   0.0090158
        k(  167) = (   0.0909091   0.1818182   0.3181818), wk =   0.0090158
        k(  168) = (   0.0909091   0.1818182   0.3636364), wk =   0.0090158
        k(  169) = (   0.0909091   0.1818182   0.4090909), wk =   0.0090158
        k(  170) = (   0.0909091   0.1818182   0.4545455), wk =   0.0090158
        k(  171) = (   0.0909091   0.1818182  -0.5000000), wk =   0.0045079
        k(  172) = (   0.0909091   0.2272727   0.2272727), wk =   0.0045079
        k(  173) = (   0.0909091   0.2272727   0.2727273), wk =   0.0090158
        k(  174) = (   0.0909091   0.2272727   0.3181818), wk =   0.0090158
        k(  175) = (   0.0909091   0.2272727   0.3636364), wk =   0.0090158
        k(  176) = (   0.0909091   0.2272727   0.4090909), wk =   0.0090158
        k(  177) = (   0.0909091   0.2272727   0.4545455), wk =   0.0090158
        k(  178) = (   0.0909091   0.2272727  -0.5000000), wk =   0.0045079
        k(  179) = (   0.0909091   0.2727273   0.2727273), wk =   0.0045079
        k(  180) = (   0.0909091   0.2727273   0.3181818), wk =   0.0090158
        k(  181) = (   0.0909091   0.2727273   0.3636364), wk =   0.0090158
        k(  182) = (   0.0909091   0.2727273   0.4090909), wk =   0.0090158
        k(  183) = (   0.0909091   0.2727273   0.4545455), wk =   0.0090158
        k(  184) = (   0.0909091   0.2727273  -0.5000000), wk =   0.0045079
        k(  185) = (   0.0909091   0.3181818   0.3181818), wk =   0.0045079
        k(  186) = (   0.0909091   0.3181818   0.3636364), wk =   0.0090158
        k(  187) = (   0.0909091   0.3181818   0.4090909), wk =   0.0090158
        k(  188) = (   0.0909091   0.3181818   0.4545455), wk =   0.0090158
        k(  189) = (   0.0909091   0.3181818  -0.5000000), wk =   0.0045079
        k(  190) = (   0.0909091   0.3636364   0.3636364), wk =   0.0045079
        k(  191) = (   0.0909091   0.3636364   0.4090909), wk =   0.0090158
        k(  192) = (   0.0909091   0.3636364   0.4545455), wk =   0.0090158
        k(  193) = (   0.0909091   0.3636364  -0.5000000), wk =   0.0045079
        k(  194) = (   0.0909091   0.4090909   0.4090909), wk =   0.0045079
        k(  195) = (   0.0909091   0.4090909   0.4545455), wk =   0.0090158
        k(  196) = (   0.0909091   0.4090909  -0.5000000), wk =   0.0045079
        k(  197) = (   0.0909091   0.4545455   0.4545455), wk =   0.0045079
        k(  198) = (   0.0909091   0.4545455  -0.5000000), wk =   0.0045079
        k(  199) = (   0.0909091  -0.5000000  -0.5000000), wk =   0.0011270
        k(  200) = (   0.1363636   0.1363636   0.1363636), wk =   0.0015026
        k(  201) = (   0.1363636   0.1363636   0.1818182), wk =   0.0045079
        k(  202) = (   0.1363636   0.1363636   0.2272727), wk =   0.0045079
        k(  203) = (   0.1363636   0.1363636   0.2727273), wk =   0.0045079
        k(  204) = (   0.1363636   0.1363636   0.3181818), wk =   0.0045079
        k(  205) = (   0.1363636   0.1363636   0.3636364), wk =   0.0045079
        k(  206) = (   0.1363636   0.1363636   0.4090909), wk =   0.0045079
        k(  207) = (   0.1363636   0.1363636   0.4545455), wk =   0.0045079
        k(  208) = (   0.1363636   0.1363636  -0.5000000), wk =   0.0022539
        k(  209) = (   0.1363636   0.1818182   0.1818182), wk =   0.0045079
        k(  210) = (   0.1363636   0.1818182   0.2272727), wk =   0.0090158
        k(  211) = (   0.1363636   0.1818182   0.2727273), wk =   0.0090158
        k(  212) = (   0.1363636   0.1818182   0.3181818), wk =   0.0090158
        k(  213) = (   0.1363636   0.1818182   0.3636364), wk =   0.0090158
        k(  214) = (   0.1363636   0.1818182   0.4090909), wk =   0.0090158
        k(  215) = (   0.1363636   0.1818182   0.4545455), wk =   0.0090158
        k(  216) = (   0.1363636   0.1818182  -0.5000000), wk =   0.0045079
        k(  217) = (   0.1363636   0.2272727   0.2272727), wk =   0.0045079
        k(  218) = (   0.1363636   0.2272727   0.2727273), wk =   0.0090158
        k(  219) = (   0.1363636   0.2272727   0.3181818), wk =   0.0090158
        k(  220) = (   0.1363636   0.2272727   0.3636364), wk =   0.0090158
        k(  221) = (   0.1363636   0.2272727   0.4090909), wk =   0.0090158
        k(  222) = (   0.1363636   0.2272727   0.4545455), wk =   0.0090158
        k(  223) = (   0.1363636   0.2272727  -0.5000000), wk =   0.0045079
        k(  224) = (   0.1363636   0.2727273   0.2727273), wk =   0.0045079
        k(  225) = (   0.1363636   0.2727273   0.3181818), wk =   0.0090158
        k(  226) = (   0.1363636   0.2727273   0.3636364), wk =   0.0090158
        k(  227) = (   0.1363636   0.2727273   0.4090909), wk =   0.0090158
        k(  228) = (   0.1363636   0.2727273   0.4545455), wk =   0.0090158
        k(  229) = (   0.1363636   0.2727273  -0.5000000), wk =   0.0045079
        k(  230) = (   0.1363636   0.3181818   0.3181818), wk =   0.0045079
        k(  231) = (   0.1363636   0.3181818   0.3636364), wk =   0.0090158
        k(  232) = (   0.1363636   0.3181818   0.4090909), wk =   0.0090158
        k(  233) = (   0.1363636   0.3181818   0.4545455), wk =   0.0090158
        k(  234) = (   0.1363636   0.3181818  -0.5000000), wk =   0.0045079
        k(  235) = (   0.1363636   0.3636364   0.3636364), wk =   0.0045079
        k(  236) = (   0.1363636   0.3636364   0.4090909), wk =   0.0090158
        k(  237) = (   0.1363636   0.3636364   0.4545455), wk =   0.0090158
        k(  238) = (   0.1363636   0.3636364  -0.5000000), wk =   0.0045079
        k(  239) = (   0.1363636   0.4090909   0.4090909), wk =   0.0045079
        k(  240) = (   0.1363636   0.4090909   0.4545455), wk =   0.0090158
        k(  241) = (   0.1363636   0.4090909  -0.5000000), wk =   0.0045079
        k(  242) = (   0.1363636   0.4545455   0.4545455), wk =   0.0045079
        k(  243) = (   0.1363636   0.4545455  -0.5000000), wk =   0.0045079
        k(  244) = (   0.1363636  -0.5000000  -0.5000000), wk =   0.0011270
        k(  245) = (   0.1818182   0.1818182   0.1818182), wk =   0.0015026
        k(  246) = (   0.1818182   0.1818182   0.2272727), wk =   0.0045079
        k(  247) = (   0.1818182   0.1818182   0.2727273), wk =   0.0045079
        k(  248) = (   0.1818182   0.1818182   0.3181818), wk =   0.0045079
        k(  249) = (   0.1818182   0.1818182   0.3636364), wk =   0.0045079
        k(  250) = (   0.1818182   0.1818182   0.4090909), wk =   0.0045079
        k(  251) = (   0.1818182   0.1818182   0.4545455), wk =   0.0045079
        k(  252) = (   0.1818182   0.1818182  -0.5000000), wk =   0.0022539
        k(  253) = (   0.1818182   0.2272727   0.2272727), wk =   0.0045079
        k(  254) = (   0.1818182   0.2272727   0.2727273), wk =   0.0090158
        k(  255) = (   0.1818182   0.2272727   0.3181818), wk =   0.0090158
        k(  256) = (   0.1818182   0.2272727   0.3636364), wk =   0.0090158
        k(  257) = (   0.1818182   0.2272727   0.4090909), wk =   0.0090158
        k(  258) = (   0.1818182   0.2272727   0.4545455), wk =   0.0090158
        k(  259) = (   0.1818182   0.2272727  -0.5000000), wk =   0.0045079
        k(  260) = (   0.1818182   0.2727273   0.2727273), wk =   0.0045079
        k(  261) = (   0.1818182   0.2727273   0.3181818), wk =   0.0090158
        k(  262) = (   0.1818182   0.2727273   0.3636364), wk =   0.0090158
        k(  263) = (   0.1818182   0.2727273   0.4090909), wk =   0.0090158
        k(  264) = (   0.1818182   0.2727273   0.4545455), wk =   0.0090158
        k(  265) = (   0.1818182   0.2727273  -0.5000000), wk =   0.0045079
        k(  266) = (   0.1818182   0.3181818   0.3181818), wk =   0.0045079
        k(  267) = (   0.1818182   0.3181818   0.3636364), wk =   0.0090158
        k(  268) = (   0.1818182   0.3181818   0.4090909), wk =   0.0090158
        k(  269) = (   0.1818182   0.3181818   0.4545455), wk =   0.0090158
        k(  270) = (   0.1818182   0.3181818  -0.5000000), wk =   0.0045079
        k(  271) = (   0.1818182   0.3636364   0.3636364), wk =   0.0045079
        k(  272) = (   0.1818182   0.3636364   0.4090909), wk =   0.0090158
        k(  273) = (   0.1818182   0.3636364   0.4545455), wk =   0.0090158
        k(  274) = (   0.1818182   0.3636364  -0.5000000), wk =   0.0045079
        k(  275) = (   0.1818182   0.4090909   0.4090909), wk =   0.0045079
        k(  276) = (   0.1818182   0.4090909   0.4545455), wk =   0.0090158
        k(  277) = (   0.1818182   0.4090909  -0.5000000), wk =   0.0045079
        k(  278) = (   0.1818182   0.4545455   0.4545455), wk =   0.0045079
        k(  279) = (   0.1818182   0.4545455  -0.5000000), wk =   0.0045079
        k(  280) = (   0.1818182  -0.5000000  -0.5000000), wk =   0.0011270
        k(  281) = (   0.2272727   0.2272727   0.2272727), wk =   0.0015026
        k(  282) = (   0.2272727   0.2272727   0.2727273), wk =   0.0045079
        k(  283) = (   0.2272727   0.2272727   0.3181818), wk =   0.0045079
        k(  284) = (   0.2272727   0.2272727   0.3636364), wk =   0.0045079
        k(  285) = (   0.2272727   0.2272727   0.4090909), wk =   0.0045079
        k(  286) = (   0.2272727   0.2272727   0.4545455), wk =   0.0045079
        k(  287) = (   0.2272727   0.2272727  -0.5000000), wk =   0.0022539
        k(  288) = (   0.2272727   0.2727273   0.2727273), wk =   0.0045079
        k(  289) = (   0.2272727   0.2727273   0.3181818), wk =   0.0090158
        k(  290) = (   0.2272727   0.2727273   0.3636364), wk =   0.0090158
        k(  291) = (   0.2272727   0.2727273   0.4090909), wk =   0.0090158
        k(  292) = (   0.2272727   0.2727273   0.4545455), wk =   0.0090158
        k(  293) = (   0.2272727   0.2727273  -0.5000000), wk =   0.0045079
        k(  294) = (   0.2272727   0.3181818   0.3181818), wk =   0.0045079
        k(  295) = (   0.2272727   0.3181818   0.3636364), wk =   0.0090158
        k(  296) = (   0.2272727   0.3181818   0.4090909), wk =   0.0090158
        k(  297) = (   0.2272727   0.3181818   0.4545455), wk =   0.0090158
        k(  298) = (   0.2272727   0.3181818  -0.5000000), wk =   0.0045079
        k(  299) = (   0.2272727   0.3636364   0.3636364), wk =   0.0045079
        k(  300) = (   0.2272727   0.3636364   0.4090909), wk =   0.0090158
        k(  301) = (   0.2272727   0.3636364   0.4545455), wk =   0.0090158
        k(  302) = (   0.2272727   0.3636364  -0.5000000), wk =   0.0045079
        k(  303) = (   0.2272727   0.4090909   0.4090909), wk =   0.0045079
        k(  304) = (   0.2272727   0.4090909   0.4545455), wk =   0.0090158
        k(  305) = (   0.2272727   0.4090909  -0.5000000), wk =   0.0045079
        k(  306) = (   0.2272727   0.4545455   0.4545455), wk =   0.0045079
        k(  307) = (   0.2272727   0.4545455  -0.5000000), wk =   0.0045079
        k(  308) = (   0.2272727  -0.5000000  -0.5000000), wk =   0.0011270
        k(  309) = (   0.2727273   0.2727273   0.2727273), wk =   0.0015026
        k(  310) = (   0.2727273   0.2727273   0.3181818), wk =   0.0045079
        k(  311) = (   0.2727273   0.2727273   0.3636364), wk =   0.0045079
        k(  312) = (   0.2727273   0.2727273   0.4090909), wk =   0.0045079
        k(  313) = (   0.2727273   0.2727273   0.4545455), wk =   0.0045079
        k(  314) = (   0.2727273   0.2727273  -0.5000000), wk =   0.0022539
        k(  315) = (   0.2727273   0.3181818   0.3181818), wk =   0.0045079
        k(  316) = (   0.2727273   0.3181818   0.3636364), wk =   0.0090158
        k(  317) = (   0.2727273   0.3181818   0.4090909), wk =   0.0090158
        k(  318) = (   0.2727273   0.3181818   0.4545455), wk =   0.0090158
        k(  319) = (   0.2727273   0.3181818  -0.5000000), wk =   0.0045079
        k(  320) = (   0.2727273   0.3636364   0.3636364), wk =   0.0045079
        k(  321) = (   0.2727273   0.3636364   0.4090909), wk =   0.0090158
        k(  322) = (   0.2727273   0.3636364   0.4545455), wk =   0.0090158
        k(  323) = (   0.2727273   0.3636364  -0.5000000), wk =   0.0045079
        k(  324) = (   0.2727273   0.4090909   0.4090909), wk =   0.0045079
        k(  325) = (   0.2727273   0.4090909   0.4545455), wk =   0.0090158
        k(  326) = (   0.2727273   0.4090909  -0.5000000), wk =   0.0045079
        k(  327) = (   0.2727273   0.4545455   0.4545455), wk =   0.0045079
        k(  328) = (   0.2727273   0.4545455  -0.5000000), wk =   0.0045079
        k(  329) = (   0.2727273  -0.5000000  -0.5000000), wk =   0.0011270
        k(  330) = (   0.3181818   0.3181818   0.3181818), wk =   0.0015026
        k(  331) = (   0.3181818   0.3181818   0.3636364), wk =   0.0045079
        k(  332) = (   0.3181818   0.3181818   0.4090909), wk =   0.0045079
        k(  333) = (   0.3181818   0.3181818   0.4545455), wk =   0.0045079
        k(  334) = (   0.3181818   0.3181818  -0.5000000), wk =   0.0022539
        k(  335) = (   0.3181818   0.3636364   0.3636364), wk =   0.0045079
        k(  336) = (   0.3181818   0.3636364   0.4090909), wk =   0.0090158
        k(  337) = (   0.3181818   0.3636364   0.4545455), wk =   0.0090158
        k(  338) = (   0.3181818   0.3636364  -0.5000000), wk =   0.0045079
        k(  339) = (   0.3181818   0.4090909   0.4090909), wk =   0.0045079
        k(  340) = (   0.3181818   0.4090909   0.4545455), wk =   0.0090158
        k(  341) = (   0.3181818   0.4090909  -0.5000000), wk =   0.0045079
        k(  342) = (   0.3181818   0.4545455   0.4545455), wk =   0.0045079
        k(  343) = (   0.3181818   0.4545455  -0.5000000), wk =   0.0045079
        k(  344) = (   0.3181818  -0.5000000  -0.5000000), wk =   0.0011270
        k(  345) = (   0.3636364   0.3636364   0.3636364), wk =   0.0015026
        k(  346) = (   0.3636364   0.3636364   0.4090909), wk =   0.0045079
        k(  347) = (   0.3636364   0.3636364   0.4545455), wk =   0.0045079
        k(  348) = (   0.3636364   0.3636364  -0.5000000), wk =   0.0022539
        k(  349) = (   0.3636364   0.4090909   0.4090909), wk =   0.0045079
        k(  350) = (   0.3636364   0.4090909   0.4545455), wk =   0.0090158
        k(  351) = (   0.3636364   0.4090909  -0.5000000), wk =   0.0045079
        k(  352) = (   0.3636364   0.4545455   0.4545455), wk =   0.0045079
        k(  353) = (   0.3636364   0.4545455  -0.5000000), wk =   0.0045079
        k(  354) = (   0.3636364  -0.5000000  -0.5000000), wk =   0.0011270
        k(  355) = (   0.4090909   0.4090909   0.4090909), wk =   0.0015026
        k(  356) = (   0.4090909   0.4090909   0.4545455), wk =   0.0045079
        k(  357) = (   0.4090909   0.4090909  -0.5000000), wk =   0.0022539
        k(  358) = (   0.4090909   0.4545455   0.4545455), wk =   0.0045079
        k(  359) = (   0.4090909   0.4545455  -0.5000000), wk =   0.0045079
        k(  360) = (   0.4090909  -0.5000000  -0.5000000), wk =   0.0011270
        k(  361) = (   0.4545455   0.4545455   0.4545455), wk =   0.0015026
        k(  362) = (   0.4545455   0.4545455  -0.5000000), wk =   0.0022539
        k(  363) = (   0.4545455  -0.5000000  -0.5000000), wk =   0.0011270
        k(  364) = (  -0.5000000  -0.5000000  -0.5000000), wk =   0.0001878

                       cryst. coord.
        k(    1) = (   0.0000000   0.0000000   0.0000000), wk =   0.0001878
        k(    2) = (   0.0000000   0.0000000   0.0454545), wk =   0.0011270
        k(    3) = (   0.0000000   0.0000000   0.0909091), wk =   0.0011270
        k(    4) = (   0.0000000   0.0000000   0.1363636), wk =   0.0011270
        k(    5) = (   0.0000000   0.0000000   0.1818182), wk =   0.0011270
        k(    6) = (   0.0000000   0.0000000   0.2272727), wk =   0.0011270
        k(    7) = (   0.0000000   0.0000000   0.2727273), wk =   0.0011270
        k(    8) = (   0.0000000   0.0000000   0.3181818), wk =   0.0011270
        k(    9) = (   0.0000000   0.0000000   0.3636364), wk =   0.0011270
        k(   10) = (   0.0000000   0.0000000   0.4090909), wk =   0.0011270
        k(   11) = (   0.0000000   0.0000000   0.4545455), wk =   0.0011270
        k(   12) = (   0.0000000   0.0000000  -0.5000000), wk =   0.0005635
        k(   13) = (   0.0000000   0.0454545   0.0454545), wk =   0.0022539
        k(   14) = (   0.0000000   0.0454545   0.0909091), wk =   0.0045079
        k(   15) = (   0.0000000   0.0454545   0.1363636), wk =   0.0045079
        k(   16) = (   0.0000000   0.0454545   0.1818182), wk =   0.0045079
        k(   17) = (   0.0000000   0.0454545   0.2272727), wk =   0.0045079
        k(   18) = (   0.0000000   0.0454545   0.2727273), wk =   0.0045079
        k(   19) = (   0.0000000   0.0454545   0.3181818), wk =   0.0045079
        k(   20) = (   0.0000000   0.0454545   0.3636364), wk =   0.0045079
        k(   21) = (   0.0000000   0.0454545   0.4090909), wk =   0.0045079
        k(   22) = (   0.0000000   0.0454545   0.4545455), wk =   0.0045079
        k(   23) = (   0.0000000   0.0454545  -0.5000000), wk =   0.0022539
        k(   24) = (   0.0000000   0.0909091   0.0909091), wk =   0.0022539
        k(   25) = (   0.0000000   0.0909091   0.1363636), wk =   0.0045079
        k(   26) = (   0.0000000   0.0909091   0.1818182), wk =   0.0045079
        k(   27) = (   0.0000000   0.0909091   0.2272727), wk =   0.0045079
        k(   28) = (   0.0000000   0.0909091   0.2727273), wk =   0.0045079
        k(   29) = (   0.0000000   0.0909091   0.3181818), wk =   0.0045079
        k(   30) = (   0.0000000   0.0909091   0.3636364), wk =   0.0045079
        k(   31) = (   0.0000000   0.0909091   0.4090909), wk =   0.0045079
        k(   32) = (   0.0000000   0.0909091   0.4545455), wk =   0.0045079
        k(   33) = (   0.0000000   0.0909091  -0.5000000), wk =   0.0022539
        k(   34) = (   0.0000000   0.1363636   0.1363636), wk =   0.0022539
        k(   35) = (   0.0000000   0.1363636   0.1818182), wk =   0.0045079
        k(   36) = (   0.0000000   0.1363636   0.2272727), wk =   0.0045079
        k(   37) = (   0.0000000   0.1363636   0.2727273), wk =   0.0045079
        k(   38) = (   0.0000000   0.1363636   0.3181818), wk =   0.0045079
        k(   39) = (   0.0000000   0.1363636   0.3636364), wk =   0.0045079
        k(   40) = (   0.0000000   0.1363636   0.4090909), wk =   0.0045079
        k(   41) = (   0.0000000   0.1363636   0.4545455), wk =   0.0045079
        k(   42) = (   0.0000000   0.1363636  -0.5000000), wk =   0.0022539
        k(   43) = (   0.0000000   0.1818182   0.1818182), wk =   0.0022539
        k(   44) = (   0.0000000   0.1818182   0.2272727), wk =   0.0045079
        k(   45) = (   0.0000000   0.1818182   0.2727273), wk =   0.0045079
        k(   46) = (   0.0000000   0.1818182   0.3181818), wk =   0.0045079
        k(   47) = (   0.0000000   0.1818182   0.3636364), wk =   0.0045079
        k(   48) = (   0.0000000   0.1818182   0.4090909), wk =   0.0045079
        k(   49) = (   0.0000000   0.1818182   0.4545455), wk =   0.0045079
        k(   50) = (   0.0000000   0.1818182  -0.5000000), wk =   0.0022539
        k(   51) = (   0.0000000   0.2272727   0.2272727), wk =   0.0022539
        k(   52) = (   0.0000000   0.2272727   0.2727273), wk =   0.0045079
        k(   53) = (   0.0000000   0.2272727   0.3181818), wk =   0.0045079
        k(   54) = (   0.0000000   0.2272727   0.3636364), wk =   0.0045079
        k(   55) = (   0.0000000   0.2272727   0.4090909), wk =   0.0045079
        k(   56) = (   0.0000000   0.2272727   0.4545455), wk =   0.0045079
        k(   57) = (   0.0000000   0.2272727  -0.5000000), wk =   0.0022539
        k(   58) = (   0.0000000   0.2727273   0.2727273), wk =   0.0022539
        k(   59) = (   0.0000000   0.2727273   0.3181818), wk =   0.0045079
        k(   60) = (   0.0000000   0.2727273   0.3636364), wk =   0.0045079
        k(   61) = (   0.0000000   0.2727273   0.4090909), wk =   0.0045079
        k(   62) = (   0.0000000   0.2727273   0.4545455), wk =   0.0045079
        k(   63) = (   0.0000000   0.2727273  -0.5000000), wk =   0.0022539
        k(   64) = (   0.0000000   0.3181818   0.3181818), wk =   0.0022539
        k(   65) = (   0.0000000   0.3181818   0.3636364), wk =   0.0045079
        k(   66) = (   0.0000000   0.3181818   0.4090909), wk =   0.0045079
        k(   67) = (   0.0000000   0.3181818   0.4545455), wk =   0.0045079
        k(   68) = (   0.0000000   0.3181818  -0.5000000), wk =   0.0022539
        k(   69) = (   0.0000000   0.3636364   0.3636364), wk =   0.0022539
        k(   70) = (   0.0000000   0.3636364   0.4090909), wk =   0.0045079
        k(   71) = (   0.0000000   0.3636364   0.4545455), wk =   0.0045079
        k(   72) = (   0.0000000   0.3636364  -0.5000000), wk =   0.0022539
        k(   73) = (   0.0000000   0.4090909   0.4090909), wk =   0.0022539
        k(   74) = (   0.0000000   0.4090909   0.4545455), wk =   0.0045079
        k(   75) = (   0.0000000   0.4090909  -0.5000000), wk =   0.0022539
        k(   76) = (   0.0000000   0.4545455   0.4545455), wk =   0.0022539
        k(   77) = (   0.0000000   0.4545455  -0.5000000), wk =   0.0022539
        k(   78) = (   0.0000000  -0.5000000  -0.5000000), wk =   0.0005635
        k(   79) = (   0.0454545   0.0454545   0.0454545), wk =   0.0015026
        k(   80) = (   0.0454545   0.0454545   0.0909091), wk =   0.0045079
        k(   81) = (   0.0454545   0.0454545   0.1363636), wk =   0.0045079
        k(   82) = (   0.0454545   0.0454545   0.1818182), wk =   0.0045079
        k(   83) = (   0.0454545   0.0454545   0.2272727), wk =   0.0045079
        k(   84) = (   0.0454545   0.0454545   0.2727273), wk =   0.0045079
        k(   85) = (   0.0454545   0.0454545   0.3181818), wk =   0.0045079
        k(   86) = (   0.0454545   0.0454545   0.3636364), wk =   0.0045079
        k(   87) = (   0.0454545   0.0454545   0.4090909), wk =   0.0045079
        k(   88) = (   0.0454545   0.0454545   0.4545455), wk =   0.0045079
        k(   89) = (   0.0454545   0.0454545  -0.5000000), wk =   0.0022539
        k(   90) = (   0.0454545   0.0909091   0.0909091), wk =   0.0045079
        k(   91) = (   0.0454545   0.0909091   0.1363636), wk =   0.0090158
        k(   92) = (   0.0454545   0.0909091   0.1818182), wk =   0.0090158
        k(   93) = (   0.0454545   0.0909091   0.2272727), wk =   0.0090158
        k(   94) = (   0.0454545   0.0909091   0.2727273), wk =   0.0090158
        k(   95) = (   0.0454545   0.0909091   0.3181818), wk =   0.0090158
        k(   96) = (   0.0454545   0.0909091   0.3636364), wk =   0.0090158
        k(   97) = (   0.0454545   0.0909091   0.4090909), wk =   0.0090158
        k(   98) = (   0.0454545   0.0909091   0.4545455), wk =   0.0090158
        k(   99) = (   0.0454545   0.0909091  -0.5000000), wk =   0.0045079
        k(  100) = (   0.0454545   0.1363636   0.1363636), wk =   0.0045079
        k(  101) = (   0.0454545   0.1363636   0.1818182), wk =   0.0090158
        k(  102) = (   0.0454545   0.1363636   0.2272727), wk =   0.0090158
        k(  103) = (   0.0454545   0.1363636   0.2727273), wk =   0.0090158
        k(  104) = (   0.0454545   0.1363636   0.3181818), wk =   0.0090158
        k(  105) = (   0.0454545   0.1363636   0.3636364), wk =   0.0090158
        k(  106) = (   0.0454545   0.1363636   0.4090909), wk =   0.0090158
        k(  107) = (   0.0454545   0.1363636   0.4545455), wk =   0.0090158
        k(  108) = (   0.0454545   0.1363636  -0.5000000), wk =   0.0045079
        k(  109) = (   0.0454545   0.1818182   0.1818182), wk =   0.0045079
        k(  110) = (   0.0454545   0.1818182   0.2272727), wk =   0.0090158
        k(  111) = (   0.0454545   0.1818182   0.2727273), wk =   0.0090158
        k(  112) = (   0.0454545   0.1818182   0.3181818), wk =   0.0090158
        k(  113) = (   0.0454545   0.1818182   0.3636364), wk =   0.0090158
        k(  114) = (   0.0454545   0.1818182   0.4090909), wk =   0.0090158
        k(  115) = (   0.0454545   0.1818182   0.4545455), wk =   0.0090158
        k(  116) = (   0.0454545   0.1818182  -0.5000000), wk =   0.0045079
        k(  117) = (   0.0454545   0.2272727   0.2272727), wk =   0.0045079
        k(  118) = (   0.0454545   0.2272727   0.2727273), wk =   0.0090158
        k(  119) = (   0.0454545   0.2272727   0.3181818), wk =   0.0090158
        k(  120) = (   0.0454545   0.2272727   0.3636364), wk =   0.0090158
        k(  121) = (   0.0454545   0.2272727   0.4090909), wk =   0.0090158
        k(  122) = (   0.0454545   0.2272727   0.4545455), wk =   0.0090158
        k(  123) = (   0.0454545   0.2272727  -0.5000000), wk =   0.0045079
        k(  124) = (   0.0454545   0.2727273   0.2727273), wk =   0.0045079
        k(  125) = (   0.0454545   0.2727273   0.3181818), wk =   0.0090158
        k(  126) = (   0.0454545   0.2727273   0.3636364), wk =   0.0090158
        k(  127) = (   0.0454545   0.2727273   0.4090909), wk =   0.0090158
        k(  128) = (   0.0454545   0.2727273   0.4545455), wk =   0.0090158
        k(  129) = (   0.0454545   0.2727273  -0.5000000), wk =   0.0045079
        k(  130) = (   0.0454545   0.3181818   0.3181818), wk =   0.0045079
        k(  131) = (   0.0454545   0.3181818   0.3636364), wk =   0.0090158
        k(  132) = (   0.0454545   0.3181818   0.4090909), wk =   0.0090158
        k(  133) = (   0.0454545   0.3181818   0.4545455), wk =   0.0090158
        k(  134) = (   0.0454545   0.3181818  -0.5000000), wk =   0.0045079
        k(  135) = (   0.0454545   0.3636364   0.3636364), wk =   0.0045079
        k(  136) = (   0.0454545   0.3636364   0.4090909), wk =   0.0090158
        k(  137) = (   0.0454545   0.3636364   0.4545455), wk =   0.0090158
        k(  138) = (   0.0454545   0.3636364  -0.5000000), wk =   0.0045079
        k(  139) = (   0.0454545   0.4090909   0.4090909), wk =   0.0045079
        k(  140) = (   0.0454545   0.4090909   0.4545455), wk =   0.0090158
        k(  141) = (   0.0454545   0.4090909  -0.5000000), wk =   0.0045079
        k(  142) = (   0.0454545   0.4545455   0.4545455), wk =   0.0045079
        k(  143) = (   0.0454545   0.4545455  -0.5000000), wk =   0.0045079
        k(  144) = (   0.0454545  -0.5000000  -0.5000000), wk =   0.0011270
        k(  145) = (   0.0909091   0.0909091   0.0909091), wk =   0.0015026
        k(  146) = (   0.0909091   0.0909091   0.1363636), wk =   0.0045079
        k(  147) = (   0.0909091   0.0909091   0.1818182), wk =   0.0045079
        k(  148) = (   0.0909091   0.0909091   0.2272727), wk =   0.0045079
        k(  149) = (   0.0909091   0.0909091   0.2727273), wk =   0.0045079
        k(  150) = (   0.0909091   0.0909091   0.3181818), wk =   0.0045079
        k(  151) = (   0.0909091   0.0909091   0.3636364), wk =   0.0045079
        k(  152) = (   0.0909091   0.0909091   0.4090909), wk =   0.0045079
        k(  153) = (   0.0909091   0.0909091   0.4545455), wk =   0.0045079
        k(  154) = (   0.0909091   0.0909091  -0.5000000), wk =   0.0022539
        k(  155) = (   0.0909091   0.1363636   0.1363636), wk =   0.0045079
        k(  156) = (   0.0909091   0.1363636   0.1818182), wk =   0.0090158
        k(  157) = (   0.0909091   0.1363636   0.2272727), wk =   0.0090158
        k(  158) = (   0.0909091   0.1363636   0.2727273), wk =   0.0090158
        k(  159) = (   0.0909091   0.1363636   0.3181818), wk =   0.0090158
        k(  160) = (   0.0909091   0.1363636   0.3636364), wk =   0.0090158
        k(  161) = (   0.0909091   0.1363636   0.4090909), wk =   0.0090158
        k(  162) = (   0.0909091   0.1363636   0.4545455), wk =   0.0090158
        k(  163) = (   0.0909091   0.1363636  -0.5000000), wk =   0.0045079
        k(  164) = (   0.0909091   0.1818182   0.1818182), wk =   0.0045079
        k(  165) = (   0.0909091   0.1818182   0.2272727), wk =   0.0090158
        k(  166) = (   0.0909091   0.1818182   0.2727273), wk =   0.0090158
        k(  167) = (   0.0909091   0.1818182   0.3181818), wk =   0.0090158
        k(  168) = (   0.0909091   0.1818182   0.3636364), wk =   0.0090158
        k(  169) = (   0.0909091   0.1818182   0.4090909), wk =   0.0090158
        k(  170) = (   0.0909091   0.1818182   0.4545455), wk =   0.0090158
        k(  171) = (   0.0909091   0.1818182  -0.5000000), wk =   0.0045079
        k(  172) = (   0.0909091   0.2272727   0.2272727), wk =   0.0045079
        k(  173) = (   0.0909091   0.2272727   0.2727273), wk =   0.0090158
        k(  174) = (   0.0909091   0.2272727   0.3181818), wk =   0.0090158
        k(  175) = (   0.0909091   0.2272727   0.3636364), wk =   0.0090158
        k(  176) = (   0.0909091   0.2272727   0.4090909), wk =   0.0090158
        k(  177) = (   0.0909091   0.2272727   0.4545455), wk =   0.0090158
        k(  178) = (   0.0909091   0.2272727  -0.5000000), wk =   0.0045079
        k(  179) = (   0.0909091   0.2727273   0.2727273), wk =   0.0045079
        k(  180) = (   0.0909091   0.2727273   0.3181818), wk =   0.0090158
        k(  181) = (   0.0909091   0.2727273   0.3636364), wk =   0.0090158
        k(  182) = (   0.0909091   0.2727273   0.4090909), wk =   0.0090158
        k(  183) = (   0.0909091   0.2727273   0.4545455), wk =   0.0090158
        k(  184) = (   0.0909091   0.2727273  -0.5000000), wk =   0.0045079
        k(  185) = (   0.0909091   0.3181818   0.3181818), wk =   0.0045079
        k(  186) = (   0.0909091   0.3181818   0.3636364), wk =   0.0090158
        k(  187) = (   0.0909091   0.3181818   0.4090909), wk =   0.0090158
        k(  188) = (   0.0909091   0.3181818   0.4545455), wk =   0.0090158
        k(  189) = (   0.0909091   0.3181818  -0.5000000), wk =   0.0045079
        k(  190) = (   0.0909091   0.3636364   0.3636364), wk =   0.0045079
        k(  191) = (   0.0909091   0.3636364   0.4090909), wk =   0.0090158
        k(  192) = (   0.0909091   0.3636364   0.4545455), wk =   0.0090158
        k(  193) = (   0.0909091   0.3636364  -0.5000000), wk =   0.0045079
        k(  194) = (   0.0909091   0.4090909   0.4090909), wk =   0.0045079
        k(  195) = (   0.0909091   0.4090909   0.4545455), wk =   0.0090158
        k(  196) = (   0.0909091   0.4090909  -0.5000000), wk =   0.0045079
        k(  197) = (   0.0909091   0.4545455   0.4545455), wk =   0.0045079
        k(  198) = (   0.0909091   0.4545455  -0.5000000), wk =   0.0045079
        k(  199) = (   0.0909091  -0.5000000  -0.5000000), wk =   0.0011270
        k(  200) = (   0.1363636   0.1363636   0.1363636), wk =   0.0015026
        k(  201) = (   0.1363636   0.1363636   0.1818182), wk =   0.0045079
        k(  202) = (   0.1363636   0.1363636   0.2272727), wk =   0.0045079
        k(  203) = (   0.1363636   0.1363636   0.2727273), wk =   0.0045079
        k(  204) = (   0.1363636   0.1363636   0.3181818), wk =   0.0045079
        k(  205) = (   0.1363636   0.1363636   0.3636364), wk =   0.0045079
        k(  206) = (   0.1363636   0.1363636   0.4090909), wk =   0.0045079
        k(  207) = (   0.1363636   0.1363636   0.4545455), wk =   0.0045079
        k(  208) = (   0.1363636   0.1363636  -0.5000000), wk =   0.0022539
        k(  209) = (   0.1363636   0.1818182   0.1818182), wk =   0.0045079
        k(  210) = (   0.1363636   0.1818182   0.2272727), wk =   0.0090158
        k(  211) = (   0.1363636   0.1818182   0.2727273), wk =   0.0090158
        k(  212) = (   0.1363636   0.1818182   0.3181818), wk =   0.0090158
        k(  213) = (   0.1363636   0.1818182   0.3636364), wk =   0.0090158
        k(  214) = (   0.1363636   0.1818182   0.4090909), wk =   0.0090158
        k(  215) = (   0.1363636   0.1818182   0.4545455), wk =   0.0090158
        k(  216) = (   0.1363636   0.1818182  -0.5000000), wk =   0.0045079
        k(  217) = (   0.1363636   0.2272727   0.2272727), wk =   0.0045079
        k(  218) = (   0.1363636   0.2272727   0.2727273), wk =   0.0090158
        k(  219) = (   0.1363636   0.2272727   0.3181818), wk =   0.0090158
        k(  220) = (   0.1363636   0.2272727   0.3636364), wk =   0.0090158
        k(  221) = (   0.1363636   0.2272727   0.4090909), wk =   0.0090158
        k(  222) = (   0.1363636   0.2272727   0.4545455), wk =   0.0090158
        k(  223) = (   0.1363636   0.2272727  -0.5000000), wk =   0.0045079
        k(  224) = (   0.1363636   0.2727273   0.2727273), wk =   0.0045079
        k(  225) = (   0.1363636   0.2727273   0.3181818), wk =   0.0090158
        k(  226) = (   0.1363636   0.2727273   0.3636364), wk =   0.0090158
        k(  227) = (   0.1363636   0.2727273   0.4090909), wk =   0.0090158
        k(  228) = (   0.1363636   0.2727273   0.4545455), wk =   0.0090158
        k(  229) = (   0.1363636   0.2727273  -0.5000000), wk =   0.0045079
        k(  230) = (   0.1363636   0.3181818   0.3181818), wk =   0.0045079
        k(  231) = (   0.1363636   0.3181818   0.3636364), wk =   0.0090158
        k(  232) = (   0.1363636   0.3181818   0.4090909), wk =   0.0090158
        k(  233) = (   0.1363636   0.3181818   0.4545455), wk =   0.0090158
        k(  234) = (   0.1363636   0.3181818  -0.5000000), wk =   0.0045079
        k(  235) = (   0.1363636   0.3636364   0.3636364), wk =   0.0045079
        k(  236) = (   0.1363636   0.3636364   0.4090909), wk =   0.0090158
        k(  237) = (   0.1363636   0.3636364   0.4545455), wk =   0.0090158
        k(  238) = (   0.1363636   0.3636364  -0.5000000), wk =   0.0045079
        k(  239) = (   0.1363636   0.4090909   0.4090909), wk =   0.0045079
        k(  240) = (   0.1363636   0.4090909   0.4545455), wk =   0.0090158
        k(  241) = (   0.1363636   0.4090909  -0.5000000), wk =   0.0045079
        k(  242) = (   0.1363636   0.4545455   0.4545455), wk =   0.0045079
        k(  243) = (   0.1363636   0.4545455  -0.5000000), wk =   0.0045079
        k(  244) = (   0.1363636  -0.5000000  -0.5000000), wk =   0.0011270
        k(  245) = (   0.1818182   0.1818182   0.1818182), wk =   0.0015026
        k(  246) = (   0.1818182   0.1818182   0.2272727), wk =   0.0045079
        k(  247) = (   0.1818182   0.1818182   0.2727273), wk =   0.0045079
        k(  248) = (   0.1818182   0.1818182   0.3181818), wk =   0.0045079
        k(  249) = (   0.1818182   0.1818182   0.3636364), wk =   0.0045079
        k(  250) = (   0.1818182   0.1818182   0.4090909), wk =   0.0045079
        k(  251) = (   0.1818182   0.1818182   0.4545455), wk =   0.0045079
        k(  252) = (   0.1818182   0.1818182  -0.5000000), wk =   0.0022539
        k(  253) = (   0.1818182   0.2272727   0.2272727), wk =   0.0045079
        k(  254) = (   0.1818182   0.2272727   0.2727273), wk =   0.0090158
        k(  255) = (   0.1818182   0.2272727   0.3181818), wk =   0.0090158
        k(  256) = (   0.1818182   0.2272727   0.3636364), wk =   0.0090158
        k(  257) = (   0.1818182   0.2272727   0.4090909), wk =   0.0090158
        k(  258) = (   0.1818182   0.2272727   0.4545455), wk =   0.0090158
        k(  259) = (   0.1818182   0.2272727  -0.5000000), wk =   0.0045079
        k(  260) = (   0.1818182   0.2727273   0.2727273), wk =   0.0045079
        k(  261) = (   0.1818182   0.2727273   0.3181818), wk =   0.0090158
        k(  262) = (   0.1818182   0.2727273   0.3636364), wk =   0.0090158
        k(  263) = (   0.1818182   0.2727273   0.4090909), wk =   0.0090158
        k(  264) = (   0.1818182   0.2727273   0.4545455), wk =   0.0090158
        k(  265) = (   0.1818182   0.2727273  -0.5000000), wk =   0.0045079
        k(  266) = (   0.1818182   0.3181818   0.3181818), wk =   0.0045079
        k(  267) = (   0.1818182   0.3181818   0.3636364), wk =   0.0090158
        k(  268) = (   0.1818182   0.3181818   0.4090909), wk =   0.0090158
        k(  269) = (   0.1818182   0.3181818   0.4545455), wk =   0.0090158
        k(  270) = (   0.1818182   0.3181818  -0.5000000), wk =   0.0045079
        k(  271) = (   0.1818182   0.3636364   0.3636364), wk =   0.0045079
        k(  272) = (   0.1818182   0.3636364   0.4090909), wk =   0.0090158
        k(  273) = (   0.1818182   0.3636364   0.4545455), wk =   0.0090158
        k(  274) = (   0.1818182   0.3636364  -0.5000000), wk =   0.0045079
        k(  275) = (   0.1818182   0.4090909   0.4090909), wk =   0.0045079
        k(  276) = (   0.1818182   0.4090909   0.4545455), wk =   0.0090158
        k(  277) = (   0.1818182   0.4090909  -0.5000000), wk =   0.0045079
        k(  278) = (   0.1818182   0.4545455   0.4545455), wk =   0.0045079
        k(  279) = (   0.1818182   0.4545455  -0.5000000), wk =   0.0045079
        k(  280) = (   0.1818182  -0.5000000  -0.5000000), wk =   0.0011270
        k(  281) = (   0.2272727   0.2272727   0.2272727), wk =   0.0015026
        k(  282) = (   0.2272727   0.2272727   0.2727273), wk =   0.0045079
        k(  283) = (   0.2272727   0.2272727   0.3181818), wk =   0.0045079
        k(  284) = (   0.2272727   0.2272727   0.3636364), wk =   0.0045079
        k(  285) = (   0.2272727   0.2272727   0.4090909), wk =   0.0045079
        k(  286) = (   0.2272727   0.2272727   0.4545455), wk =   0.0045079
        k(  287) = (   0.2272727   0.2272727  -0.5000000), wk =   0.0022539
        k(  288) = (   0.2272727   0.2727273   0.2727273), wk =   0.0045079
        k(  289) = (   0.2272727   0.2727273   0.3181818), wk =   0.0090158
        k(  290) = (   0.2272727   0.2727273   0.3636364), wk =   0.0090158
        k(  291) = (   0.2272727   0.2727273   0.4090909), wk =   0.0090158
        k(  292) = (   0.2272727   0.2727273   0.4545455), wk =   0.0090158
        k(  293) = (   0.2272727   0.2727273  -0.5000000), wk =   0.0045079
        k(  294) = (   0.2272727   0.3181818   0.3181818), wk =   0.0045079
        k(  295) = (   0.2272727   0.3181818   0.3636364), wk =   0.0090158
        k(  296) = (   0.2272727   0.3181818   0.4090909), wk =   0.0090158
        k(  297) = (   0.2272727   0.3181818   0.4545455), wk =   0.0090158
        k(  298) = (   0.2272727   0.3181818  -0.5000000), wk =   0.0045079
        k(  299) = (   0.2272727   0.3636364   0.3636364), wk =   0.0045079
        k(  300) = (   0.2272727   0.3636364   0.4090909), wk =   0.0090158
        k(  301) = (   0.2272727   0.3636364   0.4545455), wk =   0.0090158
        k(  302) = (   0.2272727   0.3636364  -0.5000000), wk =   0.0045079
        k(  303) = (   0.2272727   0.4090909   0.4090909), wk =   0.0045079
        k(  304) = (   0.2272727   0.4090909   0.4545455), wk =   0.0090158
        k(  305) = (   0.2272727   0.4090909  -0.5000000), wk =   0.0045079
        k(  306) = (   0.2272727   0.4545455   0.4545455), wk =   0.0045079
        k(  307) = (   0.2272727   0.4545455  -0.5000000), wk =   0.0045079
        k(  308) = (   0.2272727  -0.5000000  -0.5000000), wk =   0.0011270
        k(  309) = (   0.2727273   0.2727273   0.2727273), wk =   0.0015026
        k(  310) = (   0.2727273   0.2727273   0.3181818), wk =   0.0045079
        k(  311) = (   0.2727273   0.2727273   0.3636364), wk =   0.0045079
        k(  312) = (   0.2727273   0.2727273   0.4090909), wk =   0.0045079
        k(  313) = (   0.2727273   0.2727273   0.4545455), wk =   0.0045079
        k(  314) = (   0.2727273   0.2727273  -0.5000000), wk =   0.0022539
        k(  315) = (   0.2727273   0.3181818   0.3181818), wk =   0.0045079
        k(  316) = (   0.2727273   0.3181818   0.3636364), wk =   0.0090158
        k(  317) = (   0.2727273   0.3181818   0.4090909), wk =   0.0090158
        k(  318) = (   0.2727273   0.3181818   0.4545455), wk =   0.0090158
        k(  319) = (   0.2727273   0.3181818  -0.5000000), wk =   0.0045079
        k(  320) = (   0.2727273   0.3636364   0.3636364), wk =   0.0045079
        k(  321) = (   0.2727273   0.3636364   0.4090909), wk =   0.0090158
        k(  322) = (   0.2727273   0.3636364   0.4545455), wk =   0.0090158
        k(  323) = (   0.2727273   0.3636364  -0.5000000), wk =   0.0045079
        k(  324) = (   0.2727273   0.4090909   0.4090909), wk =   0.0045079
        k(  325) = (   0.2727273   0.4090909   0.4545455), wk =   0.0090158
        k(  326) = (   0.2727273   0.4090909  -0.5000000), wk =   0.0045079
        k(  327) = (   0.2727273   0.4545455   0.4545455), wk =   0.0045079
        k(  328) = (   0.2727273   0.4545455  -0.5000000), wk =   0.0045079
        k(  329) = (   0.2727273  -0.5000000  -0.5000000), wk =   0.0011270
        k(  330) = (   0.3181818   0.3181818   0.3181818), wk =   0.0015026
        k(  331) = (   0.3181818   0.3181818   0.3636364), wk =   0.0045079
        k(  332) = (   0.3181818   0.3181818   0.4090909), wk =   0.0045079
        k(  333) = (   0.3181818   0.3181818   0.4545455), wk =   0.0045079
        k(  334) = (   0.3181818   0.3181818  -0.5000000), wk =   0.0022539
        k(  335) = (   0.3181818   0.3636364   0.3636364), wk =   0.0045079
        k(  336) = (   0.3181818   0.3636364   0.4090909), wk =   0.0090158
        k(  337) = (   0.3181818   0.3636364   0.4545455), wk =   0.0090158
        k(  338) = (   0.3181818   0.3636364  -0.5000000), wk =   0.0045079
        k(  339) = (   0.3181818   0.4090909   0.4090909), wk =   0.0045079
        k(  340) = (   0.3181818   0.4090909   0.4545455), wk =   0.0090158
        k(  341) = (   0.3181818   0.4090909  -0.5000000), wk =   0.0045079
        k(  342) = (   0.3181818   0.4545455   0.4545455), wk =   0.0045079
        k(  343) = (   0.3181818   0.4545455  -0.5000000), wk =   0.0045079
        k(  344) = (   0.3181818  -0.5000000  -0.5000000), wk =   0.0011270
        k(  345) = (   0.3636364   0.3636364   0.3636364), wk =   0.0015026
        k(  346) = (   0.3636364   0.3636364   0.4090909), wk =   0.0045079
        k(  347) = (   0.3636364   0.3636364   0.4545455), wk =   0.0045079
        k(  348) = (   0.3636364   0.3636364  -0.5000000), wk =   0.0022539
        k(  349) = (   0.3636364   0.4090909   0.4090909), wk =   0.0045079
[...]
     1.0000   1.0000   1.0000   1.0000   0.0000   0.0000   0.0000   0.0000

          k = 0.3182 0.3636 0.3636 (  1177 PWs)   bands (ev):

   -42.8573 -19.4668 -19.4184 -19.4019 -19.2924  -4.2793  -3.7345  -3.6726
    -1.7581  -1.6343  -1.2027   8.0326   8.3644   8.4859   8.7100   8.8087
     8.9179  12.0526  12.1211  12.4276  17.8276  17.8315  17.9279  21.3695

     occupation numbers 
     1.0000   1.0000   1.0000   1.0000   1.0000   1.0000   1.0000   1.0000
     1.0000   1.0000   1.0000   1.0000   1.0000   1.0000   1.0000   1.0000
     1.0000   1.0000   1.0000   1.0000   0.0000   0.0000   0.0000   0.0000

          k = 0.3182 0.3636 0.4091 (  1166 PWs)   bands (ev):

   -42.8571 -19.4638 -19.4217 -19.4004 -19.3022  -4.1935  -3.7150  -3.6217
    -1.8267  -1.6120  -1.2900   8.0183   8.2121   8.4171   8.6734   8.7588
     8.9328  12.0920  12.1949  12.4909  17.8647  17.9674  18.0524  21.2614

     occupation numbers 
     1.0000   1.0000   1.0000   1.0000   1.0000   1.0000   1.0000   1.0000
     1.0000   1.0000   1.0000   1.0000   1.0000   1.0000   1.0000   1.0000
     1.0000   1.0000   1.0000   1.0000   0.0000   0.0000   0.0000   0.0000

          k = 0.3182 0.3636 0.4545 (  1171 PWs)   bands (ev):

   -42.8569 -19.4664 -19.4190 -19.3985 -19.3099  -4.1408  -3.7014  -3.5865
    -1.8800  -1.5636  -1.3702   7.9256   8.1784   8.3812   8.6631   8.7128
     8.9602  12.1083  12.2432  12.5307  17.8869  18.0610  18.1386  21.1871

     occupation numbers 
     1.0000   1.0000   1.0000   1.0000   1.0000   1.0000   1.0000   1.0000
     1.0000   1.0000   1.0000   1.0000   1.0000   1.0000   1.0000   1.0000
     1.0000   1.0000   1.0000   1.0000   0.0000   0.0000   0.0000   0.0000

          k = 0.3182 0.3636-0.5000 (  1174 PWs)   bands (ev):

   -42.8569 -19.4680 -19.4174 -19.3975 -19.3129  -4.1232  -3.6960  -3.5741
    -1.8994  -1.5296  -1.4141   7.8793   8.1829   8.3661   8.6655   8.6923
     8.9707  12.1131  12.2594  12.5440  17.8945  18.0944  18.1697  21.1604

     occupation numbers 
     1.0000   1.0000   1.0000   1.0000   1.0000   1.0000   1.0000   1.0000
     1.0000   1.0000   1.0000   1.0000   1.0000   1.0000   1.0000   1.0000
     1.0000   1.0000   1.0000   1.0000   0.0000   0.0000   0.0000   0.0000

          k = 0.3182 0.4091 0.4091 (  1165 PWs)   bands (ev):

   -42.8568 -19.4547 -19.4322 -19.3989 -19.3110  -4.0791  -3.6937  -3.5918
    -1.8537  -1.6415  -1.3841   8.0295   8.1244   8.2575   8.6633   8.7644
     8.8774  12.1730  12.2380  12.5752  17.9977  18.0057  18.1663  21.0956

     occupation numbers 
     1.0000   1.0000   1.0000   1.0000   1.0000   1.0000   1.0000   1.0000
     1.0000   1.0000   1.0000   1.0000   1.0000   1.0000   1.0000   1.0000
     1.0000   1.0000   1.0000   1.0000   0.0000   0.0000   0.0000   0.0000

          k = 0.3182 0.4091 0.4545 (  1167 PWs)   bands (ev):

   -42.8567 -19.4543 -19.4331 -19.3973 -19.3178  -4.0001  -3.6807  -3.5777
    -1.8818  -1.6228  -1.4690   7.9338   8.1040   8.2139   8.6710   8.7330
     8.8774  12.2088  12.2740  12.6300  18.0234  18.0949  18.2461  20.9854

     occupation numbers 
     1.0000   1.0000   1.0000   1.0000   1.0000   1.0000   1.0000   1.0000
     1.0000   1.0000   1.0000   1.0000   1.0000   1.0000   1.0000   1.0000
     1.0000   1.0000   1.0000   1.0000   0.0000   0.0000   0.0000   0.0000

          k = 0.3182 0.4091-0.5000 (  1170 PWs)   bands (ev):

   -42.8566 -19.4557 -19.4317 -19.3965 -19.3204  -3.9715  -3.6759  -3.5747
    -1.8937  -1.5943  -1.5176   7.8830   8.1152   8.1974   8.6866   8.7059
     8.8826  12.2175  12.2888  12.6486  18.0310  18.1281  18.2750  20.9465

     occupation numbers 
     1.0000   1.0000   1.0000   1.0000   1.0000   1.0000   1.0000   1.0000
     1.0000   1.0000   1.0000   1.0000   1.0000   1.0000   1.0000   1.0000
     1.0000   1.0000   1.0000   1.0000   0.0000   0.0000   0.0000   0.0000

          k = 0.3182 0.4545 0.4545 (  1167 PWs)   bands (ev):

   -42.8565 -19.4470 -19.4409 -19.3963 -19.3237  -3.8871  -3.6685  -3.5959
    -1.8726  -1.6443  -1.5549   7.9180   7.9720   8.2016   8.6907   8.7395
     8.8319  12.2689  12.2913  12.6949  18.1146  18.1182  18.3217  20.8524

     occupation numbers 
     1.0000   1.0000   1.0000   1.0000   1.0000   1.0000   1.0000   1.0000
     1.0000   1.0000   1.0000   1.0000   1.0000   1.0000   1.0000   1.0000
     1.0000   1.0000   1.0000   1.0000   0.0000   0.0000   0.0000   0.0000

          k = 0.3182 0.4545-0.5000 (  1170 PWs)   bands (ev):

   -42.8565 -19.4471 -19.4408 -19.3959 -19.3259  -3.8373  -3.6639  -3.6137
    -1.8671  -1.6325  -1.6052   7.8777   7.9586   8.1987   8.7128   8.7239
     8.8209  12.2838  12.3022  12.7171  18.1238  18.1495  18.3491  20.8058

     occupation numbers 
     1.0000   1.0000   1.0000   1.0000   1.0000   1.0000   1.0000   1.0000
     1.0000   1.0000   1.0000   1.0000   1.0000   1.0000   1.0000   1.0000
     1.0000   1.0000   1.0000   1.0000   0.0000   0.0000   0.0000   0.0000

          k = 0.3182-0.5000-0.5000 (  1164 PWs)   bands (ev):

   -42.8564 -19.4439 -19.4439 -19.3957 -19.3280  -3.7588  -3.6600  -3.6600
    -1.8480  -1.6449  -1.6449   7.8607   7.9199   8.1983   8.7315   8.7315
     8.7908  12.3066  12.3066  12.7405  18.1568  18.1568  18.3761  20.7567

     occupation numbers 
     1.0000   1.0000   1.0000   1.0000   1.0000   1.0000   1.0000   1.0000
     1.0000   1.0000   1.0000   1.0000   1.0000   1.0000   1.0000   1.0000
     1.0000   1.0000   1.0000   1.0000   0.0000   0.0000   0.0000   0.0000

          k = 0.3636 0.3636 0.3636 (  1169 PWs)   bands (ev):

   -42.8570 -19.4559 -19.4171 -19.4171 -19.3006  -4.1560  -3.6534  -3.6534
    -1.7543  -1.7543  -1.3009   8.0838   8.3674   8.3674   8.6325   8.7424
     8.7424  12.2018  12.2018  12.4833  17.9732  17.9732  17.9739  21.3301

     occupation numbers 
     1.0000   1.0000   1.0000   1.0000   1.0000   1.0000   1.0000   1.0000
     1.0000   1.0000   1.0000   1.0000   1.0000   1.0000   1.0000   1.0000
     1.0000   1.0000   1.0000   1.0000   0.0000   0.0000   0.0000   0.0000

          k = 0.3636 0.3636 0.4091 (  1167 PWs)   bands (ev):

   -42.8568 -19.4527 -19.4221 -19.4161 -19.3083  -4.0561  -3.6439  -3.5830
    -1.8548  -1.7240  -1.3986   8.0605   8.2323   8.3697   8.5221   8.6945
     8.7699  12.2449  12.3120  12.5392  18.0092  18.0965  18.0996  21.1894

     occupation numbers 
     1.0000   1.0000   1.0000   1.0000   1.0000   1.0000   1.0000   1.0000
     1.0000   1.0000   1.0000   1.0000   1.0000   1.0000   1.0000   1.0000
     1.0000   1.0000   1.0000   1.0000   0.0000   0.0000   0.0000   0.0000

          k = 0.3636 0.3636 0.4545 (  1161 PWs)   bands (ev):

   -42.8566 -19.4561 -19.4189 -19.4155 -19.3142  -3.9901  -3.6414  -3.5340
    -1.9227  -1.6758  -1.4865   7.9377   8.2547   8.3713   8.4386   8.6658
     8.8041  12.2657  12.3793  12.5785  18.0321  18.1795  18.1888  21.0938

     occupation numbers 
     1.0000   1.0000   1.0000   1.0000   1.0000   1.0000   1.0000   1.0000
     1.0000   1.0000   1.0000   1.0000   1.0000   1.0000   1.0000   1.0000
     1.0000   1.0000   1.0000   1.0000   0.0000   0.0000   0.0000   0.0000

          k = 0.3636 0.3636-0.5000 (  1174 PWs)   bands (ev):

   -42.8566 -19.4581 -19.4168 -19.4153 -19.3165  -3.9667  -3.6414  -3.5163
    -1.9469  -1.6398  -1.5356   7.8859   8.2848   8.3717   8.3958   8.6560
     8.8168  12.2717  12.4016  12.5915  18.0399  18.2088  18.2212  21.0596

     occupation numbers 
     1.0000   1.0000   1.0000   1.0000   1.0000   1.0000   1.0000   1.0000
     1.0000   1.0000   1.0000   1.0000   1.0000   1.0000   1.0000   1.0000
     1.0000   1.0000   1.0000   1.0000   0.0000   0.0000   0.0000   0.0000

          k = 0.3636 0.4091 0.4091 (  1171 PWs)   bands (ev):

   -42.8565 -19.4459 -19.4309 -19.4171 -19.3140  -3.9379  -3.6021  -3.5445
    -1.8901  -1.7780  -1.5039   8.0726   8.1269   8.3043   8.4696   8.6986
     8.7048  12.3472  12.3860  12.6008  18.1304  18.1367  18.2128  21.0190

     occupation numbers 
     1.0000   1.0000   1.0000   1.0000   1.0000   1.0000   1.0000   1.0000
     1.0000   1.0000   1.0000   1.0000   1.0000   1.0000   1.0000   1.0000
     1.0000   1.0000   1.0000   1.0000   0.0000   0.0000   0.0000   0.0000

          k = 0.3636 0.4091 0.4545 (  1163 PWs)   bands (ev):

   -42.8564 -19.4478 -19.4315 -19.4157 -19.3181  -3.8524  -3.5949  -3.5078
    -1.9412  -1.7579  -1.5973   7.9454   8.1193   8.3250   8.4270   8.6656
     8.7277  12.3856  12.4458  12.6497  18.1564  18.2195  18.2932  20.8985

     occupation numbers 
     1.0000   1.0000   1.0000   1.0000   1.0000   1.0000   1.0000   1.0000
     1.0000   1.0000   1.0000   1.0000   1.0000   1.0000   1.0000   1.0000
     1.0000   1.0000   1.0000   1.0000   0.0000   0.0000   0.0000   0.0000

          k = 0.3636 0.4091-0.5000 (  1162 PWs)   bands (ev):

   -42.8563 -19.4500 -19.4304 -19.4150 -19.3197  -3.8192  -3.5975  -3.4933
    -1.9626  -1.7249  -1.6519   7.8906   8.1253   8.3420   8.4025   8.6538
     8.7392  12.3947  12.4684  12.6676  18.1644  18.2502  18.3224  20.8560

     occupation numbers 
     1.0000   1.0000   1.0000   1.0000   1.0000   1.0000   1.0000   1.0000
     1.0000   1.0000   1.0000   1.0000   1.0000   1.0000   1.0000   1.0000
     1.0000   1.0000   1.0000   1.0000   0.0000   0.0000   0.0000   0.0000

          k = 0.3636 0.4545 0.4545 (  1159 PWs)   bands (ev):

   -42.8562 -19.4432 -19.4396 -19.4148 -19.3210  -3.7412  -3.5700  -3.5080
    -1.9466  -1.7913  -1.6923   7.9313   7.9749   8.3518   8.4217   8.6840
     8.6847  12.4570  12.4752  12.7094  18.2408  18.2441  18.3694  20.7567

     occupation numbers 
     1.0000   1.0000   1.0000   1.0000   1.0000   1.0000   1.0000   1.0000
     1.0000   1.0000   1.0000   1.0000   1.0000   1.0000   1.0000   1.0000
     1.0000   1.0000   1.0000   1.0000   0.0000   0.0000   0.0000   0.0000

          k = 0.3636 0.4545-0.5000 (  1154 PWs)   bands (ev):

   -42.8561 -19.4445 -19.4395 -19.4143 -19.3220  -3.6899  -3.5690  -3.5134
    -1.9489  -1.7778  -1.7492   7.8874   7.9634   8.3626   8.4170   8.6697
     8.6941  12.4724  12.4926  12.7314  18.2504  18.2733  18.3972  20.7068

     occupation numbers 
     1.0000   1.0000   1.0000   1.0000   1.0000   1.0000   1.0000   1.0000
     1.0000   1.0000   1.0000   1.0000   1.0000   1.0000   1.0000   1.0000
     1.0000   1.0000   1.0000   1.0000   0.0000   0.0000   0.0000   0.0000

          k = 0.3636-0.5000-0.5000 (  1164 PWs)   bands (ev):

   -42.8561 -19.4427 -19.4427 -19.4141 -19.3229  -3.6067  -3.5592  -3.5592
    -1.9314  -1.7955  -1.7955   7.8704   7.9228   8.3663   8.4229   8.6782
     8.6782  12.4988  12.4988  12.7545  18.2812  18.2812  18.4242  20.6543

     occupation numbers 
     1.0000   1.0000   1.0000   1.0000   1.0000   1.0000   1.0000   1.0000
     1.0000   1.0000   1.0000   1.0000   1.0000   1.0000   1.0000   1.0000
     1.0000   1.0000   1.0000   1.0000   0.0000   0.0000   0.0000   0.0000

          k = 0.4091 0.4091 0.4091 (  1160 PWs)   bands (ev):

   -42.8563 -19.4399 -19.4298 -19.4298 -19.3166  -3.8142  -3.5209  -3.5209
    -1.8937  -1.8937  -1.6173   8.0951   8.1293   8.1293   8.4475   8.6621
     8.6621  12.4796  12.4796  12.6392  18.2409  18.2529  18.2529  20.9523

     occupation numbers 
     1.0000   1.0000   1.0000   1.0000   1.0000   1.0000   1.0000   1.0000
     1.0000   1.0000   1.0000   1.0000   1.0000   1.0000   1.0000   1.0000
     1.0000   1.0000   1.0000   1.0000   0.0000   0.0000   0.0000   0.0000

          k = 0.4091 0.4091 0.4545 (  1154 PWs)   bands (ev):

   -42.8561 -19.4428 -19.4309 -19.4292 -19.3185  -3.7198  -3.5221  -3.4632
    -1.9732  -1.8667  -1.7158   7.9530   8.1294   8.1308   8.4481   8.6361
     8.6722  12.5212  12.5624  12.6798  18.2719  18.3240  18.3350  20.8183

     occupation numbers 
     1.0000   1.0000   1.0000   1.0000   1.0000   1.0000   1.0000   1.0000
     1.0000   1.0000   1.0000   1.0000   1.0000   1.0000   1.0000   1.0000
     1.0000   1.0000   1.0000   1.0000   0.0000   0.0000   0.0000   0.0000

          k = 0.4091 0.4091-0.5000 (  1154 PWs)   bands (ev):

   -42.8561 -19.4454 -19.4297 -19.4289 -19.3192  -3.6796  -3.5304  -3.4421
    -2.0018  -1.8311  -1.7753   7.8957   8.1314   8.1372   8.4436   8.6273
     8.6817  12.5319  12.5905  12.6966  18.2801  18.3520  18.3650  20.7711

     occupation numbers 
     1.0000   1.0000   1.0000   1.0000   1.0000   1.0000   1.0000   1.0000
     1.0000   1.0000   1.0000   1.0000   1.0000   1.0000   1.0000   1.0000
     1.0000   1.0000   1.0000   1.0000   0.0000   0.0000   0.0000   0.0000

          k = 0.4091 0.4545 0.4545 (  1152 PWs)   bands (ev):

   -42.8560 -19.4403 -19.4385 -19.4290 -19.3188  -3.6135  -3.4815  -3.4441
    -1.9926  -1.9172  -1.8149   7.9407   7.9772   8.1376   8.4830   8.6376
     8.6447  12.6025  12.6150  12.7228  18.3503  18.3544  18.4069  20.6813

     occupation numbers 
     1.0000   1.0000   1.0000   1.0000   1.0000   1.0000   1.0000   1.0000
     1.0000   1.0000   1.0000   1.0000   1.0000   1.0000   1.0000   1.0000
     1.0000   1.0000   1.0000   1.0000   0.0000   0.0000   0.0000   0.0000

          k = 0.4091 0.4545-0.5000 (  1158 PWs)   bands (ev):

   -42.8559 -19.4426 -19.4384 -19.4287 -19.3189  -3.5619  -3.4845  -3.4344
    -2.0075  -1.9007  -1.8754   7.8934   7.9670   8.1402   8.4884   8.6309
     8.6499  12.6184  12.6384  12.7431  18.3605  18.3815  18.4348  20.6291

     occupation numbers 
     1.0000   1.0000   1.0000   1.0000   1.0000   1.0000   1.0000   1.0000
     1.0000   1.0000   1.0000   1.0000   1.0000   1.0000   1.0000   1.0000
     1.0000   1.0000   1.0000   1.0000   0.0000   0.0000   0.0000   0.0000

          k = 0.4091-0.5000-0.5000 (  1164 PWs)   bands (ev):

   -42.8559 -19.4416 -19.4416 -19.4285 -19.3189  -3.4844  -3.4681  -3.4681
    -1.9948  -1.9249  -1.9249   7.8769   7.9251   8.1424   8.4967   8.6392
     8.6392  12.6480  12.6480  12.7657  18.3898  18.3898  18.4620  20.5745

     occupation numbers 
     1.0000   1.0000   1.0000   1.0000   1.0000   1.0000   1.0000   1.0000
     1.0000   1.0000   1.0000   1.0000   1.0000   1.0000   1.0000   1.0000
     1.0000   1.0000   1.0000   1.0000   0.0000   0.0000   0.0000   0.0000

          k = 0.4545 0.4545 0.4545 (  1163 PWs)   bands (ev):

   -42.8558 -19.4388 -19.4379 -19.4379 -19.3175  -3.5133  -3.4177  -3.4177
    -2.0045  -2.0045  -1.9123   7.9315   7.9784   7.9784   8.5497   8.6203
     8.6203  12.6939  12.6939  12.7400  18.4253  18.4323  18.4323  20.6307

     occupation numbers 
     1.0000   1.0000   1.0000   1.0000   1.0000   1.0000   1.0000   1.0000
     1.0000   1.0000   1.0000   1.0000   1.0000   1.0000   1.0000   1.0000
     1.0000   1.0000   1.0000   1.0000   0.0000   0.0000   0.0000   0.0000

          k = 0.4545 0.4545-0.5000 (  1156 PWs)   bands (ev):

   -42.8558 -19.4414 -19.4379 -19.4377 -19.3170  -3.4626  -3.4242  -3.3940
    -2.0362  -1.9849  -1.9698   7.8911   7.9615   7.9792   8.5634   8.6123
     8.6242  12.7113  12.7254  12.7559  18.4382  18.4557  18.4610  20.5761

     occupation numbers 
     1.0000   1.0000   1.0000   1.0000   1.0000   1.0000   1.0000   1.0000
     1.0000   1.0000   1.0000   1.0000   1.0000   1.0000   1.0000   1.0000
     1.0000   1.0000   1.0000   1.0000   0.0000   0.0000   0.0000   0.0000

          k = 0.4545-0.5000-0.5000 (  1168 PWs)   bands (ev):

   -42.8557 -19.4410 -19.4410 -19.4376 -19.3163  -3.4049  -3.4020  -3.4020
    -2.0345  -2.0151  -2.0151   7.8742   7.9266   7.9728   8.5790   8.6155
     8.6155  12.7426  12.7426  12.7729  18.4665  18.4665  18.4860  20.5259

     occupation numbers 
     1.0000   1.0000   1.0000   1.0000   1.0000   1.0000   1.0000   1.0000
     1.0000   1.0000   1.0000   1.0000   1.0000   1.0000   1.0000   1.0000
     1.0000   1.0000   1.0000   1.0000   0.0000   0.0000   0.0000   0.0000

          k =-0.5000-0.5000-0.5000 (  1208 PWs)   bands (ev):

   -42.8557 -19.4408 -19.4408 -19.4408 -19.3156  -3.3774  -3.3774  -3.3774
    -2.0481  -2.0481  -2.0481   7.8607   7.9262   7.9262   8.6068   8.6068
     8.6068  12.7741  12.7741  12.7741  18.4941  18.4941  18.4941  20.5066

     occupation numbers 
     1.0000   1.0000   1.0000   1.0000   1.0000   1.0000   1.0000   1.0000
     1.0000   1.0000   1.0000   1.0000   1.0000   1.0000   1.0000   1.0000
     1.0000   1.0000   1.0000   1.0000   0.0000   0.0000   0.0000   0.0000

     the Fermi energy is    13.4975 ev

!    total energy              =    -286.89768505 Ry
     Harris-Foulkes estimate   =    -286.89768506 Ry
     estimated scf accuracy    <          4.0E-09 Ry

     The total energy is the sum of the following terms:

     one-electron contribution =     -58.52950871 Ry
     hartree contribution      =      56.13938172 Ry
     xc contribution           =     -59.13771504 Ry
     ewald contribution        =    -225.36984303 Ry
     smearing contrib. (-TS)   =       0.00000000 Ry

     convergence has been achieved in   9 iterations
 
     init_run     :      2.14s CPU      2.42s WALL (       1 calls)
     electrons    :     71.53s CPU     79.03s WALL (       1 calls)

     Called by init_run:
     wfcinit      :      2.08s CPU      2.30s WALL (       1 calls)
     wfcinit:atom :      0.01s CPU      0.01s WALL (     364 calls)
     wfcinit:wfcr :      2.02s CPU      2.23s WALL (     364 calls)
     potinit      :      0.00s CPU      0.01s WALL (       1 calls)
     hinit0       :      0.05s CPU      0.09s WALL (       1 calls)

     Called by electrons:
     c_bands      :     67.71s CPU     74.90s WALL (       9 calls)
     sum_band     :      3.78s CPU      4.06s WALL (       9 calls)
     v_of_rho     :      0.01s CPU      0.01s WALL (      10 calls)
     v_h          :      0.00s CPU      0.00s WALL (      10 calls)
     v_xc         :      0.01s CPU      0.01s WALL (      10 calls)
     newd         :      0.03s CPU      0.04s WALL (      10 calls)
     mix_rho      :      0.00s CPU      0.00s WALL (       9 calls)

     Called by c_bands:
     init_us_2    :      0.28s CPU      0.30s WALL (    6916 calls)
     cegterg      :     66.64s CPU     73.78s WALL (    3276 calls)

     Called by sum_band:
     sum_band:bec :      0.06s CPU      0.07s WALL (    3276 calls)
     addusdens    :      0.03s CPU      0.03s WALL (       9 calls)

     Called by *egterg:
     h_psi        :     18.74s CPU     20.02s WALL (   14058 calls)
     s_psi        :      0.42s CPU      0.45s WALL (   14058 calls)
     g_psi        :      0.08s CPU      0.09s WALL (   10418 calls)
     cdiaghg      :     41.58s CPU     46.05s WALL (   13694 calls)
     cegterg:over :      4.72s CPU      6.17s WALL (   10418 calls)
     cegterg:upda :      1.52s CPU      1.57s WALL (   10418 calls)
     cegterg:last :      0.57s CPU      0.59s WALL (    3276 calls)
     cdiaghg:chol :      1.13s CPU      1.35s WALL (   13694 calls)
     cdiaghg:inve :      0.71s CPU      0.85s WALL (   13694 calls)
     cdiaghg:para :      2.07s CPU      2.28s WALL (   27388 calls)

     Called by h_psi:
     h_psi:pot    :     18.69s CPU     19.97s WALL (   14058 calls)
     h_psi:calbec :      0.89s CPU      0.96s WALL (   14058 calls)
     vloc_psi     :     17.31s CPU     18.49s WALL (   14058 calls)
     add_vuspsi   :      0.44s CPU      0.47s WALL (   14058 calls)

     General routines
     calbec       :      1.13s CPU      1.22s WALL (   17334 calls)
     fft          :      0.01s CPU      0.03s WALL (     111 calls)
     ffts         :      0.00s CPU      0.00s WALL (       9 calls)
     fftw         :     19.30s CPU     20.63s WALL (  516872 calls)
 
     Parallel routines
     fft_scatt_xy :      1.59s CPU      1.71s WALL (  516992 calls)
     fft_scatt_yz :     12.95s CPU     13.90s WALL (  516992 calls)
 
     PWSCF        :  1m13.77s CPU     1m21.65s WALL

 
   This run was terminated on:  22:38: 1   6Feb2019            

=------------------------------------------------------------------------------=
   JOB DONE.
=------------------------------------------------------------------------------=
