
     Program PWSCF v.6.3MaX starts on  6Feb2019 at 22:36:42 

     This program is part of the open-source Quantum ESPRESSO suite
     for quantum simulation of materials; please cite
         "P. Giannozzi et al., J. Phys.:Condens. Matter 21 395502 (2009);
         "P. Giannozzi et al., J. Phys.:Condens. Matter 29 465901 (2017);
          URL http://www.quantum-espresso.org", 
     in publications or presentations arising from this work. More details at
     http://www.quantum-espresso.org/quote

     Parallel version (MPI & OpenMP), running on      20 processor cores
     Number of MPI processes:                20
     Threads/MPI process:                     1

     MPI processes distributed on     1 nodes
     R & G space division:  proc/nbgrp/npool/nimage =      20
     Reading input from /home/azadoks/dftman/projects/SrTiO3 Convergence/EOSWorkflows/143efdfa1861/cf092c21dbda/pwscf.in
Warning: card &IONS ignored
Warning: card / ignored
Warning: card &CELL ignored
Warning: card / ignored

     Current dimensions of program PWSCF are:
     Max number of different atomic species (ntypx) = 10
     Max number of k-points (npk) =  40000
     Max angular momentum in pseudopotentials (lmaxx) =  3
     Message from routine iosys:
     minimal I/O required, wf_collect reset to FALSE

     Subspace diagonalization in iterative solution of the eigenvalue problem:
     one sub-group per band group will be used
     scalapack distributed-memory algorithm (size of sub-group:  3*  3 procs)

 
     Parallelization info
     --------------------
     sticks:   dense  smooth     PW     G-vecs:    dense   smooth      PW
     Min          32      32      9                  614      614     103
     Max          34      34     10                  615      615     108
     Sum         657     657    197                12293    12293    2109
 


     bravais-lattice index     =            0
     lattice parameter (alat)  =       7.6209  a.u.
     unit-cell volume          =     442.6054 (a.u.)^3
     number of atoms/cell      =            5
     number of atomic types    =            3
     number of electrons       =        40.00
     number of Kohn-Sham states=           24
     kinetic-energy cutoff     =      35.0000  Ry
     charge density cutoff     =     140.0000  Ry
     convergence threshold     =      1.0E-08
     mixing beta               =       0.7000
     number of iterations used =            8  plain     mixing
     Exchange-correlation      =  SLA  PW   PBX  PBC ( 1  4  3  4 0 0)

     celldm(1)=   7.620888  celldm(2)=   0.000000  celldm(3)=   0.000000
     celldm(4)=   0.000000  celldm(5)=   0.000000  celldm(6)=   0.000000

     crystal axes: (cart. coord. in units of alat)
               a(1) = (   1.000000   0.000000   0.000000 )  
               a(2) = (   0.000000   1.000000   0.000000 )  
               a(3) = (   0.000000   0.000000   1.000000 )  

     reciprocal axes: (cart. coord. in units 2 pi/alat)
               b(1) = (  1.000000  0.000000  0.000000 )  
               b(2) = (  0.000000  1.000000  0.000000 )  
               b(3) = (  0.000000  0.000000  1.000000 )  


     PseudoPot. # 1 for O  read from file:
     /home/azadoks/.local/share/pseudo/GBRV_PBE_US/o_pbe_v1.2.uspp.F.UPF
     MD5 check sum: 734c27235a0248c51dbae37a1fbe46ec
     Pseudo is Ultrasoft + core correction, Zval =  6.0
     Generated by new atomic code, or converted to UPF format
     Using radial grid of  737 points,  5 beta functions with: 
                l(1) =   0
                l(2) =   0
                l(3) =   1
                l(4) =   1
                l(5) =   2
     Q(r) pseudized with  8 coefficients,  rinner =    0.900   0.900   0.900
                                                       0.900   0.900

     PseudoPot. # 2 for Sr read from file:
     /home/azadoks/.local/share/pseudo/GBRV_PBE_US/sr_pbe_v1.uspp.F.UPF
     MD5 check sum: 6b418c05fbe9db5448babca5e47b7a5b
     Pseudo is Ultrasoft + core correction, Zval = 10.0
     Generated by new atomic code, or converted to UPF format
     Using radial grid of  883 points,  6 beta functions with: 
                l(1) =   0
                l(2) =   0
                l(3) =   1
                l(4) =   1
                l(5) =   2
                l(6) =   2
     Q(r) pseudized with  6 coefficients,  rinner =    1.400   1.400   1.400
                                                       1.400   1.400

     PseudoPot. # 3 for Ti read from file:
     /home/azadoks/.local/share/pseudo/GBRV_PBE_US/ti_pbe_v1.4.uspp.F.UPF
     MD5 check sum: 88a00a6731bd790ddea75d31a80cb452
     Pseudo is Ultrasoft + core correction, Zval = 12.0
     Generated by new atomic code, or converted to UPF format
     Using radial grid of  851 points,  6 beta functions with: 
                l(1) =   0
                l(2) =   0
                l(3) =   1
                l(4) =   1
                l(5) =   2
                l(6) =   2
     Q(r) pseudized with  6 coefficients,  rinner =    1.000   1.000   1.000
                                                       1.000   1.000

     atomic species   valence    mass     pseudopotential
        O              6.00    15.99940     O ( 1.00)
        Sr            10.00    87.62000     Sr( 1.00)
        Ti            12.00    47.86700     Ti( 1.00)

     48 Sym. Ops., with inversion, found


                                    s                        frac. trans.

      isym =  1     identity                                     

 cryst.   s( 1) = (     1          0          0      )
                  (     0          1          0      )
                  (     0          0          1      )

 cart.    s( 1) = (  1.0000000  0.0000000  0.0000000 )
                  (  0.0000000  1.0000000  0.0000000 )
                  (  0.0000000  0.0000000  1.0000000 )


      isym =  2     180 deg rotation - cart. axis [0,0,1]        

 cryst.   s( 2) = (    -1          0          0      )
                  (     0         -1          0      )
                  (     0          0          1      )

 cart.    s( 2) = ( -1.0000000  0.0000000  0.0000000 )
                  (  0.0000000 -1.0000000  0.0000000 )
                  (  0.0000000  0.0000000  1.0000000 )


      isym =  3     180 deg rotation - cart. axis [0,1,0]        

 cryst.   s( 3) = (    -1          0          0      )
                  (     0          1          0      )
                  (     0          0         -1      )

 cart.    s( 3) = ( -1.0000000  0.0000000  0.0000000 )
                  (  0.0000000  1.0000000  0.0000000 )
                  (  0.0000000  0.0000000 -1.0000000 )


      isym =  4     180 deg rotation - cart. axis [1,0,0]        

 cryst.   s( 4) = (     1          0          0      )
                  (     0         -1          0      )
                  (     0          0         -1      )

 cart.    s( 4) = (  1.0000000  0.0000000  0.0000000 )
                  (  0.0000000 -1.0000000  0.0000000 )
                  (  0.0000000  0.0000000 -1.0000000 )


      isym =  5     180 deg rotation - cart. axis [1,1,0]        

 cryst.   s( 5) = (     0          1          0      )
                  (     1          0          0      )
                  (     0          0         -1      )

 cart.    s( 5) = (  0.0000000  1.0000000  0.0000000 )
                  (  1.0000000  0.0000000  0.0000000 )
                  (  0.0000000  0.0000000 -1.0000000 )


      isym =  6     180 deg rotation - cart. axis [1,-1,0]       

 cryst.   s( 6) = (     0         -1          0      )
                  (    -1          0          0      )
                  (     0          0         -1      )

 cart.    s( 6) = (  0.0000000 -1.0000000  0.0000000 )
                  ( -1.0000000  0.0000000  0.0000000 )
                  (  0.0000000  0.0000000 -1.0000000 )


      isym =  7      90 deg rotation - cart. axis [0,0,-1]       

 cryst.   s( 7) = (     0         -1          0      )
                  (     1          0          0      )
                  (     0          0          1      )

 cart.    s( 7) = (  0.0000000  1.0000000  0.0000000 )
                  ( -1.0000000  0.0000000  0.0000000 )
                  (  0.0000000  0.0000000  1.0000000 )


      isym =  8      90 deg rotation - cart. axis [0,0,1]        

 cryst.   s( 8) = (     0          1          0      )
                  (    -1          0          0      )
                  (     0          0          1      )

 cart.    s( 8) = (  0.0000000 -1.0000000  0.0000000 )
                  (  1.0000000  0.0000000  0.0000000 )
                  (  0.0000000  0.0000000  1.0000000 )


      isym =  9     180 deg rotation - cart. axis [1,0,1]        

 cryst.   s( 9) = (     0          0          1      )
                  (     0         -1          0      )
                  (     1          0          0      )

 cart.    s( 9) = (  0.0000000  0.0000000  1.0000000 )
                  (  0.0000000 -1.0000000  0.0000000 )
                  (  1.0000000  0.0000000  0.0000000 )


      isym = 10     180 deg rotation - cart. axis [-1,0,1]       

 cryst.   s(10) = (     0          0         -1      )
                  (     0         -1          0      )
                  (    -1          0          0      )

 cart.    s(10) = (  0.0000000  0.0000000 -1.0000000 )
                  (  0.0000000 -1.0000000  0.0000000 )
                  ( -1.0000000  0.0000000  0.0000000 )


      isym = 11      90 deg rotation - cart. axis [0,1,0]        

 cryst.   s(11) = (     0          0         -1      )
                  (     0          1          0      )
                  (     1          0          0      )

 cart.    s(11) = (  0.0000000  0.0000000  1.0000000 )
                  (  0.0000000  1.0000000  0.0000000 )
                  ( -1.0000000  0.0000000  0.0000000 )


      isym = 12      90 deg rotation - cart. axis [0,-1,0]       

 cryst.   s(12) = (     0          0          1      )
                  (     0          1          0      )
                  (    -1          0          0      )

 cart.    s(12) = (  0.0000000  0.0000000 -1.0000000 )
                  (  0.0000000  1.0000000  0.0000000 )
                  (  1.0000000  0.0000000  0.0000000 )


      isym = 13     180 deg rotation - cart. axis [0,1,1]        

 cryst.   s(13) = (    -1          0          0      )
                  (     0          0          1      )
                  (     0          1          0      )

 cart.    s(13) = ( -1.0000000  0.0000000  0.0000000 )
                  (  0.0000000  0.0000000  1.0000000 )
                  (  0.0000000  1.0000000  0.0000000 )


      isym = 14     180 deg rotation - cart. axis [0,1,-1]       

 cryst.   s(14) = (    -1          0          0      )
                  (     0          0         -1      )
                  (     0         -1          0      )

 cart.    s(14) = ( -1.0000000  0.0000000  0.0000000 )
                  (  0.0000000  0.0000000 -1.0000000 )
                  (  0.0000000 -1.0000000  0.0000000 )


      isym = 15      90 deg rotation - cart. axis [-1,0,0]       

 cryst.   s(15) = (     1          0          0      )
                  (     0          0         -1      )
                  (     0          1          0      )

 cart.    s(15) = (  1.0000000  0.0000000  0.0000000 )
                  (  0.0000000  0.0000000  1.0000000 )
                  (  0.0000000 -1.0000000  0.0000000 )


      isym = 16      90 deg rotation - cart. axis [1,0,0]        

 cryst.   s(16) = (     1          0          0      )
                  (     0          0          1      )
                  (     0         -1          0      )

 cart.    s(16) = (  1.0000000  0.0000000  0.0000000 )
                  (  0.0000000  0.0000000 -1.0000000 )
                  (  0.0000000  1.0000000  0.0000000 )


      isym = 17     120 deg rotation - cart. axis [-1,-1,-1]     

 cryst.   s(17) = (     0          0          1      )
                  (     1          0          0      )
                  (     0          1          0      )

 cart.    s(17) = (  0.0000000  1.0000000  0.0000000 )
                  (  0.0000000  0.0000000  1.0000000 )
                  (  1.0000000  0.0000000  0.0000000 )


      isym = 18     120 deg rotation - cart. axis [-1,1,1]       

 cryst.   s(18) = (     0          0         -1      )
                  (    -1          0          0      )
                  (     0          1          0      )

 cart.    s(18) = (  0.0000000 -1.0000000  0.0000000 )
                  (  0.0000000  0.0000000  1.0000000 )
                  ( -1.0000000  0.0000000  0.0000000 )


      isym = 19     120 deg rotation - cart. axis [1,1,-1]       

 cryst.   s(19) = (     0          0         -1      )
                  (     1          0          0      )
                  (     0         -1          0      )

 cart.    s(19) = (  0.0000000  1.0000000  0.0000000 )
                  (  0.0000000  0.0000000 -1.0000000 )
                  ( -1.0000000  0.0000000  0.0000000 )


      isym = 20     120 deg rotation - cart. axis [1,-1,1]       

 cryst.   s(20) = (     0          0          1      )
                  (    -1          0          0      )
                  (     0         -1          0      )

 cart.    s(20) = (  0.0000000 -1.0000000  0.0000000 )
                  (  0.0000000  0.0000000 -1.0000000 )
                  (  1.0000000  0.0000000  0.0000000 )


      isym = 21     120 deg rotation - cart. axis [1,1,1]        

 cryst.   s(21) = (     0          1          0      )
                  (     0          0          1      )
                  (     1          0          0      )

 cart.    s(21) = (  0.0000000  0.0000000  1.0000000 )
                  (  1.0000000  0.0000000  0.0000000 )
                  (  0.0000000  1.0000000  0.0000000 )


      isym = 22     120 deg rotation - cart. axis [-1,1,-1]      

 cryst.   s(22) = (     0         -1          0      )
                  (     0          0         -1      )
                  (     1          0          0      )

 cart.    s(22) = (  0.0000000  0.0000000  1.0000000 )
                  ( -1.0000000  0.0000000  0.0000000 )
                  (  0.0000000 -1.0000000  0.0000000 )


      isym = 23     120 deg rotation - cart. axis [1,-1,-1]      

 cryst.   s(23) = (     0         -1          0      )
                  (     0          0          1      )
                  (    -1          0          0      )

 cart.    s(23) = (  0.0000000  0.0000000 -1.0000000 )
                  ( -1.0000000  0.0000000  0.0000000 )
                  (  0.0000000  1.0000000  0.0000000 )


      isym = 24     120 deg rotation - cart. axis [-1,-1,1]      

 cryst.   s(24) = (     0          1          0      )
                  (     0          0         -1      )
                  (    -1          0          0      )

 cart.    s(24) = (  0.0000000  0.0000000 -1.0000000 )
                  (  1.0000000  0.0000000  0.0000000 )
                  (  0.0000000 -1.0000000  0.0000000 )


      isym = 25     inversion                                    

 cryst.   s(25) = (    -1          0          0      )
                  (     0         -1          0      )
                  (     0          0         -1      )

 cart.    s(25) = ( -1.0000000  0.0000000  0.0000000 )
                  (  0.0000000 -1.0000000  0.0000000 )
                  (  0.0000000  0.0000000 -1.0000000 )


      isym = 26     inv. 180 deg rotation - cart. axis [0,0,1]   

 cryst.   s(26) = (     1          0          0      )
                  (     0          1          0      )
                  (     0          0         -1      )

 cart.    s(26) = (  1.0000000  0.0000000  0.0000000 )
                  (  0.0000000  1.0000000  0.0000000 )
                  (  0.0000000  0.0000000 -1.0000000 )


      isym = 27     inv. 180 deg rotation - cart. axis [0,1,0]   

 cryst.   s(27) = (     1          0          0      )
                  (     0         -1          0      )
                  (     0          0          1      )

 cart.    s(27) = (  1.0000000  0.0000000  0.0000000 )
                  (  0.0000000 -1.0000000  0.0000000 )
                  (  0.0000000  0.0000000  1.0000000 )


      isym = 28     inv. 180 deg rotation - cart. axis [1,0,0]   

 cryst.   s(28) = (    -1          0          0      )
                  (     0          1          0      )
                  (     0          0          1      )

 cart.    s(28) = ( -1.0000000  0.0000000  0.0000000 )
                  (  0.0000000  1.0000000  0.0000000 )
                  (  0.0000000  0.0000000  1.0000000 )


      isym = 29     inv. 180 deg rotation - cart. axis [1,1,0]   

 cryst.   s(29) = (     0         -1          0      )
                  (    -1          0          0      )
                  (     0          0          1      )

 cart.    s(29) = (  0.0000000 -1.0000000  0.0000000 )
                  ( -1.0000000  0.0000000  0.0000000 )
                  (  0.0000000  0.0000000  1.0000000 )


      isym = 30     inv. 180 deg rotation - cart. axis [1,-1,0]  

 cryst.   s(30) = (     0          1          0      )
                  (     1          0          0      )
                  (     0          0          1      )

 cart.    s(30) = (  0.0000000  1.0000000  0.0000000 )
                  (  1.0000000  0.0000000  0.0000000 )
                  (  0.0000000  0.0000000  1.0000000 )


      isym = 31     inv.  90 deg rotation - cart. axis [0,0,-1]  

 cryst.   s(31) = (     0          1          0      )
                  (    -1          0          0      )
                  (     0          0         -1      )

 cart.    s(31) = (  0.0000000 -1.0000000  0.0000000 )
                  (  1.0000000  0.0000000  0.0000000 )
                  (  0.0000000  0.0000000 -1.0000000 )


      isym = 32     inv.  90 deg rotation - cart. axis [0,0,1]   

 cryst.   s(32) = (     0         -1          0      )
                  (     1          0          0      )
                  (     0          0         -1      )

 cart.    s(32) = (  0.0000000  1.0000000  0.0000000 )
                  ( -1.0000000  0.0000000  0.0000000 )
                  (  0.0000000  0.0000000 -1.0000000 )


      isym = 33     inv. 180 deg rotation - cart. axis [1,0,1]   

 cryst.   s(33) = (     0          0         -1      )
                  (     0          1          0      )
                  (    -1          0          0      )

 cart.    s(33) = (  0.0000000  0.0000000 -1.0000000 )
                  (  0.0000000  1.0000000  0.0000000 )
                  ( -1.0000000  0.0000000  0.0000000 )


      isym = 34     inv. 180 deg rotation - cart. axis [-1,0,1]  

 cryst.   s(34) = (     0          0          1      )
                  (     0          1          0      )
                  (     1          0          0      )

 cart.    s(34) = (  0.0000000  0.0000000  1.0000000 )
                  (  0.0000000  1.0000000  0.0000000 )
                  (  1.0000000  0.0000000  0.0000000 )


      isym = 35     inv.  90 deg rotation - cart. axis [0,1,0]   

 cryst.   s(35) = (     0          0          1      )
                  (     0         -1          0      )
                  (    -1          0          0      )

 cart.    s(35) = (  0.0000000  0.0000000 -1.0000000 )
                  (  0.0000000 -1.0000000  0.0000000 )
                  (  1.0000000  0.0000000  0.0000000 )


      isym = 36     inv.  90 deg rotation - cart. axis [0,-1,0]  

 cryst.   s(36) = (     0          0         -1      )
                  (     0         -1          0      )
                  (     1          0          0      )

 cart.    s(36) = (  0.0000000  0.0000000  1.0000000 )
                  (  0.0000000 -1.0000000  0.0000000 )
                  ( -1.0000000  0.0000000  0.0000000 )


      isym = 37     inv. 180 deg rotation - cart. axis [0,1,1]   

 cryst.   s(37) = (     1          0          0      )
                  (     0          0         -1      )
                  (     0         -1          0      )

 cart.    s(37) = (  1.0000000  0.0000000  0.0000000 )
                  (  0.0000000  0.0000000 -1.0000000 )
                  (  0.0000000 -1.0000000  0.0000000 )


      isym = 38     inv. 180 deg rotation - cart. axis [0,1,-1]  

 cryst.   s(38) = (     1          0          0      )
                  (     0          0          1      )
                  (     0          1          0      )

 cart.    s(38) = (  1.0000000  0.0000000  0.0000000 )
                  (  0.0000000  0.0000000  1.0000000 )
                  (  0.0000000  1.0000000  0.0000000 )


      isym = 39     inv.  90 deg rotation - cart. axis [-1,0,0]  

 cryst.   s(39) = (    -1          0          0      )
                  (     0          0          1      )
                  (     0         -1          0      )

 cart.    s(39) = ( -1.0000000  0.0000000  0.0000000 )
                  (  0.0000000  0.0000000 -1.0000000 )
                  (  0.0000000  1.0000000  0.0000000 )


      isym = 40     inv.  90 deg rotation - cart. axis [1,0,0]   

 cryst.   s(40) = (    -1          0          0      )
                  (     0          0         -1      )
                  (     0          1          0      )

 cart.    s(40) = ( -1.0000000  0.0000000  0.0000000 )
                  (  0.0000000  0.0000000  1.0000000 )
                  (  0.0000000 -1.0000000  0.0000000 )


      isym = 41     inv. 120 deg rotation - cart. axis [-1,-1,-1]

 cryst.   s(41) = (     0          0         -1      )
                  (    -1          0          0      )
                  (     0         -1          0      )

 cart.    s(41) = (  0.0000000 -1.0000000  0.0000000 )
                  (  0.0000000  0.0000000 -1.0000000 )
                  ( -1.0000000  0.0000000  0.0000000 )


      isym = 42     inv. 120 deg rotation - cart. axis [-1,1,1]  

 cryst.   s(42) = (     0          0          1      )
                  (     1          0          0      )
                  (     0         -1          0      )

 cart.    s(42) = (  0.0000000  1.0000000  0.0000000 )
                  (  0.0000000  0.0000000 -1.0000000 )
                  (  1.0000000  0.0000000  0.0000000 )


      isym = 43     inv. 120 deg rotation - cart. axis [1,1,-1]  

 cryst.   s(43) = (     0          0          1      )
                  (    -1          0          0      )
                  (     0          1          0      )

 cart.    s(43) = (  0.0000000 -1.0000000  0.0000000 )
                  (  0.0000000  0.0000000  1.0000000 )
                  (  1.0000000  0.0000000  0.0000000 )


      isym = 44     inv. 120 deg rotation - cart. axis [1,-1,1]  

 cryst.   s(44) = (     0          0         -1      )
                  (     1          0          0      )
                  (     0          1          0      )

 cart.    s(44) = (  0.0000000  1.0000000  0.0000000 )
                  (  0.0000000  0.0000000  1.0000000 )
                  ( -1.0000000  0.0000000  0.0000000 )


      isym = 45     inv. 120 deg rotation - cart. axis [1,1,1]   

 cryst.   s(45) = (     0         -1          0      )
                  (     0          0         -1      )
                  (    -1          0          0      )

 cart.    s(45) = (  0.0000000  0.0000000 -1.0000000 )
                  ( -1.0000000  0.0000000  0.0000000 )
                  (  0.0000000 -1.0000000  0.0000000 )


      isym = 46     inv. 120 deg rotation - cart. axis [-1,1,-1] 

 cryst.   s(46) = (     0          1          0      )
                  (     0          0          1      )
                  (    -1          0          0      )

 cart.    s(46) = (  0.0000000  0.0000000 -1.0000000 )
                  (  1.0000000  0.0000000  0.0000000 )
                  (  0.0000000  1.0000000  0.0000000 )


      isym = 47     inv. 120 deg rotation - cart. axis [1,-1,-1] 

 cryst.   s(47) = (     0          1          0      )
                  (     0          0         -1      )
                  (     1          0          0      )

 cart.    s(47) = (  0.0000000  0.0000000  1.0000000 )
                  (  1.0000000  0.0000000  0.0000000 )
                  (  0.0000000 -1.0000000  0.0000000 )


      isym = 48     inv. 120 deg rotation - cart. axis [-1,-1,1] 

 cryst.   s(48) = (     0         -1          0      )
                  (     0          0          1      )
                  (     1          0          0      )

 cart.    s(48) = (  0.0000000  0.0000000  1.0000000 )
                  ( -1.0000000  0.0000000  0.0000000 )
                  (  0.0000000  1.0000000  0.0000000 )


   Cartesian axes

     site n.     atom                  positions (alat units)
         1           O   tau(   1) = (   0.5000000   0.0000000   0.5000000  )
         2           O   tau(   2) = (   0.5000000   0.5000000   0.0000000  )
         3           O   tau(   3) = (   0.0000000   0.5000000   0.5000000  )
         4           Ti  tau(   4) = (   0.5000000   0.5000000   0.5000000  )
         5           Sr  tau(   5) = (   0.0000000   0.0000000   0.0000000  )

   Crystallographic axes

     site n.     atom                  positions (cryst. coord.)
         1           O   tau(   1) = (  0.5000000  0.0000000  0.5000000  )
         2           O   tau(   2) = (  0.5000000  0.5000000  0.0000000  )
         3           O   tau(   3) = (  0.0000000  0.5000000  0.5000000  )
         4           Ti  tau(   4) = (  0.5000000  0.5000000  0.5000000  )
         5           Sr  tau(   5) = (  0.0000000  0.0000000  0.0000000  )

     number of k points=   364  Marzari-Vanderbilt smearing, width (Ry)=  0.0010
                       cart. coord. in units 2pi/alat
        k(    1) = (   0.0000000   0.0000000   0.0000000), wk =   0.0001878
        k(    2) = (   0.0000000   0.0000000   0.0454545), wk =   0.0011270
        k(    3) = (   0.0000000   0.0000000   0.0909091), wk =   0.0011270
        k(    4) = (   0.0000000   0.0000000   0.1363636), wk =   0.0011270
        k(    5) = (   0.0000000   0.0000000   0.1818182), wk =   0.0011270
        k(    6) = (   0.0000000   0.0000000   0.2272727), wk =   0.0011270
        k(    7) = (   0.0000000   0.0000000   0.2727273), wk =   0.0011270
        k(    8) = (   0.0000000   0.0000000   0.3181818), wk =   0.0011270
        k(    9) = (   0.0000000   0.0000000   0.3636364), wk =   0.0011270
        k(   10) = (   0.0000000   0.0000000   0.4090909), wk =   0.0011270
        k(   11) = (   0.0000000   0.0000000   0.4545455), wk =   0.0011270
        k(   12) = (   0.0000000   0.0000000  -0.5000000), wk =   0.0005635
        k(   13) = (   0.0000000   0.0454545   0.0454545), wk =   0.0022539
        k(   14) = (   0.0000000   0.0454545   0.0909091), wk =   0.0045079
        k(   15) = (   0.0000000   0.0454545   0.1363636), wk =   0.0045079
        k(   16) = (   0.0000000   0.0454545   0.1818182), wk =   0.0045079
        k(   17) = (   0.0000000   0.0454545   0.2272727), wk =   0.0045079
        k(   18) = (   0.0000000   0.0454545   0.2727273), wk =   0.0045079
        k(   19) = (   0.0000000   0.0454545   0.3181818), wk =   0.0045079
        k(   20) = (   0.0000000   0.0454545   0.3636364), wk =   0.0045079
        k(   21) = (   0.0000000   0.0454545   0.4090909), wk =   0.0045079
        k(   22) = (   0.0000000   0.0454545   0.4545455), wk =   0.0045079
        k(   23) = (   0.0000000   0.0454545  -0.5000000), wk =   0.0022539
        k(   24) = (   0.0000000   0.0909091   0.0909091), wk =   0.0022539
        k(   25) = (   0.0000000   0.0909091   0.1363636), wk =   0.0045079
        k(   26) = (   0.0000000   0.0909091   0.1818182), wk =   0.0045079
        k(   27) = (   0.0000000   0.0909091   0.2272727), wk =   0.0045079
        k(   28) = (   0.0000000   0.0909091   0.2727273), wk =   0.0045079
        k(   29) = (   0.0000000   0.0909091   0.3181818), wk =   0.0045079
        k(   30) = (   0.0000000   0.0909091   0.3636364), wk =   0.0045079
        k(   31) = (   0.0000000   0.0909091   0.4090909), wk =   0.0045079
        k(   32) = (   0.0000000   0.0909091   0.4545455), wk =   0.0045079
        k(   33) = (   0.0000000   0.0909091  -0.5000000), wk =   0.0022539
        k(   34) = (   0.0000000   0.1363636   0.1363636), wk =   0.0022539
        k(   35) = (   0.0000000   0.1363636   0.1818182), wk =   0.0045079
        k(   36) = (   0.0000000   0.1363636   0.2272727), wk =   0.0045079
        k(   37) = (   0.0000000   0.1363636   0.2727273), wk =   0.0045079
        k(   38) = (   0.0000000   0.1363636   0.3181818), wk =   0.0045079
        k(   39) = (   0.0000000   0.1363636   0.3636364), wk =   0.0045079
        k(   40) = (   0.0000000   0.1363636   0.4090909), wk =   0.0045079
        k(   41) = (   0.0000000   0.1363636   0.4545455), wk =   0.0045079
        k(   42) = (   0.0000000   0.1363636  -0.5000000), wk =   0.0022539
        k(   43) = (   0.0000000   0.1818182   0.1818182), wk =   0.0022539
        k(   44) = (   0.0000000   0.1818182   0.2272727), wk =   0.0045079
        k(   45) = (   0.0000000   0.1818182   0.2727273), wk =   0.0045079
        k(   46) = (   0.0000000   0.1818182   0.3181818), wk =   0.0045079
        k(   47) = (   0.0000000   0.1818182   0.3636364), wk =   0.0045079
        k(   48) = (   0.0000000   0.1818182   0.4090909), wk =   0.0045079
        k(   49) = (   0.0000000   0.1818182   0.4545455), wk =   0.0045079
        k(   50) = (   0.0000000   0.1818182  -0.5000000), wk =   0.0022539
        k(   51) = (   0.0000000   0.2272727   0.2272727), wk =   0.0022539
        k(   52) = (   0.0000000   0.2272727   0.2727273), wk =   0.0045079
        k(   53) = (   0.0000000   0.2272727   0.3181818), wk =   0.0045079
        k(   54) = (   0.0000000   0.2272727   0.3636364), wk =   0.0045079
        k(   55) = (   0.0000000   0.2272727   0.4090909), wk =   0.0045079
        k(   56) = (   0.0000000   0.2272727   0.4545455), wk =   0.0045079
        k(   57) = (   0.0000000   0.2272727  -0.5000000), wk =   0.0022539
        k(   58) = (   0.0000000   0.2727273   0.2727273), wk =   0.0022539
        k(   59) = (   0.0000000   0.2727273   0.3181818), wk =   0.0045079
        k(   60) = (   0.0000000   0.2727273   0.3636364), wk =   0.0045079
        k(   61) = (   0.0000000   0.2727273   0.4090909), wk =   0.0045079
        k(   62) = (   0.0000000   0.2727273   0.4545455), wk =   0.0045079
        k(   63) = (   0.0000000   0.2727273  -0.5000000), wk =   0.0022539
        k(   64) = (   0.0000000   0.3181818   0.3181818), wk =   0.0022539
        k(   65) = (   0.0000000   0.3181818   0.3636364), wk =   0.0045079
        k(   66) = (   0.0000000   0.3181818   0.4090909), wk =   0.0045079
        k(   67) = (   0.0000000   0.3181818   0.4545455), wk =   0.0045079
        k(   68) = (   0.0000000   0.3181818  -0.5000000), wk =   0.0022539
        k(   69) = (   0.0000000   0.3636364   0.3636364), wk =   0.0022539
        k(   70) = (   0.0000000   0.3636364   0.4090909), wk =   0.0045079
        k(   71) = (   0.0000000   0.3636364   0.4545455), wk =   0.0045079
        k(   72) = (   0.0000000   0.3636364  -0.5000000), wk =   0.0022539
        k(   73) = (   0.0000000   0.4090909   0.4090909), wk =   0.0022539
        k(   74) = (   0.0000000   0.4090909   0.4545455), wk =   0.0045079
        k(   75) = (   0.0000000   0.4090909  -0.5000000), wk =   0.0022539
        k(   76) = (   0.0000000   0.4545455   0.4545455), wk =   0.0022539
        k(   77) = (   0.0000000   0.4545455  -0.5000000), wk =   0.0022539
        k(   78) = (   0.0000000  -0.5000000  -0.5000000), wk =   0.0005635
        k(   79) = (   0.0454545   0.0454545   0.0454545), wk =   0.0015026
        k(   80) = (   0.0454545   0.0454545   0.0909091), wk =   0.0045079
        k(   81) = (   0.0454545   0.0454545   0.1363636), wk =   0.0045079
        k(   82) = (   0.0454545   0.0454545   0.1818182), wk =   0.0045079
        k(   83) = (   0.0454545   0.0454545   0.2272727), wk =   0.0045079
        k(   84) = (   0.0454545   0.0454545   0.2727273), wk =   0.0045079
        k(   85) = (   0.0454545   0.0454545   0.3181818), wk =   0.0045079
        k(   86) = (   0.0454545   0.0454545   0.3636364), wk =   0.0045079
        k(   87) = (   0.0454545   0.0454545   0.4090909), wk =   0.0045079
        k(   88) = (   0.0454545   0.0454545   0.4545455), wk =   0.0045079
        k(   89) = (   0.0454545   0.0454545  -0.5000000), wk =   0.0022539
        k(   90) = (   0.0454545   0.0909091   0.0909091), wk =   0.0045079
        k(   91) = (   0.0454545   0.0909091   0.1363636), wk =   0.0090158
        k(   92) = (   0.0454545   0.0909091   0.1818182), wk =   0.0090158
        k(   93) = (   0.0454545   0.0909091   0.2272727), wk =   0.0090158
        k(   94) = (   0.0454545   0.0909091   0.2727273), wk =   0.0090158
        k(   95) = (   0.0454545   0.0909091   0.3181818), wk =   0.0090158
        k(   96) = (   0.0454545   0.0909091   0.3636364), wk =   0.0090158
        k(   97) = (   0.0454545   0.0909091   0.4090909), wk =   0.0090158
        k(   98) = (   0.0454545   0.0909091   0.4545455), wk =   0.0090158
        k(   99) = (   0.0454545   0.0909091  -0.5000000), wk =   0.0045079
        k(  100) = (   0.0454545   0.1363636   0.1363636), wk =   0.0045079
        k(  101) = (   0.0454545   0.1363636   0.1818182), wk =   0.0090158
        k(  102) = (   0.0454545   0.1363636   0.2272727), wk =   0.0090158
        k(  103) = (   0.0454545   0.1363636   0.2727273), wk =   0.0090158
        k(  104) = (   0.0454545   0.1363636   0.3181818), wk =   0.0090158
        k(  105) = (   0.0454545   0.1363636   0.3636364), wk =   0.0090158
        k(  106) = (   0.0454545   0.1363636   0.4090909), wk =   0.0090158
        k(  107) = (   0.0454545   0.1363636   0.4545455), wk =   0.0090158
        k(  108) = (   0.0454545   0.1363636  -0.5000000), wk =   0.0045079
        k(  109) = (   0.0454545   0.1818182   0.1818182), wk =   0.0045079
        k(  110) = (   0.0454545   0.1818182   0.2272727), wk =   0.0090158
        k(  111) = (   0.0454545   0.1818182   0.2727273), wk =   0.0090158
        k(  112) = (   0.0454545   0.1818182   0.3181818), wk =   0.0090158
        k(  113) = (   0.0454545   0.1818182   0.3636364), wk =   0.0090158
        k(  114) = (   0.0454545   0.1818182   0.4090909), wk =   0.0090158
        k(  115) = (   0.0454545   0.1818182   0.4545455), wk =   0.0090158
        k(  116) = (   0.0454545   0.1818182  -0.5000000), wk =   0.0045079
        k(  117) = (   0.0454545   0.2272727   0.2272727), wk =   0.0045079
        k(  118) = (   0.0454545   0.2272727   0.2727273), wk =   0.0090158
        k(  119) = (   0.0454545   0.2272727   0.3181818), wk =   0.0090158
        k(  120) = (   0.0454545   0.2272727   0.3636364), wk =   0.0090158
        k(  121) = (   0.0454545   0.2272727   0.4090909), wk =   0.0090158
        k(  122) = (   0.0454545   0.2272727   0.4545455), wk =   0.0090158
        k(  123) = (   0.0454545   0.2272727  -0.5000000), wk =   0.0045079
        k(  124) = (   0.0454545   0.2727273   0.2727273), wk =   0.0045079
        k(  125) = (   0.0454545   0.2727273   0.3181818), wk =   0.0090158
        k(  126) = (   0.0454545   0.2727273   0.3636364), wk =   0.0090158
        k(  127) = (   0.0454545   0.2727273   0.4090909), wk =   0.0090158
        k(  128) = (   0.0454545   0.2727273   0.4545455), wk =   0.0090158
        k(  129) = (   0.0454545   0.2727273  -0.5000000), wk =   0.0045079
        k(  130) = (   0.0454545   0.3181818   0.3181818), wk =   0.0045079
        k(  131) = (   0.0454545   0.3181818   0.3636364), wk =   0.0090158
        k(  132) = (   0.0454545   0.3181818   0.4090909), wk =   0.0090158
        k(  133) = (   0.0454545   0.3181818   0.4545455), wk =   0.0090158
        k(  134) = (   0.0454545   0.3181818  -0.5000000), wk =   0.0045079
        k(  135) = (   0.0454545   0.3636364   0.3636364), wk =   0.0045079
        k(  136) = (   0.0454545   0.3636364   0.4090909), wk =   0.0090158
        k(  137) = (   0.0454545   0.3636364   0.4545455), wk =   0.0090158
        k(  138) = (   0.0454545   0.3636364  -0.5000000), wk =   0.0045079
        k(  139) = (   0.0454545   0.4090909   0.4090909), wk =   0.0045079
        k(  140) = (   0.0454545   0.4090909   0.4545455), wk =   0.0090158
        k(  141) = (   0.0454545   0.4090909  -0.5000000), wk =   0.0045079
        k(  142) = (   0.0454545   0.4545455   0.4545455), wk =   0.0045079
        k(  143) = (   0.0454545   0.4545455  -0.5000000), wk =   0.0045079
        k(  144) = (   0.0454545  -0.5000000  -0.5000000), wk =   0.0011270
        k(  145) = (   0.0909091   0.0909091   0.0909091), wk =   0.0015026
        k(  146) = (   0.0909091   0.0909091   0.1363636), wk =   0.0045079
        k(  147) = (   0.0909091   0.0909091   0.1818182), wk =   0.0045079
        k(  148) = (   0.0909091   0.0909091   0.2272727), wk =   0.0045079
        k(  149) = (   0.0909091   0.0909091   0.2727273), wk =   0.0045079
        k(  150) = (   0.0909091   0.0909091   0.3181818), wk =   0.0045079
        k(  151) = (   0.0909091   0.0909091   0.3636364), wk =   0.0045079
        k(  152) = (   0.0909091   0.0909091   0.4090909), wk =   0.0045079
        k(  153) = (   0.0909091   0.0909091   0.4545455), wk =   0.0045079
        k(  154) = (   0.0909091   0.0909091  -0.5000000), wk =   0.0022539
        k(  155) = (   0.0909091   0.1363636   0.1363636), wk =   0.0045079
        k(  156) = (   0.0909091   0.1363636   0.1818182), wk =   0.0090158
        k(  157) = (   0.0909091   0.1363636   0.2272727), wk =   0.0090158
        k(  158) = (   0.0909091   0.1363636   0.2727273), wk =   0.0090158
        k(  159) = (   0.0909091   0.1363636   0.3181818), wk =   0.0090158
        k(  160) = (   0.0909091   0.1363636   0.3636364), wk =   0.0090158
        k(  161) = (   0.0909091   0.1363636   0.4090909), wk =   0.0090158
        k(  162) = (   0.0909091   0.1363636   0.4545455), wk =   0.0090158
        k(  163) = (   0.0909091   0.1363636  -0.5000000), wk =   0.0045079
        k(  164) = (   0.0909091   0.1818182   0.1818182), wk =   0.0045079
        k(  165) = (   0.0909091   0.1818182   0.2272727), wk =   0.0090158
        k(  166) = (   0.0909091   0.1818182   0.2727273), wk =   0.0090158
        k(  167) = (   0.0909091   0.1818182   0.3181818), wk =   0.0090158
        k(  168) = (   0.0909091   0.1818182   0.3636364), wk =   0.0090158
        k(  169) = (   0.0909091   0.1818182   0.4090909), wk =   0.0090158
        k(  170) = (   0.0909091   0.1818182   0.4545455), wk =   0.0090158
        k(  171) = (   0.0909091   0.1818182  -0.5000000), wk =   0.0045079
        k(  172) = (   0.0909091   0.2272727   0.2272727), wk =   0.0045079
        k(  173) = (   0.0909091   0.2272727   0.2727273), wk =   0.0090158
        k(  174) = (   0.0909091   0.2272727   0.3181818), wk =   0.0090158
        k(  175) = (   0.0909091   0.2272727   0.3636364), wk =   0.0090158
        k(  176) = (   0.0909091   0.2272727   0.4090909), wk =   0.0090158
        k(  177) = (   0.0909091   0.2272727   0.4545455), wk =   0.0090158
        k(  178) = (   0.0909091   0.2272727  -0.5000000), wk =   0.0045079
        k(  179) = (   0.0909091   0.2727273   0.2727273), wk =   0.0045079
        k(  180) = (   0.0909091   0.2727273   0.3181818), wk =   0.0090158
        k(  181) = (   0.0909091   0.2727273   0.3636364), wk =   0.0090158
        k(  182) = (   0.0909091   0.2727273   0.4090909), wk =   0.0090158
        k(  183) = (   0.0909091   0.2727273   0.4545455), wk =   0.0090158
        k(  184) = (   0.0909091   0.2727273  -0.5000000), wk =   0.0045079
        k(  185) = (   0.0909091   0.3181818   0.3181818), wk =   0.0045079
        k(  186) = (   0.0909091   0.3181818   0.3636364), wk =   0.0090158
        k(  187) = (   0.0909091   0.3181818   0.4090909), wk =   0.0090158
        k(  188) = (   0.0909091   0.3181818   0.4545455), wk =   0.0090158
        k(  189) = (   0.0909091   0.3181818  -0.5000000), wk =   0.0045079
        k(  190) = (   0.0909091   0.3636364   0.3636364), wk =   0.0045079
        k(  191) = (   0.0909091   0.3636364   0.4090909), wk =   0.0090158
        k(  192) = (   0.0909091   0.3636364   0.4545455), wk =   0.0090158
        k(  193) = (   0.0909091   0.3636364  -0.5000000), wk =   0.0045079
        k(  194) = (   0.0909091   0.4090909   0.4090909), wk =   0.0045079
        k(  195) = (   0.0909091   0.4090909   0.4545455), wk =   0.0090158
        k(  196) = (   0.0909091   0.4090909  -0.5000000), wk =   0.0045079
        k(  197) = (   0.0909091   0.4545455   0.4545455), wk =   0.0045079
        k(  198) = (   0.0909091   0.4545455  -0.5000000), wk =   0.0045079
        k(  199) = (   0.0909091  -0.5000000  -0.5000000), wk =   0.0011270
        k(  200) = (   0.1363636   0.1363636   0.1363636), wk =   0.0015026
        k(  201) = (   0.1363636   0.1363636   0.1818182), wk =   0.0045079
        k(  202) = (   0.1363636   0.1363636   0.2272727), wk =   0.0045079
        k(  203) = (   0.1363636   0.1363636   0.2727273), wk =   0.0045079
        k(  204) = (   0.1363636   0.1363636   0.3181818), wk =   0.0045079
        k(  205) = (   0.1363636   0.1363636   0.3636364), wk =   0.0045079
        k(  206) = (   0.1363636   0.1363636   0.4090909), wk =   0.0045079
        k(  207) = (   0.1363636   0.1363636   0.4545455), wk =   0.0045079
        k(  208) = (   0.1363636   0.1363636  -0.5000000), wk =   0.0022539
        k(  209) = (   0.1363636   0.1818182   0.1818182), wk =   0.0045079
        k(  210) = (   0.1363636   0.1818182   0.2272727), wk =   0.0090158
        k(  211) = (   0.1363636   0.1818182   0.2727273), wk =   0.0090158
        k(  212) = (   0.1363636   0.1818182   0.3181818), wk =   0.0090158
        k(  213) = (   0.1363636   0.1818182   0.3636364), wk =   0.0090158
        k(  214) = (   0.1363636   0.1818182   0.4090909), wk =   0.0090158
        k(  215) = (   0.1363636   0.1818182   0.4545455), wk =   0.0090158
        k(  216) = (   0.1363636   0.1818182  -0.5000000), wk =   0.0045079
        k(  217) = (   0.1363636   0.2272727   0.2272727), wk =   0.0045079
        k(  218) = (   0.1363636   0.2272727   0.2727273), wk =   0.0090158
        k(  219) = (   0.1363636   0.2272727   0.3181818), wk =   0.0090158
        k(  220) = (   0.1363636   0.2272727   0.3636364), wk =   0.0090158
        k(  221) = (   0.1363636   0.2272727   0.4090909), wk =   0.0090158
        k(  222) = (   0.1363636   0.2272727   0.4545455), wk =   0.0090158
        k(  223) = (   0.1363636   0.2272727  -0.5000000), wk =   0.0045079
        k(  224) = (   0.1363636   0.2727273   0.2727273), wk =   0.0045079
        k(  225) = (   0.1363636   0.2727273   0.3181818), wk =   0.0090158
        k(  226) = (   0.1363636   0.2727273   0.3636364), wk =   0.0090158
        k(  227) = (   0.1363636   0.2727273   0.4090909), wk =   0.0090158
        k(  228) = (   0.1363636   0.2727273   0.4545455), wk =   0.0090158
        k(  229) = (   0.1363636   0.2727273  -0.5000000), wk =   0.0045079
        k(  230) = (   0.1363636   0.3181818   0.3181818), wk =   0.0045079
        k(  231) = (   0.1363636   0.3181818   0.3636364), wk =   0.0090158
        k(  232) = (   0.1363636   0.3181818   0.4090909), wk =   0.0090158
        k(  233) = (   0.1363636   0.3181818   0.4545455), wk =   0.0090158
        k(  234) = (   0.1363636   0.3181818  -0.5000000), wk =   0.0045079
        k(  235) = (   0.1363636   0.3636364   0.3636364), wk =   0.0045079
        k(  236) = (   0.1363636   0.3636364   0.4090909), wk =   0.0090158
        k(  237) = (   0.1363636   0.3636364   0.4545455), wk =   0.0090158
        k(  238) = (   0.1363636   0.3636364  -0.5000000), wk =   0.0045079
        k(  239) = (   0.1363636   0.4090909   0.4090909), wk =   0.0045079
        k(  240) = (   0.1363636   0.4090909   0.4545455), wk =   0.0090158
        k(  241) = (   0.1363636   0.4090909  -0.5000000), wk =   0.0045079
        k(  242) = (   0.1363636   0.4545455   0.4545455), wk =   0.0045079
        k(  243) = (   0.1363636   0.4545455  -0.5000000), wk =   0.0045079
        k(  244) = (   0.1363636  -0.5000000  -0.5000000), wk =   0.0011270
        k(  245) = (   0.1818182   0.1818182   0.1818182), wk =   0.0015026
        k(  246) = (   0.1818182   0.1818182   0.2272727), wk =   0.0045079
        k(  247) = (   0.1818182   0.1818182   0.2727273), wk =   0.0045079
        k(  248) = (   0.1818182   0.1818182   0.3181818), wk =   0.0045079
        k(  249) = (   0.1818182   0.1818182   0.3636364), wk =   0.0045079
        k(  250) = (   0.1818182   0.1818182   0.4090909), wk =   0.0045079
        k(  251) = (   0.1818182   0.1818182   0.4545455), wk =   0.0045079
        k(  252) = (   0.1818182   0.1818182  -0.5000000), wk =   0.0022539
        k(  253) = (   0.1818182   0.2272727   0.2272727), wk =   0.0045079
        k(  254) = (   0.1818182   0.2272727   0.2727273), wk =   0.0090158
        k(  255) = (   0.1818182   0.2272727   0.3181818), wk =   0.0090158
        k(  256) = (   0.1818182   0.2272727   0.3636364), wk =   0.0090158
        k(  257) = (   0.1818182   0.2272727   0.4090909), wk =   0.0090158
        k(  258) = (   0.1818182   0.2272727   0.4545455), wk =   0.0090158
        k(  259) = (   0.1818182   0.2272727  -0.5000000), wk =   0.0045079
        k(  260) = (   0.1818182   0.2727273   0.2727273), wk =   0.0045079
        k(  261) = (   0.1818182   0.2727273   0.3181818), wk =   0.0090158
        k(  262) = (   0.1818182   0.2727273   0.3636364), wk =   0.0090158
        k(  263) = (   0.1818182   0.2727273   0.4090909), wk =   0.0090158
        k(  264) = (   0.1818182   0.2727273   0.4545455), wk =   0.0090158
        k(  265) = (   0.1818182   0.2727273  -0.5000000), wk =   0.0045079
        k(  266) = (   0.1818182   0.3181818   0.3181818), wk =   0.0045079
        k(  267) = (   0.1818182   0.3181818   0.3636364), wk =   0.0090158
        k(  268) = (   0.1818182   0.3181818   0.4090909), wk =   0.0090158
        k(  269) = (   0.1818182   0.3181818   0.4545455), wk =   0.0090158
        k(  270) = (   0.1818182   0.3181818  -0.5000000), wk =   0.0045079
        k(  271) = (   0.1818182   0.3636364   0.3636364), wk =   0.0045079
        k(  272) = (   0.1818182   0.3636364   0.4090909), wk =   0.0090158
        k(  273) = (   0.1818182   0.3636364   0.4545455), wk =   0.0090158
        k(  274) = (   0.1818182   0.3636364  -0.5000000), wk =   0.0045079
        k(  275) = (   0.1818182   0.4090909   0.4090909), wk =   0.0045079
        k(  276) = (   0.1818182   0.4090909   0.4545455), wk =   0.0090158
        k(  277) = (   0.1818182   0.4090909  -0.5000000), wk =   0.0045079
        k(  278) = (   0.1818182   0.4545455   0.4545455), wk =   0.0045079
        k(  279) = (   0.1818182   0.4545455  -0.5000000), wk =   0.0045079
        k(  280) = (   0.1818182  -0.5000000  -0.5000000), wk =   0.0011270
        k(  281) = (   0.2272727   0.2272727   0.2272727), wk =   0.0015026
        k(  282) = (   0.2272727   0.2272727   0.2727273), wk =   0.0045079
        k(  283) = (   0.2272727   0.2272727   0.3181818), wk =   0.0045079
        k(  284) = (   0.2272727   0.2272727   0.3636364), wk =   0.0045079
        k(  285) = (   0.2272727   0.2272727   0.4090909), wk =   0.0045079
        k(  286) = (   0.2272727   0.2272727   0.4545455), wk =   0.0045079
        k(  287) = (   0.2272727   0.2272727  -0.5000000), wk =   0.0022539
        k(  288) = (   0.2272727   0.2727273   0.2727273), wk =   0.0045079
        k(  289) = (   0.2272727   0.2727273   0.3181818), wk =   0.0090158
        k(  290) = (   0.2272727   0.2727273   0.3636364), wk =   0.0090158
        k(  291) = (   0.2272727   0.2727273   0.4090909), wk =   0.0090158
        k(  292) = (   0.2272727   0.2727273   0.4545455), wk =   0.0090158
        k(  293) = (   0.2272727   0.2727273  -0.5000000), wk =   0.0045079
        k(  294) = (   0.2272727   0.3181818   0.3181818), wk =   0.0045079
        k(  295) = (   0.2272727   0.3181818   0.3636364), wk =   0.0090158
        k(  296) = (   0.2272727   0.3181818   0.4090909), wk =   0.0090158
        k(  297) = (   0.2272727   0.3181818   0.4545455), wk =   0.0090158
        k(  298) = (   0.2272727   0.3181818  -0.5000000), wk =   0.0045079
        k(  299) = (   0.2272727   0.3636364   0.3636364), wk =   0.0045079
        k(  300) = (   0.2272727   0.3636364   0.4090909), wk =   0.0090158
        k(  301) = (   0.2272727   0.3636364   0.4545455), wk =   0.0090158
        k(  302) = (   0.2272727   0.3636364  -0.5000000), wk =   0.0045079
        k(  303) = (   0.2272727   0.4090909   0.4090909), wk =   0.0045079
        k(  304) = (   0.2272727   0.4090909   0.4545455), wk =   0.0090158
        k(  305) = (   0.2272727   0.4090909  -0.5000000), wk =   0.0045079
        k(  306) = (   0.2272727   0.4545455   0.4545455), wk =   0.0045079
        k(  307) = (   0.2272727   0.4545455  -0.5000000), wk =   0.0045079
        k(  308) = (   0.2272727  -0.5000000  -0.5000000), wk =   0.0011270
        k(  309) = (   0.2727273   0.2727273   0.2727273), wk =   0.0015026
        k(  310) = (   0.2727273   0.2727273   0.3181818), wk =   0.0045079
        k(  311) = (   0.2727273   0.2727273   0.3636364), wk =   0.0045079
        k(  312) = (   0.2727273   0.2727273   0.4090909), wk =   0.0045079
        k(  313) = (   0.2727273   0.2727273   0.4545455), wk =   0.0045079
        k(  314) = (   0.2727273   0.2727273  -0.5000000), wk =   0.0022539
        k(  315) = (   0.2727273   0.3181818   0.3181818), wk =   0.0045079
        k(  316) = (   0.2727273   0.3181818   0.3636364), wk =   0.0090158
        k(  317) = (   0.2727273   0.3181818   0.4090909), wk =   0.0090158
        k(  318) = (   0.2727273   0.3181818   0.4545455), wk =   0.0090158
        k(  319) = (   0.2727273   0.3181818  -0.5000000), wk =   0.0045079
        k(  320) = (   0.2727273   0.3636364   0.3636364), wk =   0.0045079
        k(  321) = (   0.2727273   0.3636364   0.4090909), wk =   0.0090158
        k(  322) = (   0.2727273   0.3636364   0.4545455), wk =   0.0090158
        k(  323) = (   0.2727273   0.3636364  -0.5000000), wk =   0.0045079
        k(  324) = (   0.2727273   0.4090909   0.4090909), wk =   0.0045079
        k(  325) = (   0.2727273   0.4090909   0.4545455), wk =   0.0090158
        k(  326) = (   0.2727273   0.4090909  -0.5000000), wk =   0.0045079
        k(  327) = (   0.2727273   0.4545455   0.4545455), wk =   0.0045079
        k(  328) = (   0.2727273   0.4545455  -0.5000000), wk =   0.0045079
        k(  329) = (   0.2727273  -0.5000000  -0.5000000), wk =   0.0011270
        k(  330) = (   0.3181818   0.3181818   0.3181818), wk =   0.0015026
        k(  331) = (   0.3181818   0.3181818   0.3636364), wk =   0.0045079
        k(  332) = (   0.3181818   0.3181818   0.4090909), wk =   0.0045079
        k(  333) = (   0.3181818   0.3181818   0.4545455), wk =   0.0045079
        k(  334) = (   0.3181818   0.3181818  -0.5000000), wk =   0.0022539
        k(  335) = (   0.3181818   0.3636364   0.3636364), wk =   0.0045079
        k(  336) = (   0.3181818   0.3636364   0.4090909), wk =   0.0090158
        k(  337) = (   0.3181818   0.3636364   0.4545455), wk =   0.0090158
        k(  338) = (   0.3181818   0.3636364  -0.5000000), wk =   0.0045079
        k(  339) = (   0.3181818   0.4090909   0.4090909), wk =   0.0045079
        k(  340) = (   0.3181818   0.4090909   0.4545455), wk =   0.0090158
        k(  341) = (   0.3181818   0.4090909  -0.5000000), wk =   0.0045079
        k(  342) = (   0.3181818   0.4545455   0.4545455), wk =   0.0045079
        k(  343) = (   0.3181818   0.4545455  -0.5000000), wk =   0.0045079
        k(  344) = (   0.3181818  -0.5000000  -0.5000000), wk =   0.0011270
        k(  345) = (   0.3636364   0.3636364   0.3636364), wk =   0.0015026
        k(  346) = (   0.3636364   0.3636364   0.4090909), wk =   0.0045079
        k(  347) = (   0.3636364   0.3636364   0.4545455), wk =   0.0045079
        k(  348) = (   0.3636364   0.3636364  -0.5000000), wk =   0.0022539
        k(  349) = (   0.3636364   0.4090909   0.4090909), wk =   0.0045079
        k(  350) = (   0.3636364   0.4090909   0.4545455), wk =   0.0090158
        k(  351) = (   0.3636364   0.4090909  -0.5000000), wk =   0.0045079
        k(  352) = (   0.3636364   0.4545455   0.4545455), wk =   0.0045079
        k(  353) = (   0.3636364   0.4545455  -0.5000000), wk =   0.0045079
        k(  354) = (   0.3636364  -0.5000000  -0.5000000), wk =   0.0011270
        k(  355) = (   0.4090909   0.4090909   0.4090909), wk =   0.0015026
        k(  356) = (   0.4090909   0.4090909   0.4545455), wk =   0.0045079
        k(  357) = (   0.4090909   0.4090909  -0.5000000), wk =   0.0022539
        k(  358) = (   0.4090909   0.4545455   0.4545455), wk =   0.0045079
        k(  359) = (   0.4090909   0.4545455  -0.5000000), wk =   0.0045079
        k(  360) = (   0.4090909  -0.5000000  -0.5000000), wk =   0.0011270
        k(  361) = (   0.4545455   0.4545455   0.4545455), wk =   0.0015026
        k(  362) = (   0.4545455   0.4545455  -0.5000000), wk =   0.0022539
        k(  363) = (   0.4545455  -0.5000000  -0.5000000), wk =   0.0011270
        k(  364) = (  -0.5000000  -0.5000000  -0.5000000), wk =   0.0001878

                       cryst. coord.
        k(    1) = (   0.0000000   0.0000000   0.0000000), wk =   0.0001878
        k(    2) = (   0.0000000   0.0000000   0.0454545), wk =   0.0011270
        k(    3) = (   0.0000000   0.0000000   0.0909091), wk =   0.0011270
        k(    4) = (   0.0000000   0.0000000   0.1363636), wk =   0.0011270
        k(    5) = (   0.0000000   0.0000000   0.1818182), wk =   0.0011270
        k(    6) = (   0.0000000   0.0000000   0.2272727), wk =   0.0011270
        k(    7) = (   0.0000000   0.0000000   0.2727273), wk =   0.0011270
        k(    8) = (   0.0000000   0.0000000   0.3181818), wk =   0.0011270
        k(    9) = (   0.0000000   0.0000000   0.3636364), wk =   0.0011270
        k(   10) = (   0.0000000   0.0000000   0.4090909), wk =   0.0011270
        k(   11) = (   0.0000000   0.0000000   0.4545455), wk =   0.0011270
        k(   12) = (   0.0000000   0.0000000  -0.5000000), wk =   0.0005635
        k(   13) = (   0.0000000   0.0454545   0.0454545), wk =   0.0022539
        k(   14) = (   0.0000000   0.0454545   0.0909091), wk =   0.0045079
        k(   15) = (   0.0000000   0.0454545   0.1363636), wk =   0.0045079
        k(   16) = (   0.0000000   0.0454545   0.1818182), wk =   0.0045079
        k(   17) = (   0.0000000   0.0454545   0.2272727), wk =   0.0045079
        k(   18) = (   0.0000000   0.0454545   0.2727273), wk =   0.0045079
        k(   19) = (   0.0000000   0.0454545   0.3181818), wk =   0.0045079
        k(   20) = (   0.0000000   0.0454545   0.3636364), wk =   0.0045079
        k(   21) = (   0.0000000   0.0454545   0.4090909), wk =   0.0045079
        k(   22) = (   0.0000000   0.0454545   0.4545455), wk =   0.0045079
        k(   23) = (   0.0000000   0.0454545  -0.5000000), wk =   0.0022539
        k(   24) = (   0.0000000   0.0909091   0.0909091), wk =   0.0022539
        k(   25) = (   0.0000000   0.0909091   0.1363636), wk =   0.0045079
        k(   26) = (   0.0000000   0.0909091   0.1818182), wk =   0.0045079
        k(   27) = (   0.0000000   0.0909091   0.2272727), wk =   0.0045079
        k(   28) = (   0.0000000   0.0909091   0.2727273), wk =   0.0045079
        k(   29) = (   0.0000000   0.0909091   0.3181818), wk =   0.0045079
        k(   30) = (   0.0000000   0.0909091   0.3636364), wk =   0.0045079
        k(   31) = (   0.0000000   0.0909091   0.4090909), wk =   0.0045079
        k(   32) = (   0.0000000   0.0909091   0.4545455), wk =   0.0045079
        k(   33) = (   0.0000000   0.0909091  -0.5000000), wk =   0.0022539
        k(   34) = (   0.0000000   0.1363636   0.1363636), wk =   0.0022539
        k(   35) = (   0.0000000   0.1363636   0.1818182), wk =   0.0045079
        k(   36) = (   0.0000000   0.1363636   0.2272727), wk =   0.0045079
        k(   37) = (   0.0000000   0.1363636   0.2727273), wk =   0.0045079
        k(   38) = (   0.0000000   0.1363636   0.3181818), wk =   0.0045079
        k(   39) = (   0.0000000   0.1363636   0.3636364), wk =   0.0045079
        k(   40) = (   0.0000000   0.1363636   0.4090909), wk =   0.0045079
        k(   41) = (   0.0000000   0.1363636   0.4545455), wk =   0.0045079
        k(   42) = (   0.0000000   0.1363636  -0.5000000), wk =   0.0022539
        k(   43) = (   0.0000000   0.1818182   0.1818182), wk =   0.0022539
        k(   44) = (   0.0000000   0.1818182   0.2272727), wk =   0.0045079
        k(   45) = (   0.0000000   0.1818182   0.2727273), wk =   0.0045079
        k(   46) = (   0.0000000   0.1818182   0.3181818), wk =   0.0045079
        k(   47) = (   0.0000000   0.1818182   0.3636364), wk =   0.0045079
        k(   48) = (   0.0000000   0.1818182   0.4090909), wk =   0.0045079
        k(   49) = (   0.0000000   0.1818182   0.4545455), wk =   0.0045079
        k(   50) = (   0.0000000   0.1818182  -0.5000000), wk =   0.0022539
        k(   51) = (   0.0000000   0.2272727   0.2272727), wk =   0.0022539
        k(   52) = (   0.0000000   0.2272727   0.2727273), wk =   0.0045079
        k(   53) = (   0.0000000   0.2272727   0.3181818), wk =   0.0045079
        k(   54) = (   0.0000000   0.2272727   0.3636364), wk =   0.0045079
        k(   55) = (   0.0000000   0.2272727   0.4090909), wk =   0.0045079
        k(   56) = (   0.0000000   0.2272727   0.4545455), wk =   0.0045079
        k(   57) = (   0.0000000   0.2272727  -0.5000000), wk =   0.0022539
        k(   58) = (   0.0000000   0.2727273   0.2727273), wk =   0.0022539
        k(   59) = (   0.0000000   0.2727273   0.3181818), wk =   0.0045079
        k(   60) = (   0.0000000   0.2727273   0.3636364), wk =   0.0045079
        k(   61) = (   0.0000000   0.2727273   0.4090909), wk =   0.0045079
        k(   62) = (   0.0000000   0.2727273   0.4545455), wk =   0.0045079
        k(   63) = (   0.0000000   0.2727273  -0.5000000), wk =   0.0022539
        k(   64) = (   0.0000000   0.3181818   0.3181818), wk =   0.0022539
        k(   65) = (   0.0000000   0.3181818   0.3636364), wk =   0.0045079
        k(   66) = (   0.0000000   0.3181818   0.4090909), wk =   0.0045079
        k(   67) = (   0.0000000   0.3181818   0.4545455), wk =   0.0045079
        k(   68) = (   0.0000000   0.3181818  -0.5000000), wk =   0.0022539
        k(   69) = (   0.0000000   0.3636364   0.3636364), wk =   0.0022539
        k(   70) = (   0.0000000   0.3636364   0.4090909), wk =   0.0045079
        k(   71) = (   0.0000000   0.3636364   0.4545455), wk =   0.0045079
        k(   72) = (   0.0000000   0.3636364  -0.5000000), wk =   0.0022539
        k(   73) = (   0.0000000   0.4090909   0.4090909), wk =   0.0022539
        k(   74) = (   0.0000000   0.4090909   0.4545455), wk =   0.0045079
        k(   75) = (   0.0000000   0.4090909  -0.5000000), wk =   0.0022539
        k(   76) = (   0.0000000   0.4545455   0.4545455), wk =   0.0022539
        k(   77) = (   0.0000000   0.4545455  -0.5000000), wk =   0.0022539
        k(   78) = (   0.0000000  -0.5000000  -0.5000000), wk =   0.0005635
        k(   79) = (   0.0454545   0.0454545   0.0454545), wk =   0.0015026
        k(   80) = (   0.0454545   0.0454545   0.0909091), wk =   0.0045079
        k(   81) = (   0.0454545   0.0454545   0.1363636), wk =   0.0045079
        k(   82) = (   0.0454545   0.0454545   0.1818182), wk =   0.0045079
        k(   83) = (   0.0454545   0.0454545   0.2272727), wk =   0.0045079
        k(   84) = (   0.0454545   0.0454545   0.2727273), wk =   0.0045079
        k(   85) = (   0.0454545   0.0454545   0.3181818), wk =   0.0045079
        k(   86) = (   0.0454545   0.0454545   0.3636364), wk =   0.0045079
        k(   87) = (   0.0454545   0.0454545   0.4090909), wk =   0.0045079
        k(   88) = (   0.0454545   0.0454545   0.4545455), wk =   0.0045079
        k(   89) = (   0.0454545   0.0454545  -0.5000000), wk =   0.0022539
        k(   90) = (   0.0454545   0.0909091   0.0909091), wk =   0.0045079
        k(   91) = (   0.0454545   0.0909091   0.1363636), wk =   0.0090158
        k(   92) = (   0.0454545   0.0909091   0.1818182), wk =   0.0090158
        k(   93) = (   0.0454545   0.0909091   0.2272727), wk =   0.0090158
        k(   94) = (   0.0454545   0.0909091   0.2727273), wk =   0.0090158
        k(   95) = (   0.0454545   0.0909091   0.3181818), wk =   0.0090158
        k(   96) = (   0.0454545   0.0909091   0.3636364), wk =   0.0090158
        k(   97) = (   0.0454545   0.0909091   0.4090909), wk =   0.0090158
        k(   98) = (   0.0454545   0.0909091   0.4545455), wk =   0.0090158
        k(   99) = (   0.0454545   0.0909091  -0.5000000), wk =   0.0045079
        k(  100) = (   0.0454545   0.1363636   0.1363636), wk =   0.0045079
        k(  101) = (   0.0454545   0.1363636   0.1818182), wk =   0.0090158
        k(  102) = (   0.0454545   0.1363636   0.2272727), wk =   0.0090158
        k(  103) = (   0.0454545   0.1363636   0.2727273), wk =   0.0090158
        k(  104) = (   0.0454545   0.1363636   0.3181818), wk =   0.0090158
        k(  105) = (   0.0454545   0.1363636   0.3636364), wk =   0.0090158
        k(  106) = (   0.0454545   0.1363636   0.4090909), wk =   0.0090158
        k(  107) = (   0.0454545   0.1363636   0.4545455), wk =   0.0090158
        k(  108) = (   0.0454545   0.1363636  -0.5000000), wk =   0.0045079
        k(  109) = (   0.0454545   0.1818182   0.1818182), wk =   0.0045079
        k(  110) = (   0.0454545   0.1818182   0.2272727), wk =   0.0090158
        k(  111) = (   0.0454545   0.1818182   0.2727273), wk =   0.0090158
        k(  112) = (   0.0454545   0.1818182   0.3181818), wk =   0.0090158
        k(  113) = (   0.0454545   0.1818182   0.3636364), wk =   0.0090158
        k(  114) = (   0.0454545   0.1818182   0.4090909), wk =   0.0090158
        k(  115) = (   0.0454545   0.1818182   0.4545455), wk =   0.0090158
        k(  116) = (   0.0454545   0.1818182  -0.5000000), wk =   0.0045079
        k(  117) = (   0.0454545   0.2272727   0.2272727), wk =   0.0045079
        k(  118) = (   0.0454545   0.2272727   0.2727273), wk =   0.0090158
        k(  119) = (   0.0454545   0.2272727   0.3181818), wk =   0.0090158
        k(  120) = (   0.0454545   0.2272727   0.3636364), wk =   0.0090158
        k(  121) = (   0.0454545   0.2272727   0.4090909), wk =   0.0090158
        k(  122) = (   0.0454545   0.2272727   0.4545455), wk =   0.0090158
        k(  123) = (   0.0454545   0.2272727  -0.5000000), wk =   0.0045079
        k(  124) = (   0.0454545   0.2727273   0.2727273), wk =   0.0045079
        k(  125) = (   0.0454545   0.2727273   0.3181818), wk =   0.0090158
        k(  126) = (   0.0454545   0.2727273   0.3636364), wk =   0.0090158
        k(  127) = (   0.0454545   0.2727273   0.4090909), wk =   0.0090158
        k(  128) = (   0.0454545   0.2727273   0.4545455), wk =   0.0090158
        k(  129) = (   0.0454545   0.2727273  -0.5000000), wk =   0.0045079
        k(  130) = (   0.0454545   0.3181818   0.3181818), wk =   0.0045079
        k(  131) = (   0.0454545   0.3181818   0.3636364), wk =   0.0090158
        k(  132) = (   0.0454545   0.3181818   0.4090909), wk =   0.0090158
        k(  133) = (   0.0454545   0.3181818   0.4545455), wk =   0.0090158
        k(  134) = (   0.0454545   0.3181818  -0.5000000), wk =   0.0045079
        k(  135) = (   0.0454545   0.3636364   0.3636364), wk =   0.0045079
        k(  136) = (   0.0454545   0.3636364   0.4090909), wk =   0.0090158
        k(  137) = (   0.0454545   0.3636364   0.4545455), wk =   0.0090158
        k(  138) = (   0.0454545   0.3636364  -0.5000000), wk =   0.0045079
        k(  139) = (   0.0454545   0.4090909   0.4090909), wk =   0.0045079
        k(  140) = (   0.0454545   0.4090909   0.4545455), wk =   0.0090158
        k(  141) = (   0.0454545   0.4090909  -0.5000000), wk =   0.0045079
        k(  142) = (   0.0454545   0.4545455   0.4545455), wk =   0.0045079
        k(  143) = (   0.0454545   0.4545455  -0.5000000), wk =   0.0045079
        k(  144) = (   0.0454545  -0.5000000  -0.5000000), wk =   0.0011270
        k(  145) = (   0.0909091   0.0909091   0.0909091), wk =   0.0015026
        k(  146) = (   0.0909091   0.0909091   0.1363636), wk =   0.0045079
        k(  147) = (   0.0909091   0.0909091   0.1818182), wk =   0.0045079
        k(  148) = (   0.0909091   0.0909091   0.2272727), wk =   0.0045079
        k(  149) = (   0.0909091   0.0909091   0.2727273), wk =   0.0045079
        k(  150) = (   0.0909091   0.0909091   0.3181818), wk =   0.0045079
        k(  151) = (   0.0909091   0.0909091   0.3636364), wk =   0.0045079
        k(  152) = (   0.0909091   0.0909091   0.4090909), wk =   0.0045079
        k(  153) = (   0.0909091   0.0909091   0.4545455), wk =   0.0045079
        k(  154) = (   0.0909091   0.0909091  -0.5000000), wk =   0.0022539
        k(  155) = (   0.0909091   0.1363636   0.1363636), wk =   0.0045079
        k(  156) = (   0.0909091   0.1363636   0.1818182), wk =   0.0090158
        k(  157) = (   0.0909091   0.1363636   0.2272727), wk =   0.0090158
        k(  158) = (   0.0909091   0.1363636   0.2727273), wk =   0.0090158
        k(  159) = (   0.0909091   0.1363636   0.3181818), wk =   0.0090158
        k(  160) = (   0.0909091   0.1363636   0.3636364), wk =   0.0090158
        k(  161) = (   0.0909091   0.1363636   0.4090909), wk =   0.0090158
        k(  162) = (   0.0909091   0.1363636   0.4545455), wk =   0.0090158
        k(  163) = (   0.0909091   0.1363636  -0.5000000), wk =   0.0045079
        k(  164) = (   0.0909091   0.1818182   0.1818182), wk =   0.0045079
        k(  165) = (   0.0909091   0.1818182   0.2272727), wk =   0.0090158
        k(  166) = (   0.0909091   0.1818182   0.2727273), wk =   0.0090158
        k(  167) = (   0.0909091   0.1818182   0.3181818), wk =   0.0090158
        k(  168) = (   0.0909091   0.1818182   0.3636364), wk =   0.0090158
        k(  169) = (   0.0909091   0.1818182   0.4090909), wk =   0.0090158
        k(  170) = (   0.0909091   0.1818182   0.4545455), wk =   0.0090158
        k(  171) = (   0.0909091   0.1818182  -0.5000000), wk =   0.0045079
        k(  172) = (   0.0909091   0.2272727   0.2272727), wk =   0.0045079
        k(  173) = (   0.0909091   0.2272727   0.2727273), wk =   0.0090158
        k(  174) = (   0.0909091   0.2272727   0.3181818), wk =   0.0090158
        k(  175) = (   0.0909091   0.2272727   0.3636364), wk =   0.0090158
        k(  176) = (   0.0909091   0.2272727   0.4090909), wk =   0.0090158
        k(  177) = (   0.0909091   0.2272727   0.4545455), wk =   0.0090158
        k(  178) = (   0.0909091   0.2272727  -0.5000000), wk =   0.0045079
        k(  179) = (   0.0909091   0.2727273   0.2727273), wk =   0.0045079
        k(  180) = (   0.0909091   0.2727273   0.3181818), wk =   0.0090158
        k(  181) = (   0.0909091   0.2727273   0.3636364), wk =   0.0090158
        k(  182) = (   0.0909091   0.2727273   0.4090909), wk =   0.0090158
        k(  183) = (   0.0909091   0.2727273   0.4545455), wk =   0.0090158
        k(  184) = (   0.0909091   0.2727273  -0.5000000), wk =   0.0045079
        k(  185) = (   0.0909091   0.3181818   0.3181818), wk =   0.0045079
        k(  186) = (   0.0909091   0.3181818   0.3636364), wk =   0.0090158
        k(  187) = (   0.0909091   0.3181818   0.4090909), wk =   0.0090158
        k(  188) = (   0.0909091   0.3181818   0.4545455), wk =   0.0090158
        k(  189) = (   0.0909091   0.3181818  -0.5000000), wk =   0.0045079
        k(  190) = (   0.0909091   0.3636364   0.3636364), wk =   0.0045079
        k(  191) = (   0.0909091   0.3636364   0.4090909), wk =   0.0090158
        k(  192) = (   0.0909091   0.3636364   0.4545455), wk =   0.0090158
        k(  193) = (   0.0909091   0.3636364  -0.5000000), wk =   0.0045079
        k(  194) = (   0.0909091   0.4090909   0.4090909), wk =   0.0045079
        k(  195) = (   0.0909091   0.4090909   0.4545455), wk =   0.0090158
        k(  196) = (   0.0909091   0.4090909  -0.5000000), wk =   0.0045079
        k(  197) = (   0.0909091   0.4545455   0.4545455), wk =   0.0045079
        k(  198) = (   0.0909091   0.4545455  -0.5000000), wk =   0.0045079
        k(  199) = (   0.0909091  -0.5000000  -0.5000000), wk =   0.0011270
        k(  200) = (   0.1363636   0.1363636   0.1363636), wk =   0.0015026
        k(  201) = (   0.1363636   0.1363636   0.1818182), wk =   0.0045079
        k(  202) = (   0.1363636   0.1363636   0.2272727), wk =   0.0045079
        k(  203) = (   0.1363636   0.1363636   0.2727273), wk =   0.0045079
        k(  204) = (   0.1363636   0.1363636   0.3181818), wk =   0.0045079
        k(  205) = (   0.1363636   0.1363636   0.3636364), wk =   0.0045079
        k(  206) = (   0.1363636   0.1363636   0.4090909), wk =   0.0045079
        k(  207) = (   0.1363636   0.1363636   0.4545455), wk =   0.0045079
        k(  208) = (   0.1363636   0.1363636  -0.5000000), wk =   0.0022539
        k(  209) = (   0.1363636   0.1818182   0.1818182), wk =   0.0045079
        k(  210) = (   0.1363636   0.1818182   0.2272727), wk =   0.0090158
        k(  211) = (   0.1363636   0.1818182   0.2727273), wk =   0.0090158
        k(  212) = (   0.1363636   0.1818182   0.3181818), wk =   0.0090158
        k(  213) = (   0.1363636   0.1818182   0.3636364), wk =   0.0090158
        k(  214) = (   0.1363636   0.1818182   0.4090909), wk =   0.0090158
        k(  215) = (   0.1363636   0.1818182   0.4545455), wk =   0.0090158
        k(  216) = (   0.1363636   0.1818182  -0.5000000), wk =   0.0045079
        k(  217) = (   0.1363636   0.2272727   0.2272727), wk =   0.0045079
        k(  218) = (   0.1363636   0.2272727   0.2727273), wk =   0.0090158
        k(  219) = (   0.1363636   0.2272727   0.3181818), wk =   0.0090158
        k(  220) = (   0.1363636   0.2272727   0.3636364), wk =   0.0090158
        k(  221) = (   0.1363636   0.2272727   0.4090909), wk =   0.0090158
        k(  222) = (   0.1363636   0.2272727   0.4545455), wk =   0.0090158
        k(  223) = (   0.1363636   0.2272727  -0.5000000), wk =   0.0045079
        k(  224) = (   0.1363636   0.2727273   0.2727273), wk =   0.0045079
        k(  225) = (   0.1363636   0.2727273   0.3181818), wk =   0.0090158
        k(  226) = (   0.1363636   0.2727273   0.3636364), wk =   0.0090158
        k(  227) = (   0.1363636   0.2727273   0.4090909), wk =   0.0090158
        k(  228) = (   0.1363636   0.2727273   0.4545455), wk =   0.0090158
        k(  229) = (   0.1363636   0.2727273  -0.5000000), wk =   0.0045079
        k(  230) = (   0.1363636   0.3181818   0.3181818), wk =   0.0045079
        k(  231) = (   0.1363636   0.3181818   0.3636364), wk =   0.0090158
        k(  232) = (   0.1363636   0.3181818   0.4090909), wk =   0.0090158
        k(  233) = (   0.1363636   0.3181818   0.4545455), wk =   0.0090158
        k(  234) = (   0.1363636   0.3181818  -0.5000000), wk =   0.0045079
        k(  235) = (   0.1363636   0.3636364   0.3636364), wk =   0.0045079
        k(  236) = (   0.1363636   0.3636364   0.4090909), wk =   0.0090158
        k(  237) = (   0.1363636   0.3636364   0.4545455), wk =   0.0090158
        k(  238) = (   0.1363636   0.3636364  -0.5000000), wk =   0.0045079
        k(  239) = (   0.1363636   0.4090909   0.4090909), wk =   0.0045079
        k(  240) = (   0.1363636   0.4090909   0.4545455), wk =   0.0090158
        k(  241) = (   0.1363636   0.4090909  -0.5000000), wk =   0.0045079
        k(  242) = (   0.1363636   0.4545455   0.4545455), wk =   0.0045079
        k(  243) = (   0.1363636   0.4545455  -0.5000000), wk =   0.0045079
        k(  244) = (   0.1363636  -0.5000000  -0.5000000), wk =   0.0011270
        k(  245) = (   0.1818182   0.1818182   0.1818182), wk =   0.0015026
        k(  246) = (   0.1818182   0.1818182   0.2272727), wk =   0.0045079
        k(  247) = (   0.1818182   0.1818182   0.2727273), wk =   0.0045079
        k(  248) = (   0.1818182   0.1818182   0.3181818), wk =   0.0045079
        k(  249) = (   0.1818182   0.1818182   0.3636364), wk =   0.0045079
        k(  250) = (   0.1818182   0.1818182   0.4090909), wk =   0.0045079
        k(  251) = (   0.1818182   0.1818182   0.4545455), wk =   0.0045079
        k(  252) = (   0.1818182   0.1818182  -0.5000000), wk =   0.0022539
        k(  253) = (   0.1818182   0.2272727   0.2272727), wk =   0.0045079
        k(  254) = (   0.1818182   0.2272727   0.2727273), wk =   0.0090158
        k(  255) = (   0.1818182   0.2272727   0.3181818), wk =   0.0090158
        k(  256) = (   0.1818182   0.2272727   0.3636364), wk =   0.0090158
        k(  257) = (   0.1818182   0.2272727   0.4090909), wk =   0.0090158
        k(  258) = (   0.1818182   0.2272727   0.4545455), wk =   0.0090158
        k(  259) = (   0.1818182   0.2272727  -0.5000000), wk =   0.0045079
        k(  260) = (   0.1818182   0.2727273   0.2727273), wk =   0.0045079
        k(  261) = (   0.1818182   0.2727273   0.3181818), wk =   0.0090158
        k(  262) = (   0.1818182   0.2727273   0.3636364), wk =   0.0090158
        k(  263) = (   0.1818182   0.2727273   0.4090909), wk =   0.0090158
        k(  264) = (   0.1818182   0.2727273   0.4545455), wk =   0.0090158
        k(  265) = (   0.1818182   0.2727273  -0.5000000), wk =   0.0045079
        k(  266) = (   0.1818182   0.3181818   0.3181818), wk =   0.0045079
        k(  267) = (   0.1818182   0.3181818   0.3636364), wk =   0.0090158
        k(  268) = (   0.1818182   0.3181818   0.4090909), wk =   0.0090158
        k(  269) = (   0.1818182   0.3181818   0.4545455), wk =   0.0090158
        k(  270) = (   0.1818182   0.3181818  -0.5000000), wk =   0.0045079
        k(  271) = (   0.1818182   0.3636364   0.3636364), wk =   0.0045079
        k(  272) = (   0.1818182   0.3636364   0.4090909), wk =   0.0090158
        k(  273) = (   0.1818182   0.3636364   0.4545455), wk =   0.0090158
        k(  274) = (   0.1818182   0.3636364  -0.5000000), wk =   0.0045079
        k(  275) = (   0.1818182   0.4090909   0.4090909), wk =   0.0045079
        k(  276) = (   0.1818182   0.4090909   0.4545455), wk =   0.0090158
        k(  277) = (   0.1818182   0.4090909  -0.5000000), wk =   0.0045079
        k(  278) = (   0.1818182   0.4545455   0.4545455), wk =   0.0045079
        k(  279) = (   0.1818182   0.4545455  -0.5000000), wk =   0.0045079
        k(  280) = (   0.1818182  -0.5000000  -0.5000000), wk =   0.0011270
        k(  281) = (   0.2272727   0.2272727   0.2272727), wk =   0.0015026
        k(  282) = (   0.2272727   0.2272727   0.2727273), wk =   0.0045079
        k(  283) = (   0.2272727   0.2272727   0.3181818), wk =   0.0045079
        k(  284) = (   0.2272727   0.2272727   0.3636364), wk =   0.0045079
        k(  285) = (   0.2272727   0.2272727   0.4090909), wk =   0.0045079
        k(  286) = (   0.2272727   0.2272727   0.4545455), wk =   0.0045079
        k(  287) = (   0.2272727   0.2272727  -0.5000000), wk =   0.0022539
        k(  288) = (   0.2272727   0.2727273   0.2727273), wk =   0.0045079
        k(  289) = (   0.2272727   0.2727273   0.3181818), wk =   0.0090158
        k(  290) = (   0.2272727   0.2727273   0.3636364), wk =   0.0090158
        k(  291) = (   0.2272727   0.2727273   0.4090909), wk =   0.0090158
        k(  292) = (   0.2272727   0.2727273   0.4545455), wk =   0.0090158
        k(  293) = (   0.2272727   0.2727273  -0.5000000), wk =   0.0045079
        k(  294) = (   0.2272727   0.3181818   0.3181818), wk =   0.0045079
        k(  295) = (   0.2272727   0.3181818   0.3636364), wk =   0.0090158
        k(  296) = (   0.2272727   0.3181818   0.4090909), wk =   0.0090158
        k(  297) = (   0.2272727   0.3181818   0.4545455), wk =   0.0090158
        k(  298) = (   0.2272727   0.3181818  -0.5000000), wk =   0.0045079
        k(  299) = (   0.2272727   0.3636364   0.3636364), wk =   0.0045079
        k(  300) = (   0.2272727   0.3636364   0.4090909), wk =   0.0090158
        k(  301) = (   0.2272727   0.3636364   0.4545455), wk =   0.0090158
        k(  302) = (   0.2272727   0.3636364  -0.5000000), wk =   0.0045079
        k(  303) = (   0.2272727   0.4090909   0.4090909), wk =   0.0045079
        k(  304) = (   0.2272727   0.4090909   0.4545455), wk =   0.0090158
        k(  305) = (   0.2272727   0.4090909  -0.5000000), wk =   0.0045079
        k(  306) = (   0.2272727   0.4545455   0.4545455), wk =   0.0045079
        k(  307) = (   0.2272727   0.4545455  -0.5000000), wk =   0.0045079
        k(  308) = (   0.2272727  -0.5000000  -0.5000000), wk =   0.0011270
        k(  309) = (   0.2727273   0.2727273   0.2727273), wk =   0.0015026
        k(  310) = (   0.2727273   0.2727273   0.3181818), wk =   0.0045079
        k(  311) = (   0.2727273   0.2727273   0.3636364), wk =   0.0045079
        k(  312) = (   0.2727273   0.2727273   0.4090909), wk =   0.0045079
        k(  313) = (   0.2727273   0.2727273   0.4545455), wk =   0.0045079
        k(  314) = (   0.2727273   0.2727273  -0.5000000), wk =   0.0022539
        k(  315) = (   0.2727273   0.3181818   0.3181818), wk =   0.0045079
        k(  316) = (   0.2727273   0.3181818   0.3636364), wk =   0.0090158
        k(  317) = (   0.2727273   0.3181818   0.4090909), wk =   0.0090158
        k(  318) = (   0.2727273   0.3181818   0.4545455), wk =   0.0090158
        k(  319) = (   0.2727273   0.3181818  -0.5000000), wk =   0.0045079
        k(  320) = (   0.2727273   0.3636364   0.3636364), wk =   0.0045079
        k(  321) = (   0.2727273   0.3636364   0.4090909), wk =   0.0090158
        k(  322) = (   0.2727273   0.3636364   0.4545455), wk =   0.0090158
        k(  323) = (   0.2727273   0.3636364  -0.5000000), wk =   0.0045079
        k(  324) = (   0.2727273   0.4090909   0.4090909), wk =   0.0045079
        k(  325) = (   0.2727273   0.4090909   0.4545455), wk =   0.0090158
        k(  326) = (   0.2727273   0.4090909  -0.5000000), wk =   0.0045079
        k(  327) = (   0.2727273   0.4545455   0.4545455), wk =   0.0045079
        k(  328) = (   0.2727273   0.4545455  -0.5000000), wk =   0.0045079
        k(  329) = (   0.2727273  -0.5000000  -0.5000000), wk =   0.0011270
        k(  330) = (   0.3181818   0.3181818   0.3181818), wk =   0.0015026
        k(  331) = (   0.3181818   0.3181818   0.3636364), wk =   0.0045079
        k(  332) = (   0.3181818   0.3181818   0.4090909), wk =   0.0045079
        k(  333) = (   0.3181818   0.3181818   0.4545455), wk =   0.0045079
        k(  334) = (   0.3181818   0.3181818  -0.5000000), wk =   0.0022539
        k(  335) = (   0.3181818   0.3636364   0.3636364), wk =   0.0045079
        k(  336) = (   0.3181818   0.3636364   0.4090909), wk =   0.0090158
        k(  337) = (   0.3181818   0.3636364   0.4545455), wk =   0.0090158
        k(  338) = (   0.3181818   0.3636364  -0.5000000), wk =   0.0045079
        k(  339) = (   0.3181818   0.4090909   0.4090909), wk =   0.0045079
        k(  340) = (   0.3181818   0.4090909   0.4545455), wk =   0.0090158
        k(  341) = (   0.3181818   0.4090909  -0.5000000), wk =   0.0045079
        k(  342) = (   0.3181818   0.4545455   0.4545455), wk =   0.0045079
        k(  343) = (   0.3181818   0.4545455  -0.5000000), wk =   0.0045079
        k(  344) = (   0.3181818  -0.5000000  -0.5000000), wk =   0.0011270
        k(  345) = (   0.3636364   0.3636364   0.3636364), wk =   0.0015026
        k(  346) = (   0.3636364   0.3636364   0.4090909), wk =   0.0045079
        k(  347) = (   0.3636364   0.3636364   0.4545455), wk =   0.0045079
        k(  348) = (   0.3636364   0.3636364  -0.5000000), wk =   0.0022539
        k(  349) = (   0.3636364   0.4090909   0.4090909), wk =   0.0045079
[...]
     1.0000   1.0000   1.0000   1.0000   0.0000   0.0000   0.0000   0.0000

          k = 0.3182 0.3636 0.3636 (  1549 PWs)   bands (ev):

   -48.0454 -24.2931 -24.2803 -24.2759 -24.2360  -7.6924  -7.3416  -7.2815
    -6.2940  -6.2209  -6.0276   4.7390   5.1843   5.2841   5.3534   5.5945
     5.6089   8.2490   8.2854   8.5312  12.2437  12.2752  12.3394  15.1532

     occupation numbers 
     1.0000   1.0000   1.0000   1.0000   1.0000   1.0000   1.0000   1.0000
     1.0000   1.0000   1.0000   1.0000   1.0000   1.0000   1.0000   1.0000
     1.0000   1.0000   1.0000   1.0000   0.0000   0.0000   0.0000   0.0000

          k = 0.3182 0.3636 0.4091 (  1542 PWs)   bands (ev):

   -48.0454 -24.2924 -24.2812 -24.2755 -24.2386  -7.6357  -7.3492  -7.2513
    -6.3308  -6.2063  -6.0646   4.6724   5.1228   5.2311   5.3352   5.5289
     5.6199   8.2823   8.3382   8.5734  12.2729  12.3463  12.4160  15.1597

     occupation numbers 
     1.0000   1.0000   1.0000   1.0000   1.0000   1.0000   1.0000   1.0000
     1.0000   1.0000   1.0000   1.0000   1.0000   1.0000   1.0000   1.0000
     1.0000   1.0000   1.0000   1.0000   0.0000   0.0000   0.0000   0.0000

          k = 0.3182 0.3636 0.4545 (  1538 PWs)   bands (ev):

   -48.0453 -24.2932 -24.2804 -24.2750 -24.2406  -7.5952  -7.3616  -7.2274
    -6.3601  -6.1793  -6.1012   4.6127   5.1019   5.1851   5.3360   5.4826
     5.6366   8.2974   8.3718   8.6006  12.2839  12.4013  12.4683  15.1517

     occupation numbers 
     1.0000   1.0000   1.0000   1.0000   1.0000   1.0000   1.0000   1.0000
     1.0000   1.0000   1.0000   1.0000   1.0000   1.0000   1.0000   1.0000
     1.0000   1.0000   1.0000   1.0000   0.0000   0.0000   0.0000   0.0000

          k = 0.3182 0.3636-0.5000 (  1542 PWs)   bands (ev):

   -48.0453 -24.2937 -24.2800 -24.2747 -24.2414  -7.5799  -7.3674  -7.2185
    -6.3709  -6.1574  -6.1259   4.5894   5.1011   5.1646   5.3383   5.4658
     5.6429   8.3018   8.3831   8.6098  12.2874  12.4207  12.4868  15.1476

     occupation numbers 
     1.0000   1.0000   1.0000   1.0000   1.0000   1.0000   1.0000   1.0000
     1.0000   1.0000   1.0000   1.0000   1.0000   1.0000   1.0000   1.0000
     1.0000   1.0000   1.0000   1.0000   0.0000   0.0000   0.0000   0.0000

          k = 0.3182 0.4091 0.4091 (  1543 PWs)   bands (ev):

   -48.0453 -24.2900 -24.2841 -24.2751 -24.2410  -7.5664  -7.3407  -7.2445
    -6.3454  -6.2185  -6.1047   4.6136   5.0498   5.1803   5.3312   5.5420
     5.5441   8.3388   8.3742   8.6284  12.3514  12.3687  12.4856  15.1840

     occupation numbers 
     1.0000   1.0000   1.0000   1.0000   1.0000   1.0000   1.0000   1.0000
     1.0000   1.0000   1.0000   1.0000   1.0000   1.0000   1.0000   1.0000
     1.0000   1.0000   1.0000   1.0000   0.0000   0.0000   0.0000   0.0000

          k = 0.3182 0.4091 0.4545 (  1550 PWs)   bands (ev):

   -48.0453 -24.2900 -24.2843 -24.2747 -24.2428  -7.5127  -7.3463  -7.2380
    -6.3615  -6.2073  -6.1426   4.5596   5.0124   5.1480   5.3365   5.4931
     5.5586   8.3641   8.4005   8.6651  12.3689  12.4172  12.5336  15.1769

     occupation numbers 
     1.0000   1.0000   1.0000   1.0000   1.0000   1.0000   1.0000   1.0000
     1.0000   1.0000   1.0000   1.0000   1.0000   1.0000   1.0000   1.0000
     1.0000   1.0000   1.0000   1.0000   0.0000   0.0000   0.0000   0.0000

          k = 0.3182 0.4091-0.5000 (  1552 PWs)   bands (ev):

   -48.0453 -24.2904 -24.2840 -24.2745 -24.2435  -7.4905  -7.3525  -7.2352
    -6.3683  -6.1899  -6.1681   4.5382   5.0022   5.1363   5.3405   5.4748
     5.5647   8.3706   8.4109   8.6777  12.3725  12.4366  12.5506  15.1716

     occupation numbers 
     1.0000   1.0000   1.0000   1.0000   1.0000   1.0000   1.0000   1.0000
     1.0000   1.0000   1.0000   1.0000   1.0000   1.0000   1.0000   1.0000
     1.0000   1.0000   1.0000   1.0000   0.0000   0.0000   0.0000   0.0000

          k = 0.3182 0.4545 0.4545 (  1553 PWs)   bands (ev):

   -48.0453 -24.2880 -24.2865 -24.2745 -24.2444  -7.4420  -7.3402  -7.2598
    -6.3600  -6.2166  -6.1790   4.5110   4.9641   5.1221   5.3458   5.5063
     5.5085   8.4033   8.4155   8.7083  12.4236  12.4287  12.5788  15.1648

     occupation numbers 
     1.0000   1.0000   1.0000   1.0000   1.0000   1.0000   1.0000   1.0000
     1.0000   1.0000   1.0000   1.0000   1.0000   1.0000   1.0000   1.0000
     1.0000   1.0000   1.0000   1.0000   0.0000   0.0000   0.0000   0.0000

          k = 0.3182 0.4545-0.5000 (  1556 PWs)   bands (ev):

   -48.0453 -24.2881 -24.2865 -24.2744 -24.2449  -7.4066  -7.3432  -7.2735
    -6.3592  -6.2095  -6.2020   4.4914   4.9500   5.1126   5.3513   5.4884
     5.5132   8.4128   8.4234   8.7232  12.4293  12.4461  12.5950  15.1566

     occupation numbers 
     1.0000   1.0000   1.0000   1.0000   1.0000   1.0000   1.0000   1.0000
     1.0000   1.0000   1.0000   1.0000   1.0000   1.0000   1.0000   1.0000
     1.0000   1.0000   1.0000   1.0000   0.0000   0.0000   0.0000   0.0000

          k = 0.3182-0.5000-0.5000 (  1560 PWs)   bands (ev):

   -48.0452 -24.2873 -24.2873 -24.2744 -24.2455  -7.3401  -7.3401  -7.3245
    -6.3537  -6.2160  -6.2160   4.4725   4.9346   5.1038   5.3575   5.4940
     5.4940   8.4270   8.4270   8.7388  12.4493  12.4493  12.6108  15.1472

     occupation numbers 
     1.0000   1.0000   1.0000   1.0000   1.0000   1.0000   1.0000   1.0000
     1.0000   1.0000   1.0000   1.0000   1.0000   1.0000   1.0000   1.0000
     1.0000   1.0000   1.0000   1.0000   0.0000   0.0000   0.0000   0.0000

          k = 0.3636 0.3636 0.3636 (  1553 PWs)   bands (ev):

   -48.0454 -24.2901 -24.2801 -24.2801 -24.2383  -7.6229  -7.2889  -7.2889
    -6.2837  -6.2837  -6.0694   4.6963   5.1894   5.1894   5.3058   5.5240
     5.5240   8.3530   8.3530   8.5681  12.3285  12.3660  12.3660  15.4145

     occupation numbers 
     1.0000   1.0000   1.0000   1.0000   1.0000   1.0000   1.0000   1.0000
     1.0000   1.0000   1.0000   1.0000   1.0000   1.0000   1.0000   1.0000
     1.0000   1.0000   1.0000   1.0000   0.0000   0.0000   0.0000   0.0000

          k = 0.3636 0.3636 0.4091 (  1546 PWs)   bands (ev):

   -48.0453 -24.2894 -24.2813 -24.2799 -24.2403  -7.5606  -7.3041  -7.2429
    -6.3376  -6.2631  -6.1122   4.6327   5.1103   5.1944   5.2620   5.4615
     5.5224   8.3907   8.4286   8.6058  12.3646  12.4222  12.4435  15.3830

     occupation numbers 
     1.0000   1.0000   1.0000   1.0000   1.0000   1.0000   1.0000   1.0000
     1.0000   1.0000   1.0000   1.0000   1.0000   1.0000   1.0000   1.0000
     1.0000   1.0000   1.0000   1.0000   0.0000   0.0000   0.0000   0.0000

          k = 0.3636 0.3636 0.4545 (  1550 PWs)   bands (ev):

   -48.0453 -24.2905 -24.2804 -24.2797 -24.2418  -7.5131  -7.3224  -7.2106
    -6.3748  -6.2352  -6.1533   4.5750   5.0791   5.1982   5.2219   5.4229
     5.5355   8.4090   8.4741   8.6324  12.3764  12.4712  12.4962  15.3585

     occupation numbers 
     1.0000   1.0000   1.0000   1.0000   1.0000   1.0000   1.0000   1.0000
     1.0000   1.0000   1.0000   1.0000   1.0000   1.0000   1.0000   1.0000
     1.0000   1.0000   1.0000   1.0000   0.0000   0.0000   0.0000   0.0000

          k = 0.3636 0.3636-0.5000 (  1546 PWs)   bands (ev):

   -48.0453 -24.2911 -24.2799 -24.2797 -24.2424  -7.4938  -7.3318  -7.1989
    -6.3882  -6.2123  -6.1805   4.5524   5.0728   5.1998   5.2061   5.4098
     5.5415   8.4145   8.4893   8.6421  12.3801  12.4889  12.5149  15.3492

     occupation numbers 
     1.0000   1.0000   1.0000   1.0000   1.0000   1.0000   1.0000   1.0000
     1.0000   1.0000   1.0000   1.0000   1.0000   1.0000   1.0000   1.0000
     1.0000   1.0000   1.0000   1.0000   0.0000   0.0000   0.0000   0.0000

          k = 0.3636 0.4091 0.4091 (  1551 PWs)   bands (ev):

   -48.0453 -24.2876 -24.2838 -24.2801 -24.2418  -7.4914  -7.2824  -7.2301
    -6.3542  -6.2887  -6.1595   4.5752   5.0529   5.1614   5.2460   5.4448
     5.4632   8.4629   8.4851   8.6460  12.4356  12.4529  12.5054  15.4258

     occupation numbers 
     1.0000   1.0000   1.0000   1.0000   1.0000   1.0000   1.0000   1.0000
     1.0000   1.0000   1.0000   1.0000   1.0000   1.0000   1.0000   1.0000
     1.0000   1.0000   1.0000   1.0000   0.0000   0.0000   0.0000   0.0000

          k = 0.3636 0.4091 0.4545 (  1552 PWs)   bands (ev):

   -48.0452 -24.2883 -24.2840 -24.2798 -24.2429  -7.4353  -7.2920  -7.2085
    -6.3817  -6.2760  -6.2031   4.5226   5.0130   5.1611   5.2210   5.4126
     5.4669   8.4915   8.5269   8.6785  12.4540  12.4966  12.5532  15.3960

     occupation numbers 
     1.0000   1.0000   1.0000   1.0000   1.0000   1.0000   1.0000   1.0000
     1.0000   1.0000   1.0000   1.0000   1.0000   1.0000   1.0000   1.0000
     1.0000   1.0000   1.0000   1.0000   0.0000   0.0000   0.0000   0.0000

          k = 0.3636 0.4091-0.5000 (  1548 PWs)   bands (ev):

   -48.0452 -24.2889 -24.2837 -24.2796 -24.2433  -7.4100  -7.3028  -7.1991
    -6.3934  -6.2556  -6.2324   4.5018   5.0017   5.1627   5.2102   5.3995
     5.4726   8.4985   8.5425   8.6907  12.4579  12.5145  12.5703  15.3815

     occupation numbers 
     1.0000   1.0000   1.0000   1.0000   1.0000   1.0000   1.0000   1.0000
     1.0000   1.0000   1.0000   1.0000   1.0000   1.0000   1.0000   1.0000
     1.0000   1.0000   1.0000   1.0000   0.0000   0.0000   0.0000   0.0000

          k = 0.3636 0.4545 0.4545 (  1549 PWs)   bands (ev):

   -48.0452 -24.2872 -24.2862 -24.2795 -24.2436  -7.3686  -7.2785  -7.2171
    -6.3859  -6.2915  -6.2464   4.4750   4.9663   5.1585   5.2048   5.4212
     5.4283   8.5400   8.5504   8.7177  12.5042  12.5092  12.5981  15.3548

     occupation numbers 
     1.0000   1.0000   1.0000   1.0000   1.0000   1.0000   1.0000   1.0000
     1.0000   1.0000   1.0000   1.0000   1.0000   1.0000   1.0000   1.0000
     1.0000   1.0000   1.0000   1.0000   0.0000   0.0000   0.0000   0.0000

          k = 0.3636 0.4545-0.5000 (  1554 PWs)   bands (ev):

   -48.0452 -24.2876 -24.2862 -24.2795 -24.2439  -7.3334  -7.2838  -7.2221
    -6.3883  -6.2831  -6.2743   4.4558   4.9519   5.1592   5.1969   5.4106
     5.4309   8.5503   8.5624   8.7323  12.5101  12.5252  12.6143  15.3344

     occupation numbers 
     1.0000   1.0000   1.0000   1.0000   1.0000   1.0000   1.0000   1.0000
     1.0000   1.0000   1.0000   1.0000   1.0000   1.0000   1.0000   1.0000
     1.0000   1.0000   1.0000   1.0000   0.0000   0.0000   0.0000   0.0000

          k = 0.3636-0.5000-0.5000 (  1552 PWs)   bands (ev):

   -48.0452 -24.2871 -24.2871 -24.2794 -24.2441  -7.2772  -7.2772  -7.2599
    -6.3828  -6.2924  -6.2924   4.4374   4.9366   5.1596   5.1903   5.4168
     5.4168   8.5679   8.5679   8.7478  12.5287  12.5287  12.6302  15.3119

     occupation numbers 
     1.0000   1.0000   1.0000   1.0000   1.0000   1.0000   1.0000   1.0000
     1.0000   1.0000   1.0000   1.0000   1.0000   1.0000   1.0000   1.0000
     1.0000   1.0000   1.0000   1.0000   0.0000   0.0000   0.0000   0.0000

          k = 0.4091 0.4091 0.4091 (  1553 PWs)   bands (ev):

   -48.0452 -24.2861 -24.2836 -24.2836 -24.2425  -7.4213  -7.2308  -7.2308
    -6.3496  -6.3496  -6.2122   4.5213   5.0556   5.0556   5.2697   5.4045
     5.4045   8.5549   8.5549   8.6710  12.5029  12.5246  12.5246  15.5590

     occupation numbers 
     1.0000   1.0000   1.0000   1.0000   1.0000   1.0000   1.0000   1.0000
     1.0000   1.0000   1.0000   1.0000   1.0000   1.0000   1.0000   1.0000
     1.0000   1.0000   1.0000   1.0000   0.0000   0.0000   0.0000   0.0000

          k = 0.4091 0.4091 0.4545 (  1552 PWs)   bands (ev):

   -48.0452 -24.2871 -24.2839 -24.2835 -24.2430  -7.3626  -7.2460  -7.1941
    -6.3923  -6.3321  -6.2594   4.4725   5.0028   5.0576   5.2629   5.3688
     5.4054   8.5860   8.6112   8.6982  12.5258  12.5596  12.5735  15.4884

     occupation numbers 
     1.0000   1.0000   1.0000   1.0000   1.0000   1.0000   1.0000   1.0000
     1.0000   1.0000   1.0000   1.0000   1.0000   1.0000   1.0000   1.0000
     1.0000   1.0000   1.0000   1.0000   0.0000   0.0000   0.0000   0.0000

          k = 0.4091 0.4091-0.5000 (  1538 PWs)   bands (ev):

   -48.0452 -24.2878 -24.2835 -24.2834 -24.2431  -7.3334  -7.2603  -7.1805
    -6.4078  -6.3102  -6.2913   4.4532   4.9880   5.0585   5.2563   5.3570
     5.4105   8.5943   8.6306   8.7105  12.5300  12.5758  12.5910  15.4627

     occupation numbers 
     1.0000   1.0000   1.0000   1.0000   1.0000   1.0000   1.0000   1.0000
     1.0000   1.0000   1.0000   1.0000   1.0000   1.0000   1.0000   1.0000
     1.0000   1.0000   1.0000   1.0000   0.0000   0.0000   0.0000   0.0000

          k = 0.4091 0.4545 0.4545 (  1549 PWs)   bands (ev):

   -48.0451 -24.2865 -24.2860 -24.2835 -24.2430  -7.3007  -7.2233  -7.1899
    -6.4014  -6.3570  -6.3071   4.4275   4.9681   5.0343   5.2668   5.3635
     5.3717   8.6420   8.6497   8.7264  12.5725  12.5777  12.6133  15.4299

     occupation numbers 
     1.0000   1.0000   1.0000   1.0000   1.0000   1.0000   1.0000   1.0000
     1.0000   1.0000   1.0000   1.0000   1.0000   1.0000   1.0000   1.0000
     1.0000   1.0000   1.0000   1.0000   0.0000   0.0000   0.0000   0.0000

          k = 0.4091 0.4545-0.5000 (  1548 PWs)   bands (ev):

   -48.0451 -24.2871 -24.2860 -24.2834 -24.2430  -7.2664  -7.2312  -7.1850
    -6.4096  -6.3466  -6.3381   4.4095   4.9530   5.0324   5.2623   5.3550
     5.3734   8.6533   8.6664   8.7399  12.5788  12.5924  12.6295  15.3991

     occupation numbers 
     1.0000   1.0000   1.0000   1.0000   1.0000   1.0000   1.0000   1.0000
     1.0000   1.0000   1.0000   1.0000   1.0000   1.0000   1.0000   1.0000
     1.0000   1.0000   1.0000   1.0000   0.0000   0.0000   0.0000   0.0000

          k = 0.4091-0.5000-0.5000 (  1544 PWs)   bands (ev):

   -48.0451 -24.2869 -24.2869 -24.2833 -24.2430  -7.2207  -7.2207  -7.2088
    -6.4053  -6.3595  -6.3595   4.3920   4.9381   5.0296   5.2580   5.3610
     5.3610   8.6737   8.6737   8.7549  12.5961  12.5961  12.6454  15.3664

     occupation numbers 
     1.0000   1.0000   1.0000   1.0000   1.0000   1.0000   1.0000   1.0000
     1.0000   1.0000   1.0000   1.0000   1.0000   1.0000   1.0000   1.0000
     1.0000   1.0000   1.0000   1.0000   0.0000   0.0000   0.0000   0.0000

          k = 0.4545 0.4545 0.4545 (  1550 PWs)   bands (ev):

   -48.0451 -24.2861 -24.2859 -24.2859 -24.2427  -7.2444  -7.1835  -7.1835
    -6.4032  -6.4032  -6.3556   4.3851   4.9692   4.9692   5.2982   5.3374
     5.3374   8.7052   8.7052   8.7378  12.6176  12.6243  12.6243  15.4423

     occupation numbers 
     1.0000   1.0000   1.0000   1.0000   1.0000   1.0000   1.0000   1.0000
     1.0000   1.0000   1.0000   1.0000   1.0000   1.0000   1.0000   1.0000
     1.0000   1.0000   1.0000   1.0000   0.0000   0.0000   0.0000   0.0000

          k = 0.4545 0.4545-0.5000 (  1560 PWs)   bands (ev):

   -48.0451 -24.2868 -24.2859 -24.2859 -24.2425  -7.2122  -7.1937  -7.1688
    -6.4202  -6.3909  -6.3856   4.3682   4.9494   4.9695   5.2991   5.3258
     5.3387   8.7170   8.7263   8.7480  12.6254  12.6364  12.6409  15.4064

     occupation numbers 
     1.0000   1.0000   1.0000   1.0000   1.0000   1.0000   1.0000   1.0000
     1.0000   1.0000   1.0000   1.0000   1.0000   1.0000   1.0000   1.0000
     1.0000   1.0000   1.0000   1.0000   0.0000   0.0000   0.0000   0.0000

          k = 0.4545-0.5000-0.5000 (  1568 PWs)   bands (ev):

   -48.0451 -24.2868 -24.2868 -24.2859 -24.2424  -7.1799  -7.1799  -7.1760
    -6.4196  -6.4070  -6.4070   4.3517   4.9387   4.9600   5.3009   5.3270
     5.3270   8.7383   8.7383   8.7589  12.6420  12.6420  12.6550  15.3734

     occupation numbers 
     1.0000   1.0000   1.0000   1.0000   1.0000   1.0000   1.0000   1.0000
     1.0000   1.0000   1.0000   1.0000   1.0000   1.0000   1.0000   1.0000
     1.0000   1.0000   1.0000   1.0000   0.0000   0.0000   0.0000   0.0000

          k =-0.5000-0.5000-0.5000 (  1568 PWs)   bands (ev):

   -48.0451 -24.2867 -24.2867 -24.2867 -24.2421  -7.1647  -7.1647  -7.1647
    -6.4245  -6.4245  -6.4245   4.3357   4.9390   4.9390   5.3157   5.3157
     5.3157   8.7604   8.7604   8.7604  12.6583  12.6583  12.6583  15.3721

     occupation numbers 
     1.0000   1.0000   1.0000   1.0000   1.0000   1.0000   1.0000   1.0000
     1.0000   1.0000   1.0000   1.0000   1.0000   1.0000   1.0000   1.0000
     1.0000   1.0000   1.0000   1.0000   0.0000   0.0000   0.0000   0.0000

     the Fermi energy is     9.6181 ev

!    total energy              =    -287.00123214 Ry
     Harris-Foulkes estimate   =    -287.00123214 Ry
     estimated scf accuracy    <          1.4E-09 Ry

     The total energy is the sum of the following terms:

     one-electron contribution =     -86.66528551 Ry
     hartree contribution      =      63.63753141 Ry
     xc contribution           =     -58.20105408 Ry
     ewald contribution        =    -205.77242396 Ry
     smearing contrib. (-TS)   =       0.00000000 Ry

     convergence has been achieved in  12 iterations
 
     init_run     :      2.24s CPU      2.51s WALL (       1 calls)
     electrons    :     89.78s CPU     99.41s WALL (       1 calls)

     Called by init_run:
     wfcinit      :      2.16s CPU      2.38s WALL (       1 calls)
     wfcinit:atom :      0.01s CPU      0.01s WALL (     364 calls)
     wfcinit:wfcr :      2.09s CPU      2.30s WALL (     364 calls)
     potinit      :      0.01s CPU      0.01s WALL (       1 calls)
     hinit0       :      0.06s CPU      0.11s WALL (       1 calls)

     Called by electrons:
     c_bands      :     84.39s CPU     93.63s WALL (      12 calls)
     sum_band     :      5.31s CPU      5.68s WALL (      12 calls)
     v_of_rho     :      0.02s CPU      0.02s WALL (      13 calls)
     v_h          :      0.00s CPU      0.00s WALL (      13 calls)
     v_xc         :      0.01s CPU      0.02s WALL (      13 calls)
     newd         :      0.05s CPU      0.06s WALL (      13 calls)
     mix_rho      :      0.01s CPU      0.01s WALL (      12 calls)

     Called by c_bands:
     init_us_2    :      0.46s CPU      0.49s WALL (    9100 calls)
     cegterg      :     82.54s CPU     91.71s WALL (    4368 calls)

     Called by sum_band:
     sum_band:bec :      0.08s CPU      0.09s WALL (    4368 calls)
     addusdens    :      0.05s CPU      0.05s WALL (      12 calls)

     Called by *egterg:
     h_psi        :     24.56s CPU     26.30s WALL (   17411 calls)
     s_psi        :      0.62s CPU      0.67s WALL (   17411 calls)
     g_psi        :      0.13s CPU      0.14s WALL (   12679 calls)
     cdiaghg      :     49.32s CPU     54.84s WALL (   17047 calls)
     cegterg:over :      6.00s CPU      7.90s WALL (   12679 calls)
     cegterg:upda :      1.87s CPU      1.94s WALL (   12679 calls)
     cegterg:last :      0.76s CPU      0.81s WALL (    4368 calls)
     cdiaghg:chol :      1.40s CPU      1.67s WALL (   17047 calls)
     cdiaghg:inve :      0.84s CPU      1.01s WALL (   17047 calls)
     cdiaghg:para :      2.67s CPU      2.93s WALL (   34094 calls)

     Called by h_psi:
     h_psi:pot    :     24.49s CPU     26.23s WALL (   17411 calls)
     h_psi:calbec :      1.17s CPU      1.25s WALL (   17411 calls)
     vloc_psi     :     22.61s CPU     24.21s WALL (   17411 calls)
     add_vuspsi   :      0.65s CPU      0.70s WALL (   17411 calls)

     General routines
     calbec       :      1.50s CPU      1.61s WALL (   21779 calls)
     fft          :      0.01s CPU      0.04s WALL (     144 calls)
     ffts         :      0.00s CPU      0.00s WALL (      12 calls)
     fftw         :     25.41s CPU     27.20s WALL (  656890 calls)
 
     Parallel routines
     fft_scatt_xy :      2.30s CPU      2.48s WALL (  657046 calls)
     fft_scatt_yz :     17.19s CPU     18.49s WALL (  657046 calls)
 
     PWSCF        :  1m32.10s CPU     1m42.12s WALL

 
   This run was terminated on:  22:38:24   6Feb2019            

=------------------------------------------------------------------------------=
   JOB DONE.
=------------------------------------------------------------------------------=
