
     Program PWSCF v.6.3MaX starts on 26Mar2019 at  0: 4: 0 

     This program is part of the open-source Quantum ESPRESSO suite
     for quantum simulation of materials; please cite
         "P. Giannozzi et al., J. Phys.:Condens. Matter 21 395502 (2009);
         "P. Giannozzi et al., J. Phys.:Condens. Matter 29 465901 (2017);
          URL http://www.quantum-espresso.org", 
     in publications or presentations arising from this work. More details at
     http://www.quantum-espresso.org/quote

     Parallel version (MPI & OpenMP), running on      20 processor cores
     Number of MPI processes:                20
     Threads/MPI process:                     1

     MPI processes distributed on     1 nodes
     R & G space division:  proc/nbgrp/npool/nimage =      20
     Reading input from /home/azadoks/dftman/projects/ABO3 Cubic/PBSJobs/BaPdO3221_de64830c4f59/pwscf.in

     Current dimensions of program PWSCF are:
     Max number of different atomic species (ntypx) = 10
     Max number of k-points (npk) =  40000
     Max angular momentum in pseudopotentials (lmaxx) =  3
     Message from routine iosys:
     minimal I/O required, wf_collect reset to FALSE

     Subspace diagonalization in iterative solution of the eigenvalue problem:
     one sub-group per band group will be used
     scalapack distributed-memory algorithm (size of sub-group:  3*  3 procs)

 
     Parallelization info
     --------------------
     sticks:   dense  smooth     PW     G-vecs:    dense   smooth      PW
     Min          48      48     14                 1136     1136     188
     Max          49      49     15                 1139     1139     191
     Sum         973     973    293                22743    22743    3791
 


     bravais-lattice index     =            0
     lattice parameter (alat)  =       7.8013  a.u.
     unit-cell volume          =     474.7882 (a.u.)^3
     number of atoms/cell      =            5
     number of atomic types    =            3
     number of electrons       =        44.00
     number of Kohn-Sham states=           26
     kinetic-energy cutoff     =      50.0000  Ry
     charge density cutoff     =     200.0000  Ry
     convergence threshold     =      1.0E-08
     mixing beta               =       0.7000
     number of iterations used =            8  plain     mixing
     Exchange-correlation      =  SLA  PW   PBX  PBC ( 1  4  3  4 0 0)
     nstep                     =           50


     celldm(1)=   7.801294  celldm(2)=   0.000000  celldm(3)=   0.000000
     celldm(4)=   0.000000  celldm(5)=   0.000000  celldm(6)=   0.000000

     crystal axes: (cart. coord. in units of alat)
               a(1) = (   1.000000   0.000000   0.000000 )  
               a(2) = (   0.000000   1.000000   0.000000 )  
               a(3) = (   0.000000   0.000000   1.000000 )  

     reciprocal axes: (cart. coord. in units 2 pi/alat)
               b(1) = (  1.000000  0.000000  0.000000 )  
               b(2) = (  0.000000  1.000000  0.000000 )  
               b(3) = (  0.000000  0.000000  1.000000 )  


     PseudoPot. # 1 for Ba read from file:
     /home/azadoks/.local/share/pseudo/GBRV_PBE_US/ba_pbe_v1.uspp.F.UPF
     MD5 check sum: 3380f63c22b3abf76d74aa74136bb909
     Pseudo is Ultrasoft + core correction, Zval = 10.0
     Generated by new atomic code, or converted to UPF format
     Using radial grid of  907 points,  7 beta functions with: 
                l(1) =   0
                l(2) =   0
                l(3) =   1
                l(4) =   1
                l(5) =   2
                l(6) =   2
                l(7) =   3
     Q(r) pseudized with  6 coefficients,  rinner =    1.700   1.700   1.700
                                                       1.700   1.700   1.700
                                                       1.700

     PseudoPot. # 2 for O  read from file:
     /home/azadoks/.local/share/pseudo/GBRV_PBE_US/o_pbe_v1.2.uspp.F.UPF
     MD5 check sum: 734c27235a0248c51dbae37a1fbe46ec
     Pseudo is Ultrasoft + core correction, Zval =  6.0
     Generated by new atomic code, or converted to UPF format
     Using radial grid of  737 points,  5 beta functions with: 
                l(1) =   0
                l(2) =   0
                l(3) =   1
                l(4) =   1
                l(5) =   2
     Q(r) pseudized with  8 coefficients,  rinner =    0.900   0.900   0.900
                                                       0.900   0.900

     PseudoPot. # 3 for Pd read from file:
     /home/azadoks/.local/share/pseudo/GBRV_PBE_US/pd_pbe_v1.4.uspp.F.UPF
     MD5 check sum: 2d733d2bc2cbfd217af676df1668a4bc
     Pseudo is Ultrasoft + core correction, Zval = 16.0
     Generated by new atomic code, or converted to UPF format
     Using radial grid of  887 points,  6 beta functions with: 
                l(1) =   0
                l(2) =   0
                l(3) =   1
                l(4) =   1
                l(5) =   2
                l(6) =   2
     Q(r) pseudized with  8 coefficients,  rinner =    1.130   1.130   1.130
                                                       1.130   1.130

     atomic species   valence    mass     pseudopotential
        Ba            10.00   137.32700     Ba( 1.00)
        O              6.00    15.99940     O ( 1.00)
        Pd            16.00   106.42000     Pd( 1.00)

     48 Sym. Ops., with inversion, found


                                    s                        frac. trans.

      isym =  1     identity                                     

 cryst.   s( 1) = (     1          0          0      )
                  (     0          1          0      )
                  (     0          0          1      )

 cart.    s( 1) = (  1.0000000  0.0000000  0.0000000 )
                  (  0.0000000  1.0000000  0.0000000 )
                  (  0.0000000  0.0000000  1.0000000 )


      isym =  2     180 deg rotation - cart. axis [0,0,1]        

 cryst.   s( 2) = (    -1          0          0      )
                  (     0         -1          0      )
                  (     0          0          1      )

 cart.    s( 2) = ( -1.0000000  0.0000000  0.0000000 )
                  (  0.0000000 -1.0000000  0.0000000 )
                  (  0.0000000  0.0000000  1.0000000 )


      isym =  3     180 deg rotation - cart. axis [0,1,0]        

 cryst.   s( 3) = (    -1          0          0      )
                  (     0          1          0      )
                  (     0          0         -1      )

 cart.    s( 3) = ( -1.0000000  0.0000000  0.0000000 )
                  (  0.0000000  1.0000000  0.0000000 )
                  (  0.0000000  0.0000000 -1.0000000 )


      isym =  4     180 deg rotation - cart. axis [1,0,0]        

 cryst.   s( 4) = (     1          0          0      )
                  (     0         -1          0      )
                  (     0          0         -1      )

 cart.    s( 4) = (  1.0000000  0.0000000  0.0000000 )
                  (  0.0000000 -1.0000000  0.0000000 )
                  (  0.0000000  0.0000000 -1.0000000 )


      isym =  5     180 deg rotation - cart. axis [1,1,0]        

 cryst.   s( 5) = (     0          1          0      )
                  (     1          0          0      )
                  (     0          0         -1      )

 cart.    s( 5) = (  0.0000000  1.0000000  0.0000000 )
                  (  1.0000000  0.0000000  0.0000000 )
                  (  0.0000000  0.0000000 -1.0000000 )


      isym =  6     180 deg rotation - cart. axis [1,-1,0]       

 cryst.   s( 6) = (     0         -1          0      )
                  (    -1          0          0      )
                  (     0          0         -1      )

 cart.    s( 6) = (  0.0000000 -1.0000000  0.0000000 )
                  ( -1.0000000  0.0000000  0.0000000 )
                  (  0.0000000  0.0000000 -1.0000000 )


      isym =  7      90 deg rotation - cart. axis [0,0,-1]       

 cryst.   s( 7) = (     0         -1          0      )
                  (     1          0          0      )
                  (     0          0          1      )

 cart.    s( 7) = (  0.0000000  1.0000000  0.0000000 )
                  ( -1.0000000  0.0000000  0.0000000 )
                  (  0.0000000  0.0000000  1.0000000 )


      isym =  8      90 deg rotation - cart. axis [0,0,1]        

 cryst.   s( 8) = (     0          1          0      )
                  (    -1          0          0      )
                  (     0          0          1      )

 cart.    s( 8) = (  0.0000000 -1.0000000  0.0000000 )
                  (  1.0000000  0.0000000  0.0000000 )
                  (  0.0000000  0.0000000  1.0000000 )


      isym =  9     180 deg rotation - cart. axis [1,0,1]        

 cryst.   s( 9) = (     0          0          1      )
                  (     0         -1          0      )
                  (     1          0          0      )

 cart.    s( 9) = (  0.0000000  0.0000000  1.0000000 )
                  (  0.0000000 -1.0000000  0.0000000 )
                  (  1.0000000  0.0000000  0.0000000 )


      isym = 10     180 deg rotation - cart. axis [-1,0,1]       

 cryst.   s(10) = (     0          0         -1      )
                  (     0         -1          0      )
                  (    -1          0          0      )

 cart.    s(10) = (  0.0000000  0.0000000 -1.0000000 )
                  (  0.0000000 -1.0000000  0.0000000 )
                  ( -1.0000000  0.0000000  0.0000000 )


      isym = 11      90 deg rotation - cart. axis [0,1,0]        

 cryst.   s(11) = (     0          0         -1      )
                  (     0          1          0      )
                  (     1          0          0      )

 cart.    s(11) = (  0.0000000  0.0000000  1.0000000 )
                  (  0.0000000  1.0000000  0.0000000 )
                  ( -1.0000000  0.0000000  0.0000000 )


      isym = 12      90 deg rotation - cart. axis [0,-1,0]       

 cryst.   s(12) = (     0          0          1      )
                  (     0          1          0      )
                  (    -1          0          0      )

 cart.    s(12) = (  0.0000000  0.0000000 -1.0000000 )
                  (  0.0000000  1.0000000  0.0000000 )
                  (  1.0000000  0.0000000  0.0000000 )


      isym = 13     180 deg rotation - cart. axis [0,1,1]        

 cryst.   s(13) = (    -1          0          0      )
                  (     0          0          1      )
                  (     0          1          0      )

 cart.    s(13) = ( -1.0000000  0.0000000  0.0000000 )
                  (  0.0000000  0.0000000  1.0000000 )
                  (  0.0000000  1.0000000  0.0000000 )


      isym = 14     180 deg rotation - cart. axis [0,1,-1]       

 cryst.   s(14) = (    -1          0          0      )
                  (     0          0         -1      )
                  (     0         -1          0      )

 cart.    s(14) = ( -1.0000000  0.0000000  0.0000000 )
                  (  0.0000000  0.0000000 -1.0000000 )
                  (  0.0000000 -1.0000000  0.0000000 )


      isym = 15      90 deg rotation - cart. axis [-1,0,0]       

 cryst.   s(15) = (     1          0          0      )
                  (     0          0         -1      )
                  (     0          1          0      )

 cart.    s(15) = (  1.0000000  0.0000000  0.0000000 )
                  (  0.0000000  0.0000000  1.0000000 )
                  (  0.0000000 -1.0000000  0.0000000 )


      isym = 16      90 deg rotation - cart. axis [1,0,0]        

 cryst.   s(16) = (     1          0          0      )
                  (     0          0          1      )
                  (     0         -1          0      )

 cart.    s(16) = (  1.0000000  0.0000000  0.0000000 )
                  (  0.0000000  0.0000000 -1.0000000 )
                  (  0.0000000  1.0000000  0.0000000 )


      isym = 17     120 deg rotation - cart. axis [-1,-1,-1]     

 cryst.   s(17) = (     0          0          1      )
                  (     1          0          0      )
                  (     0          1          0      )

 cart.    s(17) = (  0.0000000  1.0000000  0.0000000 )
                  (  0.0000000  0.0000000  1.0000000 )
                  (  1.0000000  0.0000000  0.0000000 )


      isym = 18     120 deg rotation - cart. axis [-1,1,1]       

 cryst.   s(18) = (     0          0         -1      )
                  (    -1          0          0      )
                  (     0          1          0      )

 cart.    s(18) = (  0.0000000 -1.0000000  0.0000000 )
                  (  0.0000000  0.0000000  1.0000000 )
                  ( -1.0000000  0.0000000  0.0000000 )


      isym = 19     120 deg rotation - cart. axis [1,1,-1]       

 cryst.   s(19) = (     0          0         -1      )
                  (     1          0          0      )
                  (     0         -1          0      )

 cart.    s(19) = (  0.0000000  1.0000000  0.0000000 )
                  (  0.0000000  0.0000000 -1.0000000 )
                  ( -1.0000000  0.0000000  0.0000000 )


      isym = 20     120 deg rotation - cart. axis [1,-1,1]       

 cryst.   s(20) = (     0          0          1      )
                  (    -1          0          0      )
                  (     0         -1          0      )

 cart.    s(20) = (  0.0000000 -1.0000000  0.0000000 )
                  (  0.0000000  0.0000000 -1.0000000 )
                  (  1.0000000  0.0000000  0.0000000 )


      isym = 21     120 deg rotation - cart. axis [1,1,1]        

 cryst.   s(21) = (     0          1          0      )
                  (     0          0          1      )
                  (     1          0          0      )

 cart.    s(21) = (  0.0000000  0.0000000  1.0000000 )
                  (  1.0000000  0.0000000  0.0000000 )
                  (  0.0000000  1.0000000  0.0000000 )


      isym = 22     120 deg rotation - cart. axis [-1,1,-1]      

 cryst.   s(22) = (     0         -1          0      )
                  (     0          0         -1      )
                  (     1          0          0      )

 cart.    s(22) = (  0.0000000  0.0000000  1.0000000 )
                  ( -1.0000000  0.0000000  0.0000000 )
                  (  0.0000000 -1.0000000  0.0000000 )


      isym = 23     120 deg rotation - cart. axis [1,-1,-1]      

 cryst.   s(23) = (     0         -1          0      )
                  (     0          0          1      )
                  (    -1          0          0      )

 cart.    s(23) = (  0.0000000  0.0000000 -1.0000000 )
                  ( -1.0000000  0.0000000  0.0000000 )
                  (  0.0000000  1.0000000  0.0000000 )


      isym = 24     120 deg rotation - cart. axis [-1,-1,1]      

 cryst.   s(24) = (     0          1          0      )
                  (     0          0         -1      )
                  (    -1          0          0      )

 cart.    s(24) = (  0.0000000  0.0000000 -1.0000000 )
                  (  1.0000000  0.0000000  0.0000000 )
                  (  0.0000000 -1.0000000  0.0000000 )


      isym = 25     inversion                                    

 cryst.   s(25) = (    -1          0          0      )
                  (     0         -1          0      )
                  (     0          0         -1      )

 cart.    s(25) = ( -1.0000000  0.0000000  0.0000000 )
                  (  0.0000000 -1.0000000  0.0000000 )
                  (  0.0000000  0.0000000 -1.0000000 )


      isym = 26     inv. 180 deg rotation - cart. axis [0,0,1]   

 cryst.   s(26) = (     1          0          0      )
                  (     0          1          0      )
                  (     0          0         -1      )

 cart.    s(26) = (  1.0000000  0.0000000  0.0000000 )
                  (  0.0000000  1.0000000  0.0000000 )
                  (  0.0000000  0.0000000 -1.0000000 )


      isym = 27     inv. 180 deg rotation - cart. axis [0,1,0]   

 cryst.   s(27) = (     1          0          0      )
                  (     0         -1          0      )
                  (     0          0          1      )

 cart.    s(27) = (  1.0000000  0.0000000  0.0000000 )
                  (  0.0000000 -1.0000000  0.0000000 )
                  (  0.0000000  0.0000000  1.0000000 )


      isym = 28     inv. 180 deg rotation - cart. axis [1,0,0]   

 cryst.   s(28) = (    -1          0          0      )
                  (     0          1          0      )
                  (     0          0          1      )

 cart.    s(28) = ( -1.0000000  0.0000000  0.0000000 )
                  (  0.0000000  1.0000000  0.0000000 )
                  (  0.0000000  0.0000000  1.0000000 )


      isym = 29     inv. 180 deg rotation - cart. axis [1,1,0]   

 cryst.   s(29) = (     0         -1          0      )
                  (    -1          0          0      )
                  (     0          0          1      )

 cart.    s(29) = (  0.0000000 -1.0000000  0.0000000 )
                  ( -1.0000000  0.0000000  0.0000000 )
                  (  0.0000000  0.0000000  1.0000000 )


      isym = 30     inv. 180 deg rotation - cart. axis [1,-1,0]  

 cryst.   s(30) = (     0          1          0      )
                  (     1          0          0      )
                  (     0          0          1      )

 cart.    s(30) = (  0.0000000  1.0000000  0.0000000 )
                  (  1.0000000  0.0000000  0.0000000 )
                  (  0.0000000  0.0000000  1.0000000 )


      isym = 31     inv.  90 deg rotation - cart. axis [0,0,-1]  

 cryst.   s(31) = (     0          1          0      )
                  (    -1          0          0      )
                  (     0          0         -1      )

 cart.    s(31) = (  0.0000000 -1.0000000  0.0000000 )
                  (  1.0000000  0.0000000  0.0000000 )
                  (  0.0000000  0.0000000 -1.0000000 )


      isym = 32     inv.  90 deg rotation - cart. axis [0,0,1]   

 cryst.   s(32) = (     0         -1          0      )
                  (     1          0          0      )
                  (     0          0         -1      )

 cart.    s(32) = (  0.0000000  1.0000000  0.0000000 )
                  ( -1.0000000  0.0000000  0.0000000 )
                  (  0.0000000  0.0000000 -1.0000000 )


      isym = 33     inv. 180 deg rotation - cart. axis [1,0,1]   

 cryst.   s(33) = (     0          0         -1      )
                  (     0          1          0      )
                  (    -1          0          0      )

 cart.    s(33) = (  0.0000000  0.0000000 -1.0000000 )
                  (  0.0000000  1.0000000  0.0000000 )
                  ( -1.0000000  0.0000000  0.0000000 )


      isym = 34     inv. 180 deg rotation - cart. axis [-1,0,1]  

 cryst.   s(34) = (     0          0          1      )
                  (     0          1          0      )
                  (     1          0          0      )

 cart.    s(34) = (  0.0000000  0.0000000  1.0000000 )
                  (  0.0000000  1.0000000  0.0000000 )
                  (  1.0000000  0.0000000  0.0000000 )


      isym = 35     inv.  90 deg rotation - cart. axis [0,1,0]   

 cryst.   s(35) = (     0          0          1      )
                  (     0         -1          0      )
                  (    -1          0          0      )

 cart.    s(35) = (  0.0000000  0.0000000 -1.0000000 )
                  (  0.0000000 -1.0000000  0.0000000 )
                  (  1.0000000  0.0000000  0.0000000 )


      isym = 36     inv.  90 deg rotation - cart. axis [0,-1,0]  

 cryst.   s(36) = (     0          0         -1      )
                  (     0         -1          0      )
                  (     1          0          0      )

 cart.    s(36) = (  0.0000000  0.0000000  1.0000000 )
                  (  0.0000000 -1.0000000  0.0000000 )
                  ( -1.0000000  0.0000000  0.0000000 )


      isym = 37     inv. 180 deg rotation - cart. axis [0,1,1]   

 cryst.   s(37) = (     1          0          0      )
                  (     0          0         -1      )
                  (     0         -1          0      )

 cart.    s(37) = (  1.0000000  0.0000000  0.0000000 )
                  (  0.0000000  0.0000000 -1.0000000 )
                  (  0.0000000 -1.0000000  0.0000000 )


      isym = 38     inv. 180 deg rotation - cart. axis [0,1,-1]  

 cryst.   s(38) = (     1          0          0      )
                  (     0          0          1      )
                  (     0          1          0      )

 cart.    s(38) = (  1.0000000  0.0000000  0.0000000 )
                  (  0.0000000  0.0000000  1.0000000 )
                  (  0.0000000  1.0000000  0.0000000 )


      isym = 39     inv.  90 deg rotation - cart. axis [-1,0,0]  

 cryst.   s(39) = (    -1          0          0      )
                  (     0          0          1      )
                  (     0         -1          0      )

 cart.    s(39) = ( -1.0000000  0.0000000  0.0000000 )
                  (  0.0000000  0.0000000 -1.0000000 )
                  (  0.0000000  1.0000000  0.0000000 )


      isym = 40     inv.  90 deg rotation - cart. axis [1,0,0]   

 cryst.   s(40) = (    -1          0          0      )
                  (     0          0         -1      )
                  (     0          1          0      )

 cart.    s(40) = ( -1.0000000  0.0000000  0.0000000 )
                  (  0.0000000  0.0000000  1.0000000 )
                  (  0.0000000 -1.0000000  0.0000000 )


      isym = 41     inv. 120 deg rotation - cart. axis [-1,-1,-1]

 cryst.   s(41) = (     0          0         -1      )
                  (    -1          0          0      )
                  (     0         -1          0      )

 cart.    s(41) = (  0.0000000 -1.0000000  0.0000000 )
                  (  0.0000000  0.0000000 -1.0000000 )
                  ( -1.0000000  0.0000000  0.0000000 )


      isym = 42     inv. 120 deg rotation - cart. axis [-1,1,1]  

 cryst.   s(42) = (     0          0          1      )
                  (     1          0          0      )
                  (     0         -1          0      )

 cart.    s(42) = (  0.0000000  1.0000000  0.0000000 )
                  (  0.0000000  0.0000000 -1.0000000 )
                  (  1.0000000  0.0000000  0.0000000 )


      isym = 43     inv. 120 deg rotation - cart. axis [1,1,-1]  

 cryst.   s(43) = (     0          0          1      )
                  (    -1          0          0      )
                  (     0          1          0      )

 cart.    s(43) = (  0.0000000 -1.0000000  0.0000000 )
                  (  0.0000000  0.0000000  1.0000000 )
                  (  1.0000000  0.0000000  0.0000000 )


      isym = 44     inv. 120 deg rotation - cart. axis [1,-1,1]  

 cryst.   s(44) = (     0          0         -1      )
                  (     1          0          0      )
                  (     0          1          0      )

 cart.    s(44) = (  0.0000000  1.0000000  0.0000000 )
                  (  0.0000000  0.0000000  1.0000000 )
                  ( -1.0000000  0.0000000  0.0000000 )


      isym = 45     inv. 120 deg rotation - cart. axis [1,1,1]   

 cryst.   s(45) = (     0         -1          0      )
                  (     0          0         -1      )
                  (    -1          0          0      )

 cart.    s(45) = (  0.0000000  0.0000000 -1.0000000 )
                  ( -1.0000000  0.0000000  0.0000000 )
                  (  0.0000000 -1.0000000  0.0000000 )


      isym = 46     inv. 120 deg rotation - cart. axis [-1,1,-1] 

 cryst.   s(46) = (     0          1          0      )
                  (     0          0          1      )
                  (    -1          0          0      )

 cart.    s(46) = (  0.0000000  0.0000000 -1.0000000 )
                  (  1.0000000  0.0000000  0.0000000 )
                  (  0.0000000  1.0000000  0.0000000 )


      isym = 47     inv. 120 deg rotation - cart. axis [1,-1,-1] 

 cryst.   s(47) = (     0          1          0      )
                  (     0          0         -1      )
                  (     1          0          0      )

 cart.    s(47) = (  0.0000000  0.0000000  1.0000000 )
                  (  1.0000000  0.0000000  0.0000000 )
                  (  0.0000000 -1.0000000  0.0000000 )


      isym = 48     inv. 120 deg rotation - cart. axis [-1,-1,1] 

 cryst.   s(48) = (     0         -1          0      )
                  (     0          0          1      )
                  (     1          0          0      )

 cart.    s(48) = (  0.0000000  0.0000000  1.0000000 )
                  ( -1.0000000  0.0000000  0.0000000 )
                  (  0.0000000  1.0000000  0.0000000 )


   Cartesian axes

     site n.     atom                  positions (alat units)
         1           Ba  tau(   1) = (   0.0000000   0.0000000   0.0000000  )
         2           Pd  tau(   2) = (   0.5000000   0.5000000   0.5000000  )
         3           O   tau(   3) = (   0.5000000   0.5000000   0.0000000  )
         4           O   tau(   4) = (   0.5000000   0.0000000   0.5000000  )
         5           O   tau(   5) = (   0.0000000   0.5000000   0.5000000  )

   Crystallographic axes

     site n.     atom                  positions (cryst. coord.)
         1           Ba  tau(   1) = (  0.0000000  0.0000000  0.0000000  )
         2           Pd  tau(   2) = (  0.5000000  0.5000000  0.5000000  )
         3           O   tau(   3) = (  0.5000000  0.5000000  0.0000000  )
         4           O   tau(   4) = (  0.5000000  0.0000000  0.5000000  )
         5           O   tau(   5) = (  0.0000000  0.5000000  0.5000000  )

     number of k points=   165  Marzari-Vanderbilt smearing, width (Ry)=  0.0010
                       cart. coord. in units 2pi/alat
        k(    1) = (   0.0000000   0.0000000   0.0000000), wk =   0.0004883
        k(    2) = (   0.0000000   0.0000000   0.0625000), wk =   0.0029297
        k(    3) = (   0.0000000   0.0000000   0.1250000), wk =   0.0029297
        k(    4) = (   0.0000000   0.0000000   0.1875000), wk =   0.0029297
        k(    5) = (   0.0000000   0.0000000   0.2500000), wk =   0.0029297
        k(    6) = (   0.0000000   0.0000000   0.3125000), wk =   0.0029297
        k(    7) = (   0.0000000   0.0000000   0.3750000), wk =   0.0029297
        k(    8) = (   0.0000000   0.0000000   0.4375000), wk =   0.0029297
        k(    9) = (   0.0000000   0.0000000  -0.5000000), wk =   0.0014648
        k(   10) = (   0.0000000   0.0625000   0.0625000), wk =   0.0058594
        k(   11) = (   0.0000000   0.0625000   0.1250000), wk =   0.0117188
        k(   12) = (   0.0000000   0.0625000   0.1875000), wk =   0.0117188
        k(   13) = (   0.0000000   0.0625000   0.2500000), wk =   0.0117188
        k(   14) = (   0.0000000   0.0625000   0.3125000), wk =   0.0117188
        k(   15) = (   0.0000000   0.0625000   0.3750000), wk =   0.0117188
        k(   16) = (   0.0000000   0.0625000   0.4375000), wk =   0.0117188
        k(   17) = (   0.0000000   0.0625000  -0.5000000), wk =   0.0058594
        k(   18) = (   0.0000000   0.1250000   0.1250000), wk =   0.0058594
        k(   19) = (   0.0000000   0.1250000   0.1875000), wk =   0.0117188
        k(   20) = (   0.0000000   0.1250000   0.2500000), wk =   0.0117188
        k(   21) = (   0.0000000   0.1250000   0.3125000), wk =   0.0117188
        k(   22) = (   0.0000000   0.1250000   0.3750000), wk =   0.0117188
        k(   23) = (   0.0000000   0.1250000   0.4375000), wk =   0.0117188
        k(   24) = (   0.0000000   0.1250000  -0.5000000), wk =   0.0058594
        k(   25) = (   0.0000000   0.1875000   0.1875000), wk =   0.0058594
        k(   26) = (   0.0000000   0.1875000   0.2500000), wk =   0.0117188
        k(   27) = (   0.0000000   0.1875000   0.3125000), wk =   0.0117188
        k(   28) = (   0.0000000   0.1875000   0.3750000), wk =   0.0117188
        k(   29) = (   0.0000000   0.1875000   0.4375000), wk =   0.0117188
        k(   30) = (   0.0000000   0.1875000  -0.5000000), wk =   0.0058594
        k(   31) = (   0.0000000   0.2500000   0.2500000), wk =   0.0058594
        k(   32) = (   0.0000000   0.2500000   0.3125000), wk =   0.0117188
        k(   33) = (   0.0000000   0.2500000   0.3750000), wk =   0.0117188
        k(   34) = (   0.0000000   0.2500000   0.4375000), wk =   0.0117188
        k(   35) = (   0.0000000   0.2500000  -0.5000000), wk =   0.0058594
        k(   36) = (   0.0000000   0.3125000   0.3125000), wk =   0.0058594
        k(   37) = (   0.0000000   0.3125000   0.3750000), wk =   0.0117188
        k(   38) = (   0.0000000   0.3125000   0.4375000), wk =   0.0117188
        k(   39) = (   0.0000000   0.3125000  -0.5000000), wk =   0.0058594
        k(   40) = (   0.0000000   0.3750000   0.3750000), wk =   0.0058594
        k(   41) = (   0.0000000   0.3750000   0.4375000), wk =   0.0117188
        k(   42) = (   0.0000000   0.3750000  -0.5000000), wk =   0.0058594
        k(   43) = (   0.0000000   0.4375000   0.4375000), wk =   0.0058594
        k(   44) = (   0.0000000   0.4375000  -0.5000000), wk =   0.0058594
        k(   45) = (   0.0000000  -0.5000000  -0.5000000), wk =   0.0014648
        k(   46) = (   0.0625000   0.0625000   0.0625000), wk =   0.0039062
        k(   47) = (   0.0625000   0.0625000   0.1250000), wk =   0.0117188
        k(   48) = (   0.0625000   0.0625000   0.1875000), wk =   0.0117188
        k(   49) = (   0.0625000   0.0625000   0.2500000), wk =   0.0117188
        k(   50) = (   0.0625000   0.0625000   0.3125000), wk =   0.0117188
        k(   51) = (   0.0625000   0.0625000   0.3750000), wk =   0.0117188
        k(   52) = (   0.0625000   0.0625000   0.4375000), wk =   0.0117188
        k(   53) = (   0.0625000   0.0625000  -0.5000000), wk =   0.0058594
        k(   54) = (   0.0625000   0.1250000   0.1250000), wk =   0.0117188
        k(   55) = (   0.0625000   0.1250000   0.1875000), wk =   0.0234375
        k(   56) = (   0.0625000   0.1250000   0.2500000), wk =   0.0234375
        k(   57) = (   0.0625000   0.1250000   0.3125000), wk =   0.0234375
        k(   58) = (   0.0625000   0.1250000   0.3750000), wk =   0.0234375
        k(   59) = (   0.0625000   0.1250000   0.4375000), wk =   0.0234375
        k(   60) = (   0.0625000   0.1250000  -0.5000000), wk =   0.0117188
        k(   61) = (   0.0625000   0.1875000   0.1875000), wk =   0.0117188
        k(   62) = (   0.0625000   0.1875000   0.2500000), wk =   0.0234375
        k(   63) = (   0.0625000   0.1875000   0.3125000), wk =   0.0234375
        k(   64) = (   0.0625000   0.1875000   0.3750000), wk =   0.0234375
        k(   65) = (   0.0625000   0.1875000   0.4375000), wk =   0.0234375
        k(   66) = (   0.0625000   0.1875000  -0.5000000), wk =   0.0117188
        k(   67) = (   0.0625000   0.2500000   0.2500000), wk =   0.0117188
        k(   68) = (   0.0625000   0.2500000   0.3125000), wk =   0.0234375
        k(   69) = (   0.0625000   0.2500000   0.3750000), wk =   0.0234375
        k(   70) = (   0.0625000   0.2500000   0.4375000), wk =   0.0234375
        k(   71) = (   0.0625000   0.2500000  -0.5000000), wk =   0.0117188
        k(   72) = (   0.0625000   0.3125000   0.3125000), wk =   0.0117188
        k(   73) = (   0.0625000   0.3125000   0.3750000), wk =   0.0234375
        k(   74) = (   0.0625000   0.3125000   0.4375000), wk =   0.0234375
        k(   75) = (   0.0625000   0.3125000  -0.5000000), wk =   0.0117188
        k(   76) = (   0.0625000   0.3750000   0.3750000), wk =   0.0117188
        k(   77) = (   0.0625000   0.3750000   0.4375000), wk =   0.0234375
        k(   78) = (   0.0625000   0.3750000  -0.5000000), wk =   0.0117188
        k(   79) = (   0.0625000   0.4375000   0.4375000), wk =   0.0117188
        k(   80) = (   0.0625000   0.4375000  -0.5000000), wk =   0.0117188
        k(   81) = (   0.0625000  -0.5000000  -0.5000000), wk =   0.0029297
        k(   82) = (   0.1250000   0.1250000   0.1250000), wk =   0.0039062
        k(   83) = (   0.1250000   0.1250000   0.1875000), wk =   0.0117188
        k(   84) = (   0.1250000   0.1250000   0.2500000), wk =   0.0117188
        k(   85) = (   0.1250000   0.1250000   0.3125000), wk =   0.0117188
        k(   86) = (   0.1250000   0.1250000   0.3750000), wk =   0.0117188
        k(   87) = (   0.1250000   0.1250000   0.4375000), wk =   0.0117188
        k(   88) = (   0.1250000   0.1250000  -0.5000000), wk =   0.0058594
        k(   89) = (   0.1250000   0.1875000   0.1875000), wk =   0.0117188
        k(   90) = (   0.1250000   0.1875000   0.2500000), wk =   0.0234375
        k(   91) = (   0.1250000   0.1875000   0.3125000), wk =   0.0234375
        k(   92) = (   0.1250000   0.1875000   0.3750000), wk =   0.0234375
        k(   93) = (   0.1250000   0.1875000   0.4375000), wk =   0.0234375
        k(   94) = (   0.1250000   0.1875000  -0.5000000), wk =   0.0117188
        k(   95) = (   0.1250000   0.2500000   0.2500000), wk =   0.0117188
        k(   96) = (   0.1250000   0.2500000   0.3125000), wk =   0.0234375
        k(   97) = (   0.1250000   0.2500000   0.3750000), wk =   0.0234375
        k(   98) = (   0.1250000   0.2500000   0.4375000), wk =   0.0234375
        k(   99) = (   0.1250000   0.2500000  -0.5000000), wk =   0.0117188
        k(  100) = (   0.1250000   0.3125000   0.3125000), wk =   0.0117188
        k(  101) = (   0.1250000   0.3125000   0.3750000), wk =   0.0234375
        k(  102) = (   0.1250000   0.3125000   0.4375000), wk =   0.0234375
        k(  103) = (   0.1250000   0.3125000  -0.5000000), wk =   0.0117188
        k(  104) = (   0.1250000   0.3750000   0.3750000), wk =   0.0117188
        k(  105) = (   0.1250000   0.3750000   0.4375000), wk =   0.0234375
        k(  106) = (   0.1250000   0.3750000  -0.5000000), wk =   0.0117188
        k(  107) = (   0.1250000   0.4375000   0.4375000), wk =   0.0117188
        k(  108) = (   0.1250000   0.4375000  -0.5000000), wk =   0.0117188
        k(  109) = (   0.1250000  -0.5000000  -0.5000000), wk =   0.0029297
        k(  110) = (   0.1875000   0.1875000   0.1875000), wk =   0.0039062
        k(  111) = (   0.1875000   0.1875000   0.2500000), wk =   0.0117188
        k(  112) = (   0.1875000   0.1875000   0.3125000), wk =   0.0117188
        k(  113) = (   0.1875000   0.1875000   0.3750000), wk =   0.0117188
        k(  114) = (   0.1875000   0.1875000   0.4375000), wk =   0.0117188
        k(  115) = (   0.1875000   0.1875000  -0.5000000), wk =   0.0058594
        k(  116) = (   0.1875000   0.2500000   0.2500000), wk =   0.0117188
        k(  117) = (   0.1875000   0.2500000   0.3125000), wk =   0.0234375
        k(  118) = (   0.1875000   0.2500000   0.3750000), wk =   0.0234375
        k(  119) = (   0.1875000   0.2500000   0.4375000), wk =   0.0234375
        k(  120) = (   0.1875000   0.2500000  -0.5000000), wk =   0.0117188
        k(  121) = (   0.1875000   0.3125000   0.3125000), wk =   0.0117188
        k(  122) = (   0.1875000   0.3125000   0.3750000), wk =   0.0234375
        k(  123) = (   0.1875000   0.3125000   0.4375000), wk =   0.0234375
        k(  124) = (   0.1875000   0.3125000  -0.5000000), wk =   0.0117188
        k(  125) = (   0.1875000   0.3750000   0.3750000), wk =   0.0117188
        k(  126) = (   0.1875000   0.3750000   0.4375000), wk =   0.0234375
        k(  127) = (   0.1875000   0.3750000  -0.5000000), wk =   0.0117188
        k(  128) = (   0.1875000   0.4375000   0.4375000), wk =   0.0117188
        k(  129) = (   0.1875000   0.4375000  -0.5000000), wk =   0.0117188
        k(  130) = (   0.1875000  -0.5000000  -0.5000000), wk =   0.0029297
        k(  131) = (   0.2500000   0.2500000   0.2500000), wk =   0.0039062
        k(  132) = (   0.2500000   0.2500000   0.3125000), wk =   0.0117188
        k(  133) = (   0.2500000   0.2500000   0.3750000), wk =   0.0117188
        k(  134) = (   0.2500000   0.2500000   0.4375000), wk =   0.0117188
        k(  135) = (   0.2500000   0.2500000  -0.5000000), wk =   0.0058594
        k(  136) = (   0.2500000   0.3125000   0.3125000), wk =   0.0117188
        k(  137) = (   0.2500000   0.3125000   0.3750000), wk =   0.0234375
        k(  138) = (   0.2500000   0.3125000   0.4375000), wk =   0.0234375
        k(  139) = (   0.2500000   0.3125000  -0.5000000), wk =   0.0117188
        k(  140) = (   0.2500000   0.3750000   0.3750000), wk =   0.0117188
        k(  141) = (   0.2500000   0.3750000   0.4375000), wk =   0.0234375
        k(  142) = (   0.2500000   0.3750000  -0.5000000), wk =   0.0117188
        k(  143) = (   0.2500000   0.4375000   0.4375000), wk =   0.0117188
        k(  144) = (   0.2500000   0.4375000  -0.5000000), wk =   0.0117188
        k(  145) = (   0.2500000  -0.5000000  -0.5000000), wk =   0.0029297
        k(  146) = (   0.3125000   0.3125000   0.3125000), wk =   0.0039062
        k(  147) = (   0.3125000   0.3125000   0.3750000), wk =   0.0117188
        k(  148) = (   0.3125000   0.3125000   0.4375000), wk =   0.0117188
        k(  149) = (   0.3125000   0.3125000  -0.5000000), wk =   0.0058594
        k(  150) = (   0.3125000   0.3750000   0.3750000), wk =   0.0117188
        k(  151) = (   0.3125000   0.3750000   0.4375000), wk =   0.0234375
        k(  152) = (   0.3125000   0.3750000  -0.5000000), wk =   0.0117188
        k(  153) = (   0.3125000   0.4375000   0.4375000), wk =   0.0117188
        k(  154) = (   0.3125000   0.4375000  -0.5000000), wk =   0.0117188
        k(  155) = (   0.3125000  -0.5000000  -0.5000000), wk =   0.0029297
        k(  156) = (   0.3750000   0.3750000   0.3750000), wk =   0.0039062
        k(  157) = (   0.3750000   0.3750000   0.4375000), wk =   0.0117188
        k(  158) = (   0.3750000   0.3750000  -0.5000000), wk =   0.0058594
        k(  159) = (   0.3750000   0.4375000   0.4375000), wk =   0.0117188
        k(  160) = (   0.3750000   0.4375000  -0.5000000), wk =   0.0117188
        k(  161) = (   0.3750000  -0.5000000  -0.5000000), wk =   0.0029297
        k(  162) = (   0.4375000   0.4375000   0.4375000), wk =   0.0039062
        k(  163) = (   0.4375000   0.4375000  -0.5000000), wk =   0.0058594
        k(  164) = (   0.4375000  -0.5000000  -0.5000000), wk =   0.0029297
        k(  165) = (  -0.5000000  -0.5000000  -0.5000000), wk =   0.0004883

                       cryst. coord.
        k(    1) = (   0.0000000   0.0000000   0.0000000), wk =   0.0004883
        k(    2) = (   0.0000000   0.0000000   0.0625000), wk =   0.0029297
        k(    3) = (   0.0000000   0.0000000   0.1250000), wk =   0.0029297
        k(    4) = (   0.0000000   0.0000000   0.1875000), wk =   0.0029297
        k(    5) = (   0.0000000   0.0000000   0.2500000), wk =   0.0029297
        k(    6) = (   0.0000000   0.0000000   0.3125000), wk =   0.0029297
        k(    7) = (   0.0000000   0.0000000   0.3750000), wk =   0.0029297
        k(    8) = (   0.0000000   0.0000000   0.4375000), wk =   0.0029297
        k(    9) = (   0.0000000   0.0000000  -0.5000000), wk =   0.0014648
        k(   10) = (   0.0000000   0.0625000   0.0625000), wk =   0.0058594
        k(   11) = (   0.0000000   0.0625000   0.1250000), wk =   0.0117188
        k(   12) = (   0.0000000   0.0625000   0.1875000), wk =   0.0117188
        k(   13) = (   0.0000000   0.0625000   0.2500000), wk =   0.0117188
        k(   14) = (   0.0000000   0.0625000   0.3125000), wk =   0.0117188
        k(   15) = (   0.0000000   0.0625000   0.3750000), wk =   0.0117188
        k(   16) = (   0.0000000   0.0625000   0.4375000), wk =   0.0117188
        k(   17) = (   0.0000000   0.0625000  -0.5000000), wk =   0.0058594
        k(   18) = (   0.0000000   0.1250000   0.1250000), wk =   0.0058594
        k(   19) = (   0.0000000   0.1250000   0.1875000), wk =   0.0117188
        k(   20) = (   0.0000000   0.1250000   0.2500000), wk =   0.0117188
        k(   21) = (   0.0000000   0.1250000   0.3125000), wk =   0.0117188
        k(   22) = (   0.0000000   0.1250000   0.3750000), wk =   0.0117188
        k(   23) = (   0.0000000   0.1250000   0.4375000), wk =   0.0117188
        k(   24) = (   0.0000000   0.1250000  -0.5000000), wk =   0.0058594
        k(   25) = (   0.0000000   0.1875000   0.1875000), wk =   0.0058594
        k(   26) = (   0.0000000   0.1875000   0.2500000), wk =   0.0117188
        k(   27) = (   0.0000000   0.1875000   0.3125000), wk =   0.0117188
        k(   28) = (   0.0000000   0.1875000   0.3750000), wk =   0.0117188
        k(   29) = (   0.0000000   0.1875000   0.4375000), wk =   0.0117188
        k(   30) = (   0.0000000   0.1875000  -0.5000000), wk =   0.0058594
        k(   31) = (   0.0000000   0.2500000   0.2500000), wk =   0.0058594
        k(   32) = (   0.0000000   0.2500000   0.3125000), wk =   0.0117188
        k(   33) = (   0.0000000   0.2500000   0.3750000), wk =   0.0117188
        k(   34) = (   0.0000000   0.2500000   0.4375000), wk =   0.0117188
        k(   35) = (   0.0000000   0.2500000  -0.5000000), wk =   0.0058594
        k(   36) = (   0.0000000   0.3125000   0.3125000), wk =   0.0058594
        k(   37) = (   0.0000000   0.3125000   0.3750000), wk =   0.0117188
        k(   38) = (   0.0000000   0.3125000   0.4375000), wk =   0.0117188
        k(   39) = (   0.0000000   0.3125000  -0.5000000), wk =   0.0058594
        k(   40) = (   0.0000000   0.3750000   0.3750000), wk =   0.0058594
        k(   41) = (   0.0000000   0.3750000   0.4375000), wk =   0.0117188
        k(   42) = (   0.0000000   0.3750000  -0.5000000), wk =   0.0058594
        k(   43) = (   0.0000000   0.4375000   0.4375000), wk =   0.0058594
        k(   44) = (   0.0000000   0.4375000  -0.5000000), wk =   0.0058594
        k(   45) = (   0.0000000  -0.5000000  -0.5000000), wk =   0.0014648
        k(   46) = (   0.0625000   0.0625000   0.0625000), wk =   0.0039062
        k(   47) = (   0.0625000   0.0625000   0.1250000), wk =   0.0117188
        k(   48) = (   0.0625000   0.0625000   0.1875000), wk =   0.0117188
        k(   49) = (   0.0625000   0.0625000   0.2500000), wk =   0.0117188
        k(   50) = (   0.0625000   0.0625000   0.3125000), wk =   0.0117188
        k(   51) = (   0.0625000   0.0625000   0.3750000), wk =   0.0117188
        k(   52) = (   0.0625000   0.0625000   0.4375000), wk =   0.0117188
        k(   53) = (   0.0625000   0.0625000  -0.5000000), wk =   0.0058594
        k(   54) = (   0.0625000   0.1250000   0.1250000), wk =   0.0117188
        k(   55) = (   0.0625000   0.1250000   0.1875000), wk =   0.0234375
        k(   56) = (   0.0625000   0.1250000   0.2500000), wk =   0.0234375
        k(   57) = (   0.0625000   0.1250000   0.3125000), wk =   0.0234375
        k(   58) = (   0.0625000   0.1250000   0.3750000), wk =   0.0234375
        k(   59) = (   0.0625000   0.1250000   0.4375000), wk =   0.0234375
        k(   60) = (   0.0625000   0.1250000  -0.5000000), wk =   0.0117188
        k(   61) = (   0.0625000   0.1875000   0.1875000), wk =   0.0117188
        k(   62) = (   0.0625000   0.1875000   0.2500000), wk =   0.0234375
        k(   63) = (   0.0625000   0.1875000   0.3125000), wk =   0.0234375
        k(   64) = (   0.0625000   0.1875000   0.3750000), wk =   0.0234375
        k(   65) = (   0.0625000   0.1875000   0.4375000), wk =   0.0234375
        k(   66) = (   0.0625000   0.1875000  -0.5000000), wk =   0.0117188
        k(   67) = (   0.0625000   0.2500000   0.2500000), wk =   0.0117188
        k(   68) = (   0.0625000   0.2500000   0.3125000), wk =   0.0234375
        k(   69) = (   0.0625000   0.2500000   0.3750000), wk =   0.0234375
        k(   70) = (   0.0625000   0.2500000   0.4375000), wk =   0.0234375
        k(   71) = (   0.0625000   0.2500000  -0.5000000), wk =   0.0117188
        k(   72) = (   0.0625000   0.3125000   0.3125000), wk =   0.0117188
        k(   73) = (   0.0625000   0.3125000   0.3750000), wk =   0.0234375
        k(   74) = (   0.0625000   0.3125000   0.4375000), wk =   0.0234375
        k(   75) = (   0.0625000   0.3125000  -0.5000000), wk =   0.0117188
        k(   76) = (   0.0625000   0.3750000   0.3750000), wk =   0.0117188
        k(   77) = (   0.0625000   0.3750000   0.4375000), wk =   0.0234375
        k(   78) = (   0.0625000   0.3750000  -0.5000000), wk =   0.0117188
        k(   79) = (   0.0625000   0.4375000   0.4375000), wk =   0.0117188
        k(   80) = (   0.0625000   0.4375000  -0.5000000), wk =   0.0117188
        k(   81) = (   0.0625000  -0.5000000  -0.5000000), wk =   0.0029297
        k(   82) = (   0.1250000   0.1250000   0.1250000), wk =   0.0039062
        k(   83) = (   0.1250000   0.1250000   0.1875000), wk =   0.0117188
        k(   84) = (   0.1250000   0.1250000   0.2500000), wk =   0.0117188
        k(   85) = (   0.1250000   0.1250000   0.3125000), wk =   0.0117188
        k(   86) = (   0.1250000   0.1250000   0.3750000), wk =   0.0117188
        k(   87) = (   0.1250000   0.1250000   0.4375000), wk =   0.0117188
        k(   88) = (   0.1250000   0.1250000  -0.5000000), wk =   0.0058594
        k(   89) = (   0.1250000   0.1875000   0.1875000), wk =   0.0117188
        k(   90) = (   0.1250000   0.1875000   0.2500000), wk =   0.0234375
        k(   91) = (   0.1250000   0.1875000   0.3125000), wk =   0.0234375
        k(   92) = (   0.1250000   0.1875000   0.3750000), wk =   0.0234375
        k(   93) = (   0.1250000   0.1875000   0.4375000), wk =   0.0234375
        k(   94) = (   0.1250000   0.1875000  -0.5000000), wk =   0.0117188
        k(   95) = (   0.1250000   0.2500000   0.2500000), wk =   0.0117188
        k(   96) = (   0.1250000   0.2500000   0.3125000), wk =   0.0234375
        k(   97) = (   0.1250000   0.2500000   0.3750000), wk =   0.0234375
        k(   98) = (   0.1250000   0.2500000   0.4375000), wk =   0.0234375
        k(   99) = (   0.1250000   0.2500000  -0.5000000), wk =   0.0117188
        k(  100) = (   0.1250000   0.3125000   0.3125000), wk =   0.0117188
        k(  101) = (   0.1250000   0.3125000   0.3750000), wk =   0.0234375
        k(  102) = (   0.1250000   0.3125000   0.4375000), wk =   0.0234375
        k(  103) = (   0.1250000   0.3125000  -0.5000000), wk =   0.0117188
        k(  104) = (   0.1250000   0.3750000   0.3750000), wk =   0.0117188
        k(  105) = (   0.1250000   0.3750000   0.4375000), wk =   0.0234375
        k(  106) = (   0.1250000   0.3750000  -0.5000000), wk =   0.0117188
        k(  107) = (   0.1250000   0.4375000   0.4375000), wk =   0.0117188
        k(  108) = (   0.1250000   0.4375000  -0.5000000), wk =   0.0117188
        k(  109) = (   0.1250000  -0.5000000  -0.5000000), wk =   0.0029297
        k(  110) = (   0.1875000   0.1875000   0.1875000), wk =   0.0039062
        k(  111) = (   0.1875000   0.1875000   0.2500000), wk =   0.0117188
        k(  112) = (   0.1875000   0.1875000   0.3125000), wk =   0.0117188
        k(  113) = (   0.1875000   0.1875000   0.3750000), wk =   0.0117188
        k(  114) = (   0.1875000   0.1875000   0.4375000), wk =   0.0117188
        k(  115) = (   0.1875000   0.1875000  -0.5000000), wk =   0.0058594
        k(  116) = (   0.1875000   0.2500000   0.2500000), wk =   0.0117188
        k(  117) = (   0.1875000   0.2500000   0.3125000), wk =   0.0234375
        k(  118) = (   0.1875000   0.2500000   0.3750000), wk =   0.0234375
        k(  119) = (   0.1875000   0.2500000   0.4375000), wk =   0.0234375
        k(  120) = (   0.1875000   0.2500000  -0.5000000), wk =   0.0117188
        k(  121) = (   0.1875000   0.3125000   0.3125000), wk =   0.0117188
        k(  122) = (   0.1875000   0.3125000   0.3750000), wk =   0.0234375
        k(  123) = (   0.1875000   0.3125000   0.4375000), wk =   0.0234375
        k(  124) = (   0.1875000   0.3125000  -0.5000000), wk =   0.0117188
        k(  125) = (   0.1875000   0.3750000   0.3750000), wk =   0.0117188
        k(  126) = (   0.1875000   0.3750000   0.4375000), wk =   0.0234375
        k(  127) = (   0.1875000   0.3750000  -0.5000000), wk =   0.0117188
        k(  128) = (   0.1875000   0.4375000   0.4375000), wk =   0.0117188
        k(  129) = (   0.1875000   0.4375000  -0.5000000), wk =   0.0117188
        k(  130) = (   0.1875000  -0.5000000  -0.5000000), wk =   0.0029297
        k(  131) = (   0.2500000   0.2500000   0.2500000), wk =   0.0039062
        k(  132) = (   0.2500000   0.2500000   0.3125000), wk =   0.0117188
        k(  133) = (   0.2500000   0.2500000   0.3750000), wk =   0.0117188
        k(  134) = (   0.2500000   0.2500000   0.4375000), wk =   0.0117188
        k(  135) = (   0.2500000   0.2500000  -0.5000000), wk =   0.0058594
        k(  136) = (   0.2500000   0.3125000   0.3125000), wk =   0.0117188
        k(  137) = (   0.2500000   0.3125000   0.3750000), wk =   0.0234375
        k(  138) = (   0.2500000   0.3125000   0.4375000), wk =   0.0234375
        k(  139) = (   0.2500000   0.3125000  -0.5000000), wk =   0.0117188
        k(  140) = (   0.2500000   0.3750000   0.3750000), wk =   0.0117188
        k(  141) = (   0.2500000   0.3750000   0.4375000), wk =   0.0234375
        k(  142) = (   0.2500000   0.3750000  -0.5000000), wk =   0.0117188
        k(  143) = (   0.2500000   0.4375000   0.4375000), wk =   0.0117188
        k(  144) = (   0.2500000   0.4375000  -0.5000000), wk =   0.0117188
        k(  145) = (   0.2500000  -0.5000000  -0.5000000), wk =   0.0029297
        k(  146) = (   0.3125000   0.3125000   0.3125000), wk =   0.0039062
        k(  147) = (   0.3125000   0.3125000   0.3750000), wk =   0.0117188
        k(  148) = (   0.3125000   0.3125000   0.4375000), wk =   0.0117188
        k(  149) = (   0.3125000   0.3125000  -0.5000000), wk =   0.0058594
        k(  150) = (   0.3125000   0.3750000   0.3750000), wk =   0.0117188
        k(  151) = (   0.3125000   0.3750000   0.4375000), wk =   0.0234375
        k(  152) = (   0.3125000   0.3750000  -0.5000000), wk =   0.0117188
        k(  153) = (   0.3125000   0.4375000   0.4375000), wk =   0.0117188
        k(  154) = (   0.3125000   0.4375000  -0.5000000), wk =   0.0117188
        k(  155) = (   0.3125000  -0.5000000  -0.5000000), wk =   0.0029297
        k(  156) = (   0.3750000   0.3750000   0.3750000), wk =   0.0039062
        k(  157) = (   0.3750000   0.3750000   0.4375000), wk =   0.0117188
        k(  158) = (   0.3750000   0.3750000  -0.5000000), wk =   0.0058594
        k(  159) = (   0.3750000   0.4375000   0.4375000), wk =   0.0117188
        k(  160) = (   0.3750000   0.4375000  -0.5000000), wk =   0.0117188
        k(  161) = (   0.3750000  -0.5000000  -0.5000000), wk =   0.0029297
        k(  162) = (   0.4375000   0.4375000   0.4375000), wk =   0.0039062
        k(  163) = (   0.4375000   0.4375000  -0.5000000), wk =   0.0058594
        k(  164) = (   0.4375000  -0.5000000  -0.5000000), wk =   0.0029297
        k(  165) = (  -0.5000000  -0.5000000  -0.5000000), wk =   0.0004883

     Dense  grid:    22743 G-vectors     FFT dimensions: (  36,  36,  36)

     Dynamical RAM for                 wfc:       0.06 MB

     Dynamical RAM for     wfc (w. buffer):       9.29 MB

     Dynamical RAM for           str. fact:       0.05 MB

     Dynamical RAM for           local pot:       0.00 MB

     Dynamical RAM for          nlocal pot:       0.18 MB

     Dynamical RAM for                qrad:      31.58 MB

     Dynamical RAM for          rho,v,vnew:       0.11 MB

     Dynamical RAM for               rhoin:       0.04 MB

     Dynamical RAM for            rho*nmix:       0.28 MB

     Dynamical RAM for           G-vectors:       0.07 MB

     Dynamical RAM for          h,s,v(r/c):       0.05 MB

     Dynamical RAM for          <psi|beta>:       0.03 MB

     Dynamical RAM for                 psi:       0.22 MB

     Dynamical RAM for                hpsi:       0.22 MB

     Dynamical RAM for                spsi:       0.22 MB

     Dynamical RAM for      wfcinit/wfcrot:       0.19 MB

     Dynamical RAM for           addusdens:       6.16 MB

     Dynamical RAM for          addusforce:       6.38 MB

     Dynamical RAM for         addusstress:       6.58 MB

     Estimated static dynamical RAM per process >      41.76 MB

     Estimated max dynamical RAM per process >      48.34 MB

     Estimated total dynamical RAM >     966.83 MB

     Check: negative/imaginary core charge=   -0.000002    0.000000

     Initial potential from superposition of free atoms
     Check: negative starting charge=   -0.170200

     starting charge   43.48499, renormalised to   44.00000

     negative rho (up, down):  1.722E-01 0.000E+00
     Starting wfcs are   37 randomized atomic wfcs

     total cpu time spent up to now is        2.1 secs

     Self-consistent Calculation

     iteration #  1     ecut=    50.00 Ry     beta= 0.70
     Davidson diagonalization with overlap
     ethr =  1.00E-02,  avg # of iterations =  2.0

     negative rho (up, down):  1.649E-01 0.000E+00

     total cpu time spent up to now is        5.5 secs

     total energy              =    -362.65321283 Ry
     Harris-Foulkes estimate   =    -367.06760804 Ry
     estimated scf accuracy    <       5.25906999 Ry

     iteration #  2     ecut=    50.00 Ry     beta= 0.70
     Davidson diagonalization with overlap
     ethr =  1.00E-02,  avg # of iterations =  3.0

     negative rho (up, down):  1.674E-01 0.000E+00

     total cpu time spent up to now is       10.6 secs

     total energy              =    -364.14211769 Ry
     Harris-Foulkes estimate   =    -370.77200422 Ry
     estimated scf accuracy    <      16.06840514 Ry

     iteration #  3     ecut=    50.00 Ry     beta= 0.70
     Davidson diagonalization with overlap
     ethr =  1.00E-02,  avg # of iterations =  2.8

     negative rho (up, down):  1.676E-01 0.000E+00

     total cpu time spent up to now is       15.4 secs

     total energy              =    -365.84964453 Ry
     Harris-Foulkes estimate   =    -365.96271965 Ry
     estimated scf accuracy    <       0.41783055 Ry

     iteration #  4     ecut=    50.00 Ry     beta= 0.70
     Davidson diagonalization with overlap
     ethr =  9.50E-04,  avg # of iterations =  1.9

     negative rho (up, down):  1.678E-01 0.000E+00

     total cpu time spent up to now is       18.8 secs

     total energy              =    -365.90394301 Ry
     Harris-Foulkes estimate   =    -365.90502741 Ry
     estimated scf accuracy    <       0.00726750 Ry

     iteration #  5     ecut=    50.00 Ry     beta= 0.70
     Davidson diagonalization with overlap
     ethr =  1.65E-05,  avg # of iterations =  4.7

     negative rho (up, down):  1.682E-01 0.000E+00

     total cpu time spent up to now is       25.3 secs

     total energy              =    -365.90559021 Ry
     Harris-Foulkes estimate   =    -365.90581942 Ry
     estimated scf accuracy    <       0.00289662 Ry

     iteration #  6     ecut=    50.00 Ry     beta= 0.70
     Davidson diagonalization with overlap
     ethr =  6.58E-06,  avg # of iterations =  2.0

     negative rho (up, down):  1.682E-01 0.000E+00

     total cpu time spent up to now is       29.1 secs

     total energy              =    -365.90438546 Ry
     Harris-Foulkes estimate   =    -365.90596395 Ry
     estimated scf accuracy    <       0.00415102 Ry

     iteration #  7     ecut=    50.00 Ry     beta= 0.70
     Davidson diagonalization with overlap
     ethr =  6.58E-06,  avg # of iterations =  2.0

     negative rho (up, down):  1.681E-01 0.000E+00

     total cpu time spent up to now is       32.7 secs

     total energy              =    -365.90511501 Ry
     Harris-Foulkes estimate   =    -365.90554563 Ry
     estimated scf accuracy    <       0.00110616 Ry

     iteration #  8     ecut=    50.00 Ry     beta= 0.70
     Davidson diagonalization with overlap
     ethr =  2.51E-06,  avg # of iterations =  2.0

     negative rho (up, down):  1.681E-01 0.000E+00

     total cpu time spent up to now is       36.3 secs

     total energy              =    -365.90535620 Ry
     Harris-Foulkes estimate   =    -365.90542781 Ry
     estimated scf accuracy    <       0.00028678 Ry

     iteration #  9     ecut=    50.00 Ry     beta= 0.70
     Davidson diagonalization with overlap
     ethr =  6.52E-07,  avg # of iterations =  1.1

     negative rho (up, down):  1.681E-01 0.000E+00

     total cpu time spent up to now is       39.1 secs

     total energy              =    -365.90538349 Ry
     Harris-Foulkes estimate   =    -365.90538465 Ry
     estimated scf accuracy    <       0.00000505 Ry

     iteration # 10     ecut=    50.00 Ry     beta= 0.70
     Davidson diagonalization with overlap
     ethr =  1.15E-08,  avg # of iterations =  2.1

     negative rho (up, down):  1.681E-01 0.000E+00

     total cpu time spent up to now is       42.8 secs

     total energy              =    -365.90538421 Ry
     Harris-Foulkes estimate   =    -365.90538423 Ry
     estimated scf accuracy    <       0.00000017 Ry

     iteration # 11     ecut=    50.00 Ry     beta= 0.70
     Davidson diagonalization with overlap
     ethr =  3.78E-10,  avg # of iterations =  2.1

     negative rho (up, down):  1.681E-01 0.000E+00

     total cpu time spent up to now is       46.7 secs

     total energy              =    -365.90538415 Ry
     Harris-Foulkes estimate   =    -365.90538425 Ry
     estimated scf accuracy    <       0.00000035 Ry

     iteration # 12     ecut=    50.00 Ry     beta= 0.70
     Davidson diagonalization with overlap
     ethr =  3.78E-10,  avg # of iterations =  1.9

     negative rho (up, down):  1.681E-01 0.000E+00

     total cpu time spent up to now is       50.2 secs

     End of self-consistent calculation

          k = 0.0000 0.0000 0.0000 (  2897 PWs)   bands (ev):

   -40.9994 -40.9994 -40.9994 -14.9723  -7.1609  -6.4623  -6.4623  -0.1228
    -0.1228  -0.1228   6.9223   6.9223   6.9223   7.1769   7.1769   7.1769
     8.5789   8.5789   8.8003   8.8003   8.8003   9.4031   9.4031   9.4031
    15.0404  15.9052

     occupation numbers 
     1.0000   1.0000   1.0000   1.0000   1.0000   1.0000   1.0000   1.0000
     1.0000   1.0000   1.0000   1.0000   1.0000   1.0000   1.0000   1.0000
     1.0000   1.0000   1.0000   1.0000   1.0000   1.0000   1.0000   1.0000
     0.0000   0.0000

          k = 0.0000 0.0000 0.0625 (  2849 PWs)   bands (ev):

   -40.9995 -40.9994 -40.9994 -14.9696  -7.1585  -6.4624  -6.4613  -0.1184
    -0.1184  -0.1139   6.7031   6.9028   6.9028   7.1452   7.1452   7.1781
     8.5789   8.6145   8.7732   8.8357   8.8357   9.4097   9.4097   9.5339
    15.1009  15.1070

     occupation numbers 
     1.0000   1.0000   1.0000   1.0000   1.0000   1.0000   1.0000   1.0000
     1.0000   1.0000   1.0000   1.0000   1.0000   1.0000   1.0000   1.0000
     1.0000   1.0000   1.0000   1.0000   1.0000   1.0000   1.0000   1.0000
     0.0000   0.0000

          k = 0.0000 0.0000 0.1250 (  2857 PWs)   bands (ev):

   -40.9997 -40.9994 -40.9994 -14.9618  -7.1538  -6.4601  -6.4586  -0.1058
    -0.1058  -0.0886   6.2169   6.8418   6.8418   7.0709   7.0709   7.1813
     8.5788   8.5929   8.6976   8.9083   8.9083   9.4462   9.4462   9.8920
    15.2735  15.2981

     occupation numbers 
     1.0000   1.0000   1.0000   1.0000   1.0000   1.0000   1.0000   1.0000
     1.0000   1.0000   1.0000   1.0000   1.0000   1.0000   1.0000   1.0000
     1.0000   1.0000   1.0000   1.0000   1.0000   1.0000   1.0000   1.0000
     0.0000   0.0000

          k = 0.0000 0.0000 0.1875 (  2853 PWs)   bands (ev):

   -41.0000 -40.9994 -40.9994 -14.9502  -7.1527  -6.4546  -6.4492  -0.0867
    -0.0867  -0.0509   5.6633   6.7424   6.7424   6.9891   6.9891   7.1862
     8.4800   8.5730   8.5952   8.9529   8.9529   9.5465   9.5465  10.3359
    15.5338  15.5919

     occupation numbers 
     1.0000   1.0000   1.0000   1.0000   1.0000   1.0000   1.0000   1.0000
     1.0000   1.0000   1.0000   1.0000   1.0000   1.0000   1.0000   1.0000
     1.0000   1.0000   1.0000   1.0000   1.0000   1.0000   1.0000   0.0000
     0.0000   0.0000

          k = 0.0000 0.0000 0.2500 (  2838 PWs)   bands (ev):

   -41.0004 -40.9993 -40.9993 -14.9364  -7.1606  -6.4499  -6.4248  -0.0639
    -0.0639  -0.0063   5.1356   6.6255   6.6255   6.9135   6.9135   7.1919
     8.3280   8.4662   8.5814   8.9485   8.9485   9.7045   9.7045  10.7544
    15.8466  15.9581

     occupation numbers 
     1.0000   1.0000   1.0000   1.0000   1.0000   1.0000   1.0000   1.0000
     1.0000   1.0000   1.0000   1.0000   1.0000   1.0000   1.0000   1.0000
     1.0000   1.0000   1.0000   1.0000   1.0000   1.0000   1.0000   0.0000
     0.0000   0.0000

          k = 0.0000 0.0000 0.3125 (  2830 PWs)   bands (ev):

   -41.0008 -40.9993 -40.9993 -14.9225  -7.1773  -6.4451  -6.3890  -0.0408
    -0.0408   0.0381   4.6827   6.5163   6.5163   6.8456   6.8456   7.1977
     8.1757   8.3520   8.5814   8.9198   8.9198   9.8756   9.8756  11.0981
    16.1697  16.3571

     occupation numbers 
     1.0000   1.0000   1.0000   1.0000   1.0000   1.0000   1.0000   1.0000
     1.0000   1.0000   1.0000   1.0000   1.0000   1.0000   1.0000   1.0000
     1.0000   1.0000   1.0000   1.0000   1.0000   1.0000   1.0000   0.0000
     0.0000   0.0000

          k = 0.0000 0.0000 0.3750 (  2830 PWs)   bands (ev):

   -41.0011 -40.9993 -40.9993 -14.9107  -7.1973  -6.4411  -6.3506  -0.0210
    -0.0210   0.0758   4.3365   6.4307   6.4307   6.7896   6.7896   7.2026
     8.0496   8.2594   8.5816   8.8890   8.8890  10.0217  10.0217  11.3482
    16.4560  16.7358

     occupation numbers 
     1.0000   1.0000   1.0000   1.0000   1.0000   1.0000   1.0000   1.0000
     1.0000   1.0000   1.0000   1.0000   1.0000   1.0000   1.0000   1.0000
     1.0000   1.0000   1.0000   1.0000   1.0000   1.0000   1.0000   0.0000
     0.0000   0.0000

          k = 0.0000 0.0000 0.4375 (  2838 PWs)   bands (ev):

   -41.0013 -40.9993 -40.9993 -14.9027  -7.2132  -6.4383  -6.3213  -0.0076
    -0.0076   0.1009   4.1195   6.3767   6.3767   6.7521   6.7521   7.2058
     7.9671   8.1995   8.5818   8.8674   8.8674  10.1185  10.1185  11.4988
    16.6560  17.0219

     occupation numbers 
     1.0000   1.0000   1.0000   1.0000   1.0000   1.0000   1.0000   1.0000
     1.0000   1.0000   1.0000   1.0000   1.0000   1.0000   1.0000   1.0000
     1.0000   1.0000   1.0000   1.0000   1.0000   0.0098   0.0098   0.0000
     0.0000   0.0000

          k = 0.0000 0.0000-0.5000 (  2826 PWs)   bands (ev):

   -41.0014 -40.9993 -40.9993 -14.8999  -7.2191  -6.4374  -6.3104  -0.0029
    -0.0029   0.1098   4.0455   6.3584   6.3584   6.7390   6.7390   7.2070
     7.9384   8.1789   8.5819   8.8597   8.8597  10.1524  10.1524  11.5490
    16.7283  17.1315

     occupation numbers 
     1.0000   1.0000   1.0000   1.0000   1.0000   1.0000   1.0000   1.0000
     1.0000   1.0000   1.0000   1.0000   1.0000   1.0000   1.0000   1.0000
     1.0000   1.0000   1.0000   1.0000   1.0000   0.0000   0.0000   0.0000
     0.0000   0.0000

          k = 0.0000 0.0625 0.0625 (  2855 PWs)   bands (ev):

   -40.9995 -40.9995 -40.9994 -14.9669  -7.1556  -6.4623  -6.4607  -0.1255
    -0.1140  -0.0947   6.6591   6.7268   6.8853   7.0948   7.1010   7.1904
     8.5899   8.6466   8.8035   8.8218   8.8728   9.4046   9.4135   9.6683
    15.1614  15.1708

     occupation numbers 
     1.0000   1.0000   1.0000   1.0000   1.0000   1.0000   1.0000   1.0000
     1.0000   1.0000   1.0000   1.0000   1.0000   1.0000   1.0000   1.0000
     1.0000   1.0000   1.0000   1.0000   1.0000   1.0000   1.0000   1.0000
     0.0000   0.0000

          k = 0.0000 0.0625 0.1250 (  2855 PWs)   bands (ev):

   -40.9997 -40.9995 -40.9994 -14.9592  -7.1495  -6.4610  -6.4577  -0.1220
    -0.1012  -0.0637   6.2066   6.6678   6.8286   6.9843   7.0182   7.1995
     8.5546   8.6588   8.7437   8.9179   8.9510   9.4427   9.4455  10.0064
    15.3286  15.3606

     occupation numbers 
     1.0000   1.0000   1.0000   1.0000   1.0000   1.0000   1.0000   1.0000
     1.0000   1.0000   1.0000   1.0000   1.0000   1.0000   1.0000   1.0000
     1.0000   1.0000   1.0000   1.0000   1.0000   1.0000   1.0000   1.0000
     0.0000   0.0000

          k = 0.0000 0.0625 0.1875 (  2845 PWs)   bands (ev):

   -41.0000 -40.9995 -40.9994 -14.9477  -7.1463  -6.4550  -6.4496  -0.1075
    -0.0820  -0.0266   5.6575   6.6083   6.7309   6.8586   6.9347   7.2055
     8.4669   8.6085   8.6474   9.0008   9.0238   9.5363   9.5418  10.4355
    15.5811  15.6538

     occupation numbers 
     1.0000   1.0000   1.0000   1.0000   1.0000   1.0000   1.0000   1.0000
     1.0000   1.0000   1.0000   1.0000   1.0000   1.0000   1.0000   1.0000
     1.0000   1.0000   1.0000   1.0000   1.0000   1.0000   1.0000   0.0000
     0.0000   0.0000

          k = 0.0000 0.0625 0.2500 (  2838 PWs)   bands (ev):

   -41.0004 -40.9994 -40.9993 -14.9341  -7.1517  -6.4493  -6.4272  -0.0849
    -0.0590   0.0119   5.1317   6.5235   6.6133   6.7519   6.8607   7.2110
     8.3434   8.5117   8.5723   8.9973   9.0860   9.6902   9.6924  10.8477
    15.8866  16.0194

     occupation numbers 
     1.0000   1.0000   1.0000   1.0000   1.0000   1.0000   1.0000   1.0000
     1.0000   1.0000   1.0000   1.0000   1.0000   1.0000   1.0000   1.0000
     1.0000   1.0000   1.0000   1.0000   1.0000   1.0000   1.0000   0.0000
     0.0000   0.0000

          k = 0.0000 0.0625 0.3125 (  2832 PWs)   bands (ev):

   -41.0008 -40.9994 -40.9993 -14.9203  -7.1661  -6.4441  -6.3928  -0.0589
    -0.0356   0.0469   4.6797   6.4274   6.5032   6.6744   6.7943   7.2161
     8.2166   8.4024   8.5185   8.9680   9.1101   9.8580   9.8636  11.1893
    16.2046  16.4181

     occupation numbers 
     1.0000   1.0000   1.0000   1.0000   1.0000   1.0000   1.0000   1.0000
     1.0000   1.0000   1.0000   1.0000   1.0000   1.0000   1.0000   1.0000
     1.0000   1.0000   1.0000   1.0000   1.0000   1.0000   1.0000   0.0000
     0.0000   0.0000

          k = 0.0000 0.0625 0.3750 (  2829 PWs)   bands (ev):

   -41.0011 -40.9994 -40.9993 -14.9086  -7.1843  -6.4398  -6.3553  -0.0346
    -0.0156   0.0744   4.3338   6.3438   6.4170   6.6206   6.7393   7.2205
     8.1107   8.3128   8.4755   8.9367   9.1166  10.0049  10.0100  11.4386
    16.4884  16.7967

     occupation numbers 
     1.0000   1.0000   1.0000   1.0000   1.0000   1.0000   1.0000   1.0000
     1.0000   1.0000   1.0000   1.0000   1.0000   1.0000   1.0000   1.0000
     1.0000   1.0000   1.0000   1.0000   1.0000   1.0000   1.0000   0.0000
     0.0000   0.0000

          k = 0.0000 0.0625 0.4375 (  2837 PWs)   bands (ev):

   -41.0013 -40.9994 -40.9993 -14.9007  -7.1991  -6.4369  -6.3266  -0.0172
    -0.0021   0.0918   4.1169   6.2886   6.3628   6.5877   6.7024   7.2235
     8.0412   8.2547   8.4475   8.9147   9.1175  10.1033  10.1070  11.5889
    16.6884  17.0831

     occupation numbers 
     1.0000   1.0000   1.0000   1.0000   1.0000   1.0000   1.0000   1.0000
     1.0000   1.0000   1.0000   1.0000   1.0000   1.0000   1.0000   1.0000
     1.0000   1.0000   1.0000   1.0000   1.0000   0.2931   0.1594   0.0000
     0.0000   0.0000

          k = 0.0000 0.0625-0.5000 (  2836 PWs)   bands (ev):

   -41.0014 -40.9993 -40.9993 -14.8979  -7.2047  -6.4359  -6.3159  -0.0109
     0.0027   0.0977   4.0430   6.2695   6.3444   6.5766   6.6894   7.2245
     8.0170   8.2346   8.4378   8.9070   9.1174  10.1378  10.1409  11.6389
    16.7611  17.1932

     occupation numbers 
     1.0000   1.0000   1.0000   1.0000   1.0000   1.0000   1.0000   1.0000
     1.0000   1.0000   1.0000   1.0000   1.0000   1.0000   1.0000   1.0000
     1.0000   1.0000   1.0000   1.0000   1.0000   0.0000   0.0000   0.0000
     0.0000   0.0000

          k = 0.0000 0.1250 0.1250 (  2855 PWs)   bands (ev):

   -40.9997 -40.9997 -40.9994 -14.9518  -7.1393  -6.4625  -6.4535  -0.1331
    -0.0881  -0.0279   6.1112   6.2916   6.7850   6.8304   6.9135   7.2204
     8.4683   8.7302   8.8417   8.9501   9.0499   9.4475   9.4798  10.3118
    15.4804  15.5483

     occupation numbers 
     1.0000   1.0000   1.0000   1.0000   1.0000   1.0000   1.0000   1.0000
     1.0000   1.0000   1.0000   1.0000   1.0000   1.0000   1.0000   1.0000
     1.0000   1.0000   1.0000   1.0000   1.0000   1.0000   1.0000   0.0000
     0.0000   0.0000

          k = 0.0000 0.1250 0.1875 (  2843 PWs)   bands (ev):

   -41.0000 -40.9997 -40.9994 -14.9406  -7.1296  -6.4594  -6.4454  -0.1314
    -0.0684   0.0072   5.6358   6.2017   6.6573   6.6972   6.8151   7.2337
     8.3644   8.7165   8.8015   9.1109   9.1253   9.5124   9.5573  10.7148
    15.7113  15.8411

     occupation numbers 
     1.0000   1.0000   1.0000   1.0000   1.0000   1.0000   1.0000   1.0000
     1.0000   1.0000   1.0000   1.0000   1.0000   1.0000   1.0000   1.0000
     1.0000   1.0000   1.0000   1.0000   1.0000   1.0000   1.0000   0.0000
     0.0000   0.0000

          k = 0.0000 0.1250 0.2500 (  2830 PWs)   bands (ev):

   -41.0004 -40.9996 -40.9993 -14.9273  -7.1273  -6.4511  -6.4295  -0.1176
    -0.0447   0.0365   5.1196   6.1662   6.4889   6.5781   6.7398   7.2427
     8.2717   8.6524   8.7012   9.1291   9.2741   9.6594   9.6690  11.1160
    15.9963  16.2061

     occupation numbers 
     1.0000   1.0000   1.0000   1.0000   1.0000   1.0000   1.0000   1.0000
     1.0000   1.0000   1.0000   1.0000   1.0000   1.0000   1.0000   1.0000
     1.0000   1.0000   1.0000   1.0000   1.0000   1.0000   1.0000   0.0000
     0.0000   0.0000

          k = 0.0000 0.1250 0.3125 (  2827 PWs)   bands (ev):

   -41.0008 -40.9996 -40.9993 -14.9139  -7.1344  -6.4430  -6.4014  -0.0945
    -0.0208   0.0562   4.6708   6.1325   6.3449   6.4654   6.6743   7.2494
     8.2057   8.5648   8.5952   9.0992   9.3737   9.8151   9.8303  11.4548
    16.2999  16.6034

     occupation numbers 
     1.0000   1.0000   1.0000   1.0000   1.0000   1.0000   1.0000   1.0000
     1.0000   1.0000   1.0000   1.0000   1.0000   1.0000   1.0000   1.0000
     1.0000   1.0000   1.0000   1.0000   1.0000   1.0000   1.0000   0.0000
     0.0000   0.0000

          k = 0.0000 0.1250 0.3750 (  2826 PWs)   bands (ev):

   -41.0011 -40.9996 -40.9993 -14.9025  -7.1469  -6.4370  -6.3681  -0.0672
    -0.0002   0.0651   4.3262   6.0994   6.2398   6.3777   6.6195   7.2544
     8.1718   8.4757   8.5035   9.0668   9.4216   9.9595   9.9775  11.7043
    16.5781  16.9811

     occupation numbers 
     1.0000   1.0000   1.0000   1.0000   1.0000   1.0000   1.0000   1.0000
     1.0000   1.0000   1.0000   1.0000   1.0000   1.0000   1.0000   1.0000
     1.0000   1.0000   1.0000   1.0000   1.0000   1.0000   1.0000   0.0000
     0.0000   0.0000

          k = 0.0000 0.1250 0.4375 (  2833 PWs)   bands (ev):

   -41.0013 -40.9996 -40.9993 -14.8948  -7.1582  -6.4332  -6.3416  -0.0434
     0.0138   0.0652   4.1097   6.0705   6.1813   6.3229   6.5826   7.2575
     8.1654   8.4012   8.4440   9.0442   9.4426  10.0609  10.0751  11.8551
    16.7791  17.2682

     occupation numbers 
     1.0000   1.0000   1.0000   1.0000   1.0000   1.0000   1.0000   1.0000
     1.0000   1.0000   1.0000   1.0000   1.0000   1.0000   1.0000   1.0000
     1.0000   1.0000   1.0000   1.0000   1.0000   1.0019   1.0500   0.0000
     0.0000   0.0000

          k = 0.0000 0.1250-0.5000 (  2838 PWs)   bands (ev):

   -41.0014 -40.9996 -40.9992 -14.8921  -7.1627  -6.4319  -6.3316  -0.0333
     0.0187   0.0635   4.0359   6.0581   6.1639   6.3043   6.5694   7.2586
     8.1686   8.3695   8.4239   9.0363   9.4485  10.0970  10.1091  11.9053
    16.8536  17.3793

     occupation numbers 
     1.0000   1.0000   1.0000   1.0000   1.0000   1.0000   1.0000   1.0000
     1.0000   1.0000   1.0000   1.0000   1.0000   1.0000   1.0000   1.0000
     1.0000   1.0000   1.0000   1.0000   1.0000   0.6153   0.1054   0.0000
     0.0000   0.0000

          k = 0.0000 0.1875 0.1875 (  2835 PWs)   bands (ev):

   -41.0000 -41.0000 -40.9993 -14.9299  -7.1094  -6.4623  -6.4370  -0.1442
    -0.0478   0.0344   5.5216   5.7716   6.4535   6.6379   6.6822   7.2540
     8.2692   8.7530   8.9736   9.1625   9.2656   9.5098   9.6158  11.1021
    15.9108  16.1366

     occupation numbers 
     1.0000   1.0000   1.0000   1.0000   1.0000   1.0000   1.0000   1.0000
     1.0000   1.0000   1.0000   1.0000   1.0000   1.0000   1.0000   1.0000
     1.0000   1.0000   1.0000   1.0000   1.0000   1.0000   1.0000   0.0000
     0.0000   0.0000

          k = 0.0000 0.1875 0.2500 (  2827 PWs)   bands (ev):

   -41.0004 -40.9999 -40.9993 -14.9171  -7.0937  -6.4579  -6.4245  -0.1434
    -0.0232   0.0502   5.0933   5.6670   6.2556   6.5241   6.5966   7.2678
     8.2089   8.7325   8.9550   9.3093   9.3474   9.6157   9.6907  11.5021
    16.1635  16.5062

     occupation numbers 
     1.0000   1.0000   1.0000   1.0000   1.0000   1.0000   1.0000   1.0000
     1.0000   1.0000   1.0000   1.0000   1.0000   1.0000   1.0000   1.0000
     1.0000   1.0000   1.0000   1.0000   1.0000   1.0000   1.0000   0.0000
     0.0000   0.0000

          k = 0.0000 0.1875 0.3125 (  2824 PWs)   bands (ev):

   -41.0007 -40.9999 -40.9993 -14.9043  -7.0877  -6.4471  -6.4066  -0.1296
     0.0018   0.0526   4.6560   5.6443   6.0801   6.4076   6.5308   7.2774
     8.1906   8.6695   8.8712   9.2823   9.5327   9.7814   9.7834  11.8476
    16.4429  16.9062

     occupation numbers 
     1.0000   1.0000   1.0000   1.0000   1.0000   1.0000   1.0000   1.0000
     1.0000   1.0000   1.0000   1.0000   1.0000   1.0000   1.0000   1.0000
     1.0000   1.0000   1.0000   1.0000   1.0000   1.0000   1.0000   0.0000
     0.0000   0.0000

          k = 0.0000 0.1875 0.3750 (  2838 PWs)   bands (ev):

   -41.0010 -40.9999 -40.9992 -14.8934  -7.0900  -6.4364  -6.3836  -0.1060
     0.0233   0.0424   4.3147   5.6373   5.9393   6.3181   6.4748   7.2840
     8.2133   8.5806   8.7905   9.2491   9.6344   9.8998   9.9315  12.1049
    16.7109  17.2850

     occupation numbers 
     1.0000   1.0000   1.0000   1.0000   1.0000   1.0000   1.0000   1.0000
     1.0000   1.0000   1.0000   1.0000   1.0000   1.0000   1.0000   1.0000
     1.0000   1.0000   1.0000   1.0000   1.0000   1.0000   1.0000   0.0000
     0.0000   0.0000

          k = 0.0000 0.1875 0.4375 (  2838 PWs)   bands (ev):

   -41.0013 -40.9999 -40.9992 -14.8861  -7.0950  -6.4297  -6.3633  -0.0795
     0.0246   0.0378   4.0993   5.6411   5.8434   6.2626   6.4367   7.2879
     8.2693   8.4817   8.7350   9.2260   9.6749  10.0001  10.0299  12.2613
    16.9148  17.5750

     occupation numbers 
     1.0000   1.0000   1.0000   1.0000   1.0000   1.0000   1.0000   1.0000
     1.0000   1.0000   1.0000   1.0000   1.0000   1.0000   1.0000   1.0000
     1.0000   1.0000   1.0000   1.0000   1.0000   1.0000   1.0000   0.0000
     0.0000   0.0000

          k = 0.0000 0.1875-0.5000 (  2836 PWs)   bands (ev):

   -41.0013 -40.9999 -40.9992 -14.8835  -7.0974  -6.4275  -6.3552  -0.0654
     0.0135   0.0429   4.0257   5.6461   5.8071   6.2439   6.4232   7.2892
     8.3217   8.4144   8.7155   9.2180   9.6857  10.0377  10.0641  12.3135
    16.9935  17.6889

     occupation numbers 
     1.0000   1.0000   1.0000   1.0000   1.0000   1.0000   1.0000   1.0000
     1.0000   1.0000   1.0000   1.0000   1.0000   1.0000   1.0000   1.0000
     1.0000   1.0000   1.0000   1.0000   1.0000   1.0000   1.0049   0.0000
     0.0000   0.0000

          k = 0.0000 0.2500 0.2500 (  2824 PWs)   bands (ev):

   -41.0003 -41.0003 -40.9993 -14.9051  -7.0602  -6.4617  -6.4151  -0.1568
     0.0026   0.0492   4.9807   5.2555   6.0365   6.4540   6.4618   7.2854
     8.1928   8.7687   9.1522   9.3829   9.4752   9.5991   9.7485  11.9152
    16.3782  16.8873

     occupation numbers 
     1.0000   1.0000   1.0000   1.0000   1.0000   1.0000   1.0000   1.0000
     1.0000   1.0000   1.0000   1.0000   1.0000   1.0000   1.0000   1.0000
     1.0000   1.0000   1.0000   1.0000   1.0000   1.0000   1.0000   0.0000
     0.0000   0.0000

          k = 0.0000 0.2500 0.3125 (  2835 PWs)   bands (ev):

   -41.0007 -41.0003 -40.9992 -14.8930  -7.0352  -6.4562  -6.4044  -0.1558
     0.0288   0.0338   4.6291   5.1519   5.8453   6.3368   6.3919   7.2975
     8.2230   8.7541   9.1505   9.4829   9.5596   9.7326   9.8050  12.2811
    16.6239  17.3014

     occupation numbers 
     1.0000   1.0000   1.0000   1.0000   1.0000   1.0000   1.0000   1.0000
     1.0000   1.0000   1.0000   1.0000   1.0000   1.0000   1.0000   1.0000
     1.0000   1.0000   1.0000   1.0000   1.0000   1.0000   1.0000   0.0000
     0.0000   0.0000

          k = 0.0000 0.2500 0.3750 (  2824 PWs)   bands (ev):

   -41.0010 -41.0003 -40.9992 -14.8826  -7.0216  -6.4431  -6.3942  -0.1412
     0.0071   0.0513   4.2992   5.1344   5.6957   6.2465   6.3332   7.3057
     8.2915   8.6962   9.0920   9.4502   9.7321   9.8615   9.8810  12.5581
    16.8735  17.6872

     occupation numbers 
     1.0000   1.0000   1.0000   1.0000   1.0000   1.0000   1.0000   1.0000
     1.0000   1.0000   1.0000   1.0000   1.0000   1.0000   1.0000   1.0000
     1.0000   1.0000   1.0000   1.0000   1.0000   1.0000   1.0000   0.0000
     0.0000   0.0000

          k = 0.0000 0.2500 0.4375 (  2825 PWs)   bands (ev):

   -41.0012 -41.0002 -40.9992 -14.8756  -7.0167  -6.4304  -6.3864  -0.1176
    -0.0245   0.0666   4.0865   5.1313   5.5993   6.1906   6.2933   7.3104
     8.3867   8.6072   9.0458   9.4270   9.8100   9.9347   9.9801  12.7278
    17.0801  17.9203

     occupation numbers 
     1.0000   1.0000   1.0000   1.0000   1.0000   1.0000   1.0000   1.0000
     1.0000   1.0000   1.0000   1.0000   1.0000   1.0000   1.0000   1.0000
     1.0000   1.0000   1.0000   1.0000   1.0000   1.0000   1.0000   0.0000
     0.0000   0.0000

          k = 0.0000 0.2500-0.5000 (  2840 PWs)   bands (ev):

   -41.0013 -41.0002 -40.9992 -14.8732  -7.0158  -6.4253  -6.3833  -0.1010
    -0.0439   0.0720   4.0134   5.1314   5.5656   6.1717   6.2790   7.3119
     8.4782   8.5177   9.0289   9.4189   9.8263   9.9706  10.0146  12.7846
    17.1669  18.1108

     occupation numbers 
     1.0000   1.0000   1.0000   1.0000   1.0000   1.0000   1.0000   1.0000
     1.0000   1.0000   1.0000   1.0000   1.0000   1.0000   1.0000   1.0000
     1.0000   1.0000   1.0000   1.0000   1.0000   1.0000   1.0000   0.0000
     0.0000   0.0000

          k = 0.0000 0.3125 0.3125 (  2846 PWs)   bands (ev):

   -41.0007 -41.0007 -40.9992 -14.8815  -6.9873  -6.4605  -6.4004  -0.1684
     0.0026   0.0562   4.5284   4.7978   5.6443   6.2562   6.2811   7.3115
     8.2979   8.7944   9.3420   9.5813   9.6543   9.7035   9.8512  12.6756
    16.8317  17.7447

     occupation numbers 
     1.0000   1.0000   1.0000   1.0000   1.0000   1.0000   1.0000   1.0000
     1.0000   1.0000   1.0000   1.0000   1.0000   1.0000   1.0000   1.0000
     1.0000   1.0000   1.0000   1.0000   1.0000   1.0000   1.0000   0.0000
     0.0000   0.0000

          k = 0.0000 0.3125 0.3750 (  2833 PWs)   bands (ev):

   -41.0010 -41.0006 -40.9992 -14.8717  -6.9524  -6.4542  -6.3996  -0.1662
    -0.0358   0.0799   4.2722   4.7043   5.4901   6.1726   6.2122   7.3207
     8.4020   8.7839   9.3555   9.6404   9.7234   9.8341   9.8865  12.9801
    17.0502  17.7805

     occupation numbers 
     1.0000   1.0000   1.0000   1.0000   1.0000   1.0000   1.0000   1.0000
     1.0000   1.0000   1.0000   1.0000   1.0000   1.0000   1.0000   1.0000
     1.0000   1.0000   1.0000   1.0000   1.0000   1.0000   1.0000   0.0000
     0.0000   0.0000

          k = 0.0000 0.3125 0.4375 (  2829 PWs)   bands (ev):

   -41.0012 -41.0006 -40.9992 -14.8652  -6.9330  -6.4395  -6.4047  -0.1507
    -0.0750   0.0959   4.0700   4.6875   5.3928   6.1175   6.1692   7.3260
     8.5194   8.7267   9.3262   9.6174   9.8504   9.9066   9.9338  13.1690
    17.2516  17.7143

     occupation numbers 
     1.0000   1.0000   1.0000   1.0000   1.0000   1.0000   1.0000   1.0000
     1.0000   1.0000   1.0000   1.0000   1.0000   1.0000   1.0000   1.0000
     1.0000   1.0000   1.0000   1.0000   1.0000   1.0000   1.0000   0.0000
     0.0000   0.0000

          k = 0.0000 0.3125-0.5000 (  2824 PWs)   bands (ev):

   -41.0013 -41.0006 -40.9992 -14.8629  -6.9271  -6.4283  -6.4115  -0.1345
    -0.0993   0.1016   3.9987   4.6842   5.3595   6.0987   6.1541   7.3278
     8.6268   8.6401   9.3134   9.6093   9.9013   9.9085   9.9686  13.2327
    17.3568  17.6565

[...]
     9.3585   9.4157   9.8142  10.2598  10.3333  10.3505  12.5216  14.0001
    17.1502  17.6708

     occupation numbers 
     1.0000   1.0000   1.0000   1.0000   1.0000   1.0000   1.0000   1.0000
     1.0000   1.0000   1.0000   1.0000   1.0000   1.0000   1.0000   1.0000
     1.0000   1.0000   1.0000   1.0059   0.0000   0.0000   0.0000   0.0000
     0.0000   0.0000

          k = 0.2510 0.4392-0.5020 (  2840 PWs)   bands (ev):

   -40.8459 -40.8458 -40.8448 -14.6044  -6.4438  -6.2541  -6.2493  -0.2384
    -0.2189  -0.0587   4.0428   4.2704   5.4802   5.6827   6.1118   6.1256
     9.3917   9.4185   9.8425  10.3008  10.3299  10.3759  12.5302  14.0817
    17.0950  17.6769

     occupation numbers 
     1.0000   1.0000   1.0000   1.0000   1.0000   1.0000   1.0000   1.0000
     1.0000   1.0000   1.0000   1.0000   1.0000   1.0000   1.0000   1.0000
     1.0000   1.0000   1.0000   0.2001   0.0000   0.0000   0.0000   0.0000
     0.0000   0.0000

          k = 0.2510-0.5020-0.5020 (  2856 PWs)   bands (ev):

   -40.8459 -40.8459 -40.8447 -14.6024  -6.4177  -6.2551  -6.2551  -0.2332
    -0.2332  -0.0901   4.0137   4.2243   5.4831   5.6845   6.1055   6.1055
     9.4251   9.4251   9.8744  10.3387  10.3637  10.3637  12.5398  14.1644
    17.0327  17.6737

     occupation numbers 
     1.0000   1.0000   1.0000   1.0000   1.0000   1.0000   1.0000   1.0000
     1.0000   1.0000   1.0000   1.0000   1.0000   1.0000   1.0000   1.0000
     1.0000   1.0000   1.0000   0.0000   0.0000   0.0000   0.0000   0.0000
     0.0000   0.0000

          k = 0.3137 0.3137 0.3137 (  2818 PWs)   bands (ev):

   -40.8452 -40.8452 -40.8452 -14.6258  -6.6083  -6.2570  -6.2570  -0.1823
    -0.1823   0.1841   4.6310   4.6310   5.2149   5.8896   6.1955   6.1955
     9.2837   9.2837   9.5893   9.9515  10.1870  10.1870  12.8794  12.8794
    17.5446  17.5623

     occupation numbers 
     1.0000   1.0000   1.0000   1.0000   1.0000   1.0000   1.0000   1.0000
     1.0000   1.0000   1.0000   1.0000   1.0000   1.0000   1.0000   1.0000
     1.0000   1.0000   1.0000   1.0000   1.0000   1.0000   0.0000   0.0000
     0.0000   0.0000

          k = 0.3137 0.3137 0.3765 (  2831 PWs)   bands (ev):

   -40.8456 -40.8452 -40.8452 -14.6170  -6.5521  -6.2515  -6.2423  -0.2336
    -0.2064   0.0968   4.3613   4.6284   5.1648   5.8213   6.1603   6.1845
     9.2990   9.4172   9.6281  10.0776  10.2358  10.3035  12.8651  13.3001
    17.4680  17.4920

     occupation numbers 
     1.0000   1.0000   1.0000   1.0000   1.0000   1.0000   1.0000   1.0000
     1.0000   1.0000   1.0000   1.0000   1.0000   1.0000   1.0000   1.0000
     1.0000   1.0000   1.0000   1.0000   1.0000   0.1202   0.0000   0.0000
     0.0000   0.0000

          k = 0.3137 0.3137 0.4392 (  2841 PWs)   bands (ev):

   -40.8458 -40.8452 -40.8452 -14.6111  -6.5168  -6.2448  -6.2325  -0.2677
    -0.2049   0.0219   4.1627   4.6268   5.1640   5.7658   6.1382   6.1920
     9.3143   9.4972   9.6367  10.1806  10.2539  10.3941  12.8541  13.5608
    17.4370  17.4493

     occupation numbers 
     1.0000   1.0000   1.0000   1.0000   1.0000   1.0000   1.0000   1.0000
     1.0000   1.0000   1.0000   1.0000   1.0000   1.0000   1.0000   1.0000
     1.0000   1.0000   1.0000   1.0000   1.0009   0.0000   0.0000   0.0000
     0.0000   0.0000

          k = 0.3137 0.3137-0.5020 (  2848 PWs)   bands (ev):

   -40.8459 -40.8452 -40.8452 -14.6090  -6.5051  -6.2416  -6.2290  -0.2796
    -0.1980  -0.0106   4.0921   4.6262   5.1676   5.7445   6.1306   6.1966
     9.3211   9.5241   9.6361  10.2354  10.2418  10.4281  12.8498  13.6488
    17.4332  17.4351

     occupation numbers 
     1.0000   1.0000   1.0000   1.0000   1.0000   1.0000   1.0000   1.0000
     1.0000   1.0000   1.0000   1.0000   1.0000   1.0000   1.0000   1.0000
     1.0000   1.0000   1.0000   1.0000   1.0000   0.0000   0.0000   0.0000
     0.0000   0.0000

          k = 0.3137 0.3765 0.3765 (  2836 PWs)   bands (ev):

   -40.8456 -40.8456 -40.8452 -14.6086  -6.4850  -6.2443  -6.2324  -0.2755
    -0.2598  -0.0010   4.2941   4.4510   5.0698   5.8172   6.1397   6.1465
     9.4049   9.4903   9.7015  10.1914  10.3344  10.3592  13.0596  13.5390
    17.2873  17.3941

     occupation numbers 
     1.0000   1.0000   1.0000   1.0000   1.0000   1.0000   1.0000   1.0000
     1.0000   1.0000   1.0000   1.0000   1.0000   1.0000   1.0000   1.0000
     1.0000   1.0000   1.0000   1.0000   0.0000   0.0000   0.0000   0.0000
     0.0000   0.0000

          k = 0.3137 0.3765 0.4392 (  2848 PWs)   bands (ev):

   -40.8458 -40.8455 -40.8452 -14.6029  -6.4397  -6.2392  -6.2255  -0.3101
    -0.2711  -0.0821   4.1429   4.4087   5.0487   5.8050   6.1196   6.1424
     9.4501   9.5524   9.7470  10.2858  10.3624  10.4313  13.0897  13.7787
    17.1628  17.3351

     occupation numbers 
     1.0000   1.0000   1.0000   1.0000   1.0000   1.0000   1.0000   1.0000
     1.0000   1.0000   1.0000   1.0000   1.0000   1.0000   1.0000   1.0000
     1.0000   1.0000   1.0000   0.9231   0.0000   0.0000   0.0000   0.0000
     0.0000   0.0000

          k = 0.3137 0.3765-0.5020 (  2842 PWs)   bands (ev):

   -40.8459 -40.8455 -40.8452 -14.6009  -6.4238  -6.2367  -6.2235  -0.3234
    -0.2670  -0.1172   4.0784   4.4033   5.0456   5.7986   6.1126   6.1436
     9.4636   9.5747   9.7621  10.3332  10.3565  10.4611  13.0934  13.8663
    17.1200  17.3215

     occupation numbers 
     1.0000   1.0000   1.0000   1.0000   1.0000   1.0000   1.0000   1.0000
     1.0000   1.0000   1.0000   1.0000   1.0000   1.0000   1.0000   1.0000
     1.0000   1.0000   1.0000   0.0000   0.0000   0.0000   0.0000   0.0000
     0.0000   0.0000

          k = 0.3137 0.4392 0.4392 (  2840 PWs)   bands (ev):

   -40.8458 -40.8458 -40.8452 -14.5974  -6.3829  -6.2355  -6.2249  -0.3255
    -0.3104  -0.1669   4.0859   4.2724   5.0196   5.8268   6.1078   6.1151
     9.5373   9.5784   9.8267  10.3707  10.4349  10.4540  13.1572  13.9970
    16.9826  17.2622

     occupation numbers 
     1.0000   1.0000   1.0000   1.0000   1.0000   1.0000   1.0000   1.0000
     1.0000   1.0000   1.0000   1.0000   1.0000   1.0000   1.0000   1.0000
     1.0000   1.0000   1.0000   0.0000   0.0000   0.0000   0.0000   0.0000
     0.0000   0.0000

          k = 0.3137 0.4392-0.5020 (  2846 PWs)   bands (ev):

   -40.8458 -40.8458 -40.8451 -14.5955  -6.3610  -6.2334  -6.2272  -0.3345
    -0.3122  -0.2045   4.0439   4.2444   5.0140   5.8332   6.1012   6.1093
     9.5623   9.5922   9.8537  10.4112  10.4393  10.4751  13.1704  14.0812
    16.9208  17.2431

     occupation numbers 
     1.0000   1.0000   1.0000   1.0000   1.0000   1.0000   1.0000   1.0000
     1.0000   1.0000   1.0000   1.0000   1.0000   1.0000   1.0000   1.0000
     1.0000   1.0000   1.0000   0.0000   0.0000   0.0000   0.0000   0.0000
     0.0000   0.0000

          k = 0.3137-0.5020-0.5020 (  2844 PWs)   bands (ev):

   -40.8458 -40.8458 -40.8451 -14.5936  -6.3348  -6.2323  -6.2323  -0.3280
    -0.3280  -0.2453   4.0155   4.2024   5.0076   5.8450   6.0974   6.0974
     9.5976   9.5976   9.8846  10.4519  10.4688  10.4688  13.1867  14.1649
    16.8527  17.2146

     occupation numbers 
     1.0000   1.0000   1.0000   1.0000   1.0000   1.0000   1.0000   1.0000
     1.0000   1.0000   1.0000   1.0000   1.0000   1.0000   1.0000   1.0000
     1.0000   1.0000   1.0000   0.0000   0.0000   0.0000   0.0000   0.0000
     0.0000   0.0000

          k = 0.3765 0.3765 0.3765 (  2839 PWs)   bands (ev):

   -40.8455 -40.8455 -40.8455 -14.6004  -6.4140  -6.2270  -6.2270  -0.3258
    -0.3258  -0.1100   4.2936   4.2936   4.8723   5.8670   6.1180   6.1180
     9.5620   9.5620   9.7506  10.3022  10.4269  10.4269  13.5291  13.5291
    17.1403  17.2107

     occupation numbers 
     1.0000   1.0000   1.0000   1.0000   1.0000   1.0000   1.0000   1.0000
     1.0000   1.0000   1.0000   1.0000   1.0000   1.0000   1.0000   1.0000
     1.0000   1.0000   1.0000   0.1537   0.0000   0.0000   0.0000   0.0000
     0.0000   0.0000

          k = 0.3765 0.3765 0.4392 (  2838 PWs)   bands (ev):

   -40.8458 -40.8455 -40.8455 -14.5950  -6.3645  -6.2245  -6.2154  -0.3696
    -0.3428  -0.1970   4.1333   4.2934   4.8085   5.8886   6.1036   6.1127
     9.6003   9.6648   9.7879  10.3916  10.4600  10.4966  13.5212  13.8271
    17.0145  17.0511

     occupation numbers 
     1.0000   1.0000   1.0000   1.0000   1.0000   1.0000   1.0000   1.0000
     1.0000   1.0000   1.0000   1.0000   1.0000   1.0000   1.0000   1.0000
     1.0000   1.0000   1.0000   0.0000   0.0000   0.0000   0.0000   0.0000
     0.0000   0.0000

          k = 0.3765 0.3765-0.5020 (  2846 PWs)   bands (ev):

   -40.8458 -40.8455 -40.8455 -14.5931  -6.3465  -6.2241  -6.2113  -0.3848
    -0.3411  -0.2348   4.0706   4.2934   4.7949   5.8928   6.0985   6.1142
     9.6126   9.7005   9.8009  10.4334  10.4617  10.5229  13.5181  13.9292
    16.9706  16.9962

     occupation numbers 
     1.0000   1.0000   1.0000   1.0000   1.0000   1.0000   1.0000   1.0000
     1.0000   1.0000   1.0000   1.0000   1.0000   1.0000   1.0000   1.0000
     1.0000   1.0000   1.0000   0.0000   0.0000   0.0000   0.0000   0.0000
     0.0000   0.0000

          k = 0.3765 0.4392 0.4392 (  2860 PWs)   bands (ev):

   -40.8457 -40.8457 -40.8455 -14.5898  -6.3094  -6.2165  -6.2106  -0.3981
    -0.3860  -0.2861   4.0869   4.1951   4.7241   5.9371   6.0949   6.0962
     9.6952   9.7186   9.8411  10.4745  10.5243  10.5372  13.6618  13.9934
    16.8334  16.9367

     occupation numbers 
     1.0000   1.0000   1.0000   1.0000   1.0000   1.0000   1.0000   1.0000
     1.0000   1.0000   1.0000   1.0000   1.0000   1.0000   1.0000   1.0000
     1.0000   1.0000   1.0000   0.0000   0.0000   0.0000   0.0000   0.0000
     0.0000   0.0000

          k = 0.3765 0.4392-0.5020 (  2854 PWs)   bands (ev):

   -40.8458 -40.8457 -40.8455 -14.5879  -6.2877  -6.2157  -6.2090  -0.4104
    -0.3899  -0.3258   4.0439   4.1784   4.7056   5.9514   6.0900   6.0946
     9.7162   9.7446   9.8647  10.5124  10.5338  10.5577  13.6782  14.0829
    16.7668  16.8878

     occupation numbers 
     1.0000   1.0000   1.0000   1.0000   1.0000   1.0000   1.0000   1.0000
     1.0000   1.0000   1.0000   1.0000   1.0000   1.0000   1.0000   1.0000
     1.0000   1.0000   1.0000   0.0000   0.0000   0.0000   0.0000   0.0000
     0.0000   0.0000

          k = 0.3765-0.5020-0.5020 (  2860 PWs)   bands (ev):

   -40.8458 -40.8458 -40.8455 -14.5861  -6.2622  -6.2127  -6.2127  -0.4069
    -0.4069  -0.3697   4.0170   4.1462   4.6862   5.9708   6.0876   6.0876
     9.7533   9.7533   9.8933  10.5517  10.5597  10.5597  13.7044  14.1654
    16.6934  16.8517

     occupation numbers 
     1.0000   1.0000   1.0000   1.0000   1.0000   1.0000   1.0000   1.0000
     1.0000   1.0000   1.0000   1.0000   1.0000   1.0000   1.0000   1.0000
     1.0000   1.0000   1.0000   0.0000   0.0000   0.0000   0.0000   0.0000
     0.0000   0.0000

          k = 0.4392 0.4392 0.4392 (  2854 PWs)   bands (ev):

   -40.8457 -40.8457 -40.8457 -14.5846  -6.2564  -6.2036  -6.2036  -0.4360
    -0.4360  -0.3729   4.0876   4.0876   4.5982   6.0048   6.0855   6.0855
     9.8037   9.8037   9.8616  10.5528  10.5872  10.5872  13.9904  13.9904
    16.7149  16.7398

     occupation numbers 
     1.0000   1.0000   1.0000   1.0000   1.0000   1.0000   1.0000   1.0000
     1.0000   1.0000   1.0000   1.0000   1.0000   1.0000   1.0000   1.0000
     1.0000   1.0000   1.0000   0.0000   0.0000   0.0000   0.0000   0.0000
     0.0000   0.0000

          k = 0.4392 0.4392-0.5020 (  2838 PWs)   bands (ev):

   -40.8458 -40.8457 -40.8457 -14.5828  -6.2350  -6.2037  -6.1991  -0.4534
    -0.4411  -0.4109   4.0378   4.0878   4.5686   6.0257   6.0820   6.0839
     9.8237   9.8424   9.8791  10.5869  10.5989  10.6101  13.9892  14.1051
    16.6504  16.6654

     occupation numbers 
     1.0000   1.0000   1.0000   1.0000   1.0000   1.0000   1.0000   1.0000
     1.0000   1.0000   1.0000   1.0000   1.0000   1.0000   1.0000   1.0000
     1.0000   1.0000   1.0000   0.0000   0.0000   0.0000   0.0000   0.0000
     0.0000   0.0000

          k = 0.4392-0.5020-0.5020 (  2852 PWs)   bands (ev):

   -40.8458 -40.8458 -40.8457 -14.5810  -6.2125  -6.1994  -6.1994  -0.4590
    -0.4590  -0.4496   4.0180   4.0611   4.5356   6.0500   6.0799   6.0799
     9.8622   9.8622   9.8991  10.6203  10.6222  10.6222  14.0455  14.1656
    16.5787  16.6171

     occupation numbers 
     1.0000   1.0000   1.0000   1.0000   1.0000   1.0000   1.0000   1.0000
     1.0000   1.0000   1.0000   1.0000   1.0000   1.0000   1.0000   1.0000
     1.0000   1.0000   1.0000   0.0000   0.0000   0.0000   0.0000   0.0000
     0.0000   0.0000

          k =-0.5020-0.5020-0.5020 (  2872 PWs)   bands (ev):

   -40.8458 -40.8458 -40.8458 -14.5793  -6.1947  -6.1947  -6.1947  -0.4771
    -0.4771  -0.4771   4.0183   4.0183   4.4981   6.0770   6.0770   6.0770
     9.9012   9.9012   9.9012  10.6447  10.6447  10.6447  14.1657  14.1657
    16.5356  16.5356

     occupation numbers 
     1.0000   1.0000   1.0000   1.0000   1.0000   1.0000   1.0000   1.0000
     1.0000   1.0000   1.0000   1.0000   1.0000   1.0000   1.0000   1.0000
     1.0000   1.0000   1.0000   0.0000   0.0000   0.0000   0.0000   0.0000
     0.0000   0.0000

     the Fermi energy is    10.2961 ev

!    total energy              =    -365.90566853 Ry
     Harris-Foulkes estimate   =    -365.90566853 Ry
     estimated scf accuracy    <          1.0E-11 Ry

     The total energy is the sum of the following terms:

     one-electron contribution =    -122.88160917 Ry
     hartree contribution      =      90.52274729 Ry
     xc contribution           =     -80.80482345 Ry
     ewald contribution        =    -252.74197161 Ry
     smearing contrib. (-TS)   =      -0.00001159 Ry

     convergence has been achieved in  11 iterations

     negative rho (up, down):  1.684E-01 0.000E+00

     Forces acting on atoms (cartesian axes, Ry/au):

     atom    1 type  1   force =     0.00000000    0.00000000    0.00000000
     atom    2 type  3   force =     0.00000000    0.00000000    0.00000000
     atom    3 type  2   force =     0.00000000    0.00000000    0.00000000
     atom    4 type  2   force =     0.00000000    0.00000000    0.00000000
     atom    5 type  2   force =     0.00000000    0.00000000    0.00000000
     The non-local contrib.  to forces
     atom    1 type  1   force =     0.00000000    0.00000000    0.00000000
     atom    2 type  3   force =     0.00000000    0.00000000    0.00000000
     atom    3 type  2   force =     0.00000000    0.00000000    0.00000000
     atom    4 type  2   force =     0.00000000    0.00000000    0.00000000
     atom    5 type  2   force =     0.00000000    0.00000000    0.00000000
     The ionic contribution  to forces
     atom    1 type  1   force =    -0.00000000   -0.00000000   -0.00000000
     atom    2 type  3   force =     0.00000000    0.00000000    0.00000000
     atom    3 type  2   force =     0.00000000    0.00000000   -0.00000000
     atom    4 type  2   force =     0.00000000   -0.00000000    0.00000000
     atom    5 type  2   force =    -0.00000000    0.00000000    0.00000000
     The local contribution  to forces
     atom    1 type  1   force =     0.00000000    0.00000000    0.00000000
     atom    2 type  3   force =     0.00000000    0.00000000    0.00000000
     atom    3 type  2   force =     0.00000000    0.00000000   -0.00000000
     atom    4 type  2   force =     0.00000000   -0.00000000    0.00000000
     atom    5 type  2   force =    -0.00000000    0.00000000    0.00000000
     The core correction contribution to forces
     atom    1 type  1   force =     0.00000000    0.00000000   -0.00000000
     atom    2 type  3   force =    -0.00000000   -0.00000000   -0.00000000
     atom    3 type  2   force =     0.00000000    0.00000000   -0.00000000
     atom    4 type  2   force =     0.00000000   -0.00000000    0.00000000
     atom    5 type  2   force =    -0.00000000    0.00000000    0.00000000
     The Hubbard contrib.    to forces
     atom    1 type  1   force =     0.00000000    0.00000000    0.00000000
     atom    2 type  3   force =     0.00000000    0.00000000    0.00000000
     atom    3 type  2   force =     0.00000000    0.00000000    0.00000000
     atom    4 type  2   force =     0.00000000    0.00000000    0.00000000
     atom    5 type  2   force =     0.00000000    0.00000000    0.00000000
     The SCF correction term to forces
     atom    1 type  1   force =     0.00000000    0.00000000    0.00000000
     atom    2 type  3   force =     0.00000000    0.00000000    0.00000000
     atom    3 type  2   force =     0.00000000    0.00000000   -0.00000000
     atom    4 type  2   force =    -0.00000000   -0.00000000    0.00000000
     atom    5 type  2   force =    -0.00000000   -0.00000000    0.00000000

     Total force =     0.000000     Total SCF correction =     0.000000


     Computing stress (Cartesian axis) and pressure


     negative rho (up, down):  1.684E-01 0.000E+00
          total   stress  (Ry/bohr**3)                   (kbar)     P=   -0.05
  -0.00000031   0.00000000   0.00000000         -0.05      0.00      0.00
   0.00000000  -0.00000031   0.00000000          0.00     -0.05      0.00
   0.00000000   0.00000000  -0.00000031          0.00      0.00     -0.05

     kinetic stress (kbar)  24406.85      0.00      0.00
                                0.00  24406.85      0.00
                                0.00      0.00  24406.85

     local   stress (kbar)   3905.21      0.00     -0.00
                                0.00   3905.21      0.00
                               -0.00      0.00   3905.21

     nonloc. stress (kbar)  -5192.50      0.00      0.00
                                0.00  -5192.50      0.00
                                0.00      0.00  -5192.50

     hartree stress (kbar)   9460.81     -0.00      0.00
                               -0.00   9460.81      0.00
                                0.00      0.00   9460.81

     exc-cor stress (kbar)   3849.29     -0.00     -0.00
                               -0.00   3849.29      0.00
                               -0.00      0.00   3849.29

     corecor stress (kbar) -10014.88      0.00      0.00
                                0.00 -10014.88      0.00
                                0.00      0.00 -10014.88

     ewald   stress (kbar) -26414.83      0.00     -0.00
                                0.00 -26414.83      0.00
                               -0.00      0.00 -26414.83

     hubbard stress (kbar)      0.00      0.00      0.00
                                0.00      0.00      0.00
                                0.00      0.00      0.00

     london  stress (kbar)      0.00      0.00      0.00
                                0.00      0.00      0.00
                                0.00      0.00      0.00

     DFT-D3  stress (kbar)      0.00      0.00      0.00
                                0.00      0.00      0.00
                                0.00      0.00      0.00

     XDM     stress (kbar)      0.00      0.00      0.00
                                0.00      0.00      0.00
                                0.00      0.00      0.00

     dft-nl  stress (kbar)      0.00      0.00      0.00
                                0.00      0.00      0.00
                                0.00      0.00      0.00

     TS-vdW  stress (kbar)      0.00      0.00      0.00
                                0.00      0.00      0.00
                                0.00      0.00      0.00



     number of scf cycles    =   4
     number of bfgs steps    =   3

     enthalpy old            =    -390.8373605420 Ry
     enthalpy new            =    -365.9056685271 Ry

     CASE: enthalpy_new > enthalpy_old


 %%%%%%%%%%%%%%%%%%%%%%%%%%%%%%%%%%%%%%%%%%%%%%%%%%%%%%%%%%%%%%%%%%%%%%%%%%%%%%
     Error in routine bfgs (1):
     dE0s is positive which should never happen
 %%%%%%%%%%%%%%%%%%%%%%%%%%%%%%%%%%%%%%%%%%%%%%%%%%%%%%%%%%%%%%%%%%%%%%%%%%%%%%

     stopping ...
