
     Program PWSCF v.6.3MaX starts on 26Mar2019 at  3:23: 1 

     This program is part of the open-source Quantum ESPRESSO suite
     for quantum simulation of materials; please cite
         "P. Giannozzi et al., J. Phys.:Condens. Matter 21 395502 (2009);
         "P. Giannozzi et al., J. Phys.:Condens. Matter 29 465901 (2017);
          URL http://www.quantum-espresso.org", 
     in publications or presentations arising from this work. More details at
     http://www.quantum-espresso.org/quote

     Parallel version (MPI & OpenMP), running on      20 processor cores
     Number of MPI processes:                20
     Threads/MPI process:                     1

     MPI processes distributed on     1 nodes
     R & G space division:  proc/nbgrp/npool/nimage =      20
     Reading input from /home/azadoks/dftman/projects/ABO3 Cubic/PBSJobs/KNO3160_a594f03d05e5/pwscf.in

     Current dimensions of program PWSCF are:
     Max number of different atomic species (ntypx) = 10
     Max number of k-points (npk) =  40000
     Max angular momentum in pseudopotentials (lmaxx) =  3
     Message from routine iosys:
     minimal I/O required, wf_collect reset to FALSE

     Subspace diagonalization in iterative solution of the eigenvalue problem:
     one sub-group per band group will be used
     scalapack distributed-memory algorithm (size of sub-group:  3*  3 procs)

 
     Parallelization info
     --------------------
     sticks:   dense  smooth     PW     G-vecs:    dense   smooth      PW
     Min          52      52     15                 1276     1276     202
     Max          53      53     16                 1281     1281     205
     Sum        1049    1049    305                25533    25533    4067
 


     bravais-lattice index     =            0
     lattice parameter (alat)  =       8.1082  a.u.
     unit-cell volume          =     533.0512 (a.u.)^3
     number of atoms/cell      =            5
     number of atomic types    =            3
     number of electrons       =        32.00
     number of Kohn-Sham states=           20
     kinetic-energy cutoff     =      50.0000  Ry
     charge density cutoff     =     200.0000  Ry
     convergence threshold     =      1.0E-08
     mixing beta               =       0.7000
     number of iterations used =            8  plain     mixing
     Exchange-correlation      = SLA  PW   PBE  PBE ( 1  4  3  4 0 0)
     nstep                     =           50


     celldm(1)=   8.108172  celldm(2)=   0.000000  celldm(3)=   0.000000
     celldm(4)=   0.000000  celldm(5)=   0.000000  celldm(6)=   0.000000

     crystal axes: (cart. coord. in units of alat)
               a(1) = (   1.000000   0.000000   0.000000 )  
               a(2) = (   0.000000   1.000000   0.000000 )  
               a(3) = (   0.000000   0.000000   1.000000 )  

     reciprocal axes: (cart. coord. in units 2 pi/alat)
               b(1) = (  1.000000  0.000000  0.000000 )  
               b(2) = (  0.000000  1.000000  0.000000 )  
               b(3) = (  0.000000  0.000000  1.000000 )  


     PseudoPot. # 1 for K  read from file:
     /home/azadoks/.local/share/pseudo/GBRV_PBE_US/k_pbe_v1.4.uspp.F.UPF
     MD5 check sum: 1ceb858e892f5994eff9464b1c857b4b
     Pseudo is Ultrasoft + core correction, Zval =  9.0
     Generated by new atomic code, or converted to UPF format
     Using radial grid of  841 points,  6 beta functions with: 
                l(1) =   0
                l(2) =   0
                l(3) =   1
                l(4) =   1
                l(5) =   2
                l(6) =   2
     Q(r) pseudized with  6 coefficients,  rinner =    1.500   1.500   1.500
                                                       1.500   1.500

     PseudoPot. # 2 for N  read from file:
     /home/azadoks/.local/share/pseudo/GBRV_PBE_US/n_pbe_v1.2.uspp.F.UPF
     MD5 check sum: 95339753478d7afb44899504a8723017
     Pseudo is Ultrasoft + core correction, Zval =  5.0
     Generated by new atomic code, or converted to UPF format
     Using radial grid of  729 points,  4 beta functions with: 
                l(1) =   0
                l(2) =   0
                l(3) =   1
                l(4) =   1
     Q(r) pseudized with  8 coefficients,  rinner =    0.900   0.900   0.900


     PseudoPot. # 3 for O  read from file:
     /home/azadoks/.local/share/pseudo/GBRV_PBE_US/o_pbe_v1.2.uspp.F.UPF
     MD5 check sum: 734c27235a0248c51dbae37a1fbe46ec
     Pseudo is Ultrasoft + core correction, Zval =  6.0
     Generated by new atomic code, or converted to UPF format
     Using radial grid of  737 points,  5 beta functions with: 
                l(1) =   0
                l(2) =   0
                l(3) =   1
                l(4) =   1
                l(5) =   2
     Q(r) pseudized with  8 coefficients,  rinner =    0.900   0.900   0.900
                                                       0.900   0.900

     atomic species   valence    mass     pseudopotential
        K              9.00    39.09830     K ( 1.00)
        N              5.00    14.00670     N ( 1.00)
        O              6.00    15.99940     O ( 1.00)

     48 Sym. Ops., with inversion, found


                                    s                        frac. trans.

      isym =  1     identity                                     

 cryst.   s( 1) = (     1          0          0      )
                  (     0          1          0      )
                  (     0          0          1      )

 cart.    s( 1) = (  1.0000000  0.0000000  0.0000000 )
                  (  0.0000000  1.0000000  0.0000000 )
                  (  0.0000000  0.0000000  1.0000000 )


      isym =  2     180 deg rotation - cart. axis [0,0,1]        

 cryst.   s( 2) = (    -1          0          0      )
                  (     0         -1          0      )
                  (     0          0          1      )

 cart.    s( 2) = ( -1.0000000  0.0000000  0.0000000 )
                  (  0.0000000 -1.0000000  0.0000000 )
                  (  0.0000000  0.0000000  1.0000000 )


      isym =  3     180 deg rotation - cart. axis [0,1,0]        

 cryst.   s( 3) = (    -1          0          0      )
                  (     0          1          0      )
                  (     0          0         -1      )

 cart.    s( 3) = ( -1.0000000  0.0000000  0.0000000 )
                  (  0.0000000  1.0000000  0.0000000 )
                  (  0.0000000  0.0000000 -1.0000000 )


      isym =  4     180 deg rotation - cart. axis [1,0,0]        

 cryst.   s( 4) = (     1          0          0      )
                  (     0         -1          0      )
                  (     0          0         -1      )

 cart.    s( 4) = (  1.0000000  0.0000000  0.0000000 )
                  (  0.0000000 -1.0000000  0.0000000 )
                  (  0.0000000  0.0000000 -1.0000000 )


      isym =  5     180 deg rotation - cart. axis [1,1,0]        

 cryst.   s( 5) = (     0          1          0      )
                  (     1          0          0      )
                  (     0          0         -1      )

 cart.    s( 5) = (  0.0000000  1.0000000  0.0000000 )
                  (  1.0000000  0.0000000  0.0000000 )
                  (  0.0000000  0.0000000 -1.0000000 )


      isym =  6     180 deg rotation - cart. axis [1,-1,0]       

 cryst.   s( 6) = (     0         -1          0      )
                  (    -1          0          0      )
                  (     0          0         -1      )

 cart.    s( 6) = (  0.0000000 -1.0000000  0.0000000 )
                  ( -1.0000000  0.0000000  0.0000000 )
                  (  0.0000000  0.0000000 -1.0000000 )


      isym =  7      90 deg rotation - cart. axis [0,0,-1]       

 cryst.   s( 7) = (     0         -1          0      )
                  (     1          0          0      )
                  (     0          0          1      )

 cart.    s( 7) = (  0.0000000  1.0000000  0.0000000 )
                  ( -1.0000000  0.0000000  0.0000000 )
                  (  0.0000000  0.0000000  1.0000000 )


      isym =  8      90 deg rotation - cart. axis [0,0,1]        

 cryst.   s( 8) = (     0          1          0      )
                  (    -1          0          0      )
                  (     0          0          1      )

 cart.    s( 8) = (  0.0000000 -1.0000000  0.0000000 )
                  (  1.0000000  0.0000000  0.0000000 )
                  (  0.0000000  0.0000000  1.0000000 )


      isym =  9     180 deg rotation - cart. axis [1,0,1]        

 cryst.   s( 9) = (     0          0          1      )
                  (     0         -1          0      )
                  (     1          0          0      )

 cart.    s( 9) = (  0.0000000  0.0000000  1.0000000 )
                  (  0.0000000 -1.0000000  0.0000000 )
                  (  1.0000000  0.0000000  0.0000000 )


      isym = 10     180 deg rotation - cart. axis [-1,0,1]       

 cryst.   s(10) = (     0          0         -1      )
                  (     0         -1          0      )
                  (    -1          0          0      )

 cart.    s(10) = (  0.0000000  0.0000000 -1.0000000 )
                  (  0.0000000 -1.0000000  0.0000000 )
                  ( -1.0000000  0.0000000  0.0000000 )


      isym = 11      90 deg rotation - cart. axis [0,1,0]        

 cryst.   s(11) = (     0          0         -1      )
                  (     0          1          0      )
                  (     1          0          0      )

 cart.    s(11) = (  0.0000000  0.0000000  1.0000000 )
                  (  0.0000000  1.0000000  0.0000000 )
                  ( -1.0000000  0.0000000  0.0000000 )


      isym = 12      90 deg rotation - cart. axis [0,-1,0]       

 cryst.   s(12) = (     0          0          1      )
                  (     0          1          0      )
                  (    -1          0          0      )

 cart.    s(12) = (  0.0000000  0.0000000 -1.0000000 )
                  (  0.0000000  1.0000000  0.0000000 )
                  (  1.0000000  0.0000000  0.0000000 )


      isym = 13     180 deg rotation - cart. axis [0,1,1]        

 cryst.   s(13) = (    -1          0          0      )
                  (     0          0          1      )
                  (     0          1          0      )

 cart.    s(13) = ( -1.0000000  0.0000000  0.0000000 )
                  (  0.0000000  0.0000000  1.0000000 )
                  (  0.0000000  1.0000000  0.0000000 )


      isym = 14     180 deg rotation - cart. axis [0,1,-1]       

 cryst.   s(14) = (    -1          0          0      )
                  (     0          0         -1      )
                  (     0         -1          0      )

 cart.    s(14) = ( -1.0000000  0.0000000  0.0000000 )
                  (  0.0000000  0.0000000 -1.0000000 )
                  (  0.0000000 -1.0000000  0.0000000 )


      isym = 15      90 deg rotation - cart. axis [-1,0,0]       

 cryst.   s(15) = (     1          0          0      )
                  (     0          0         -1      )
                  (     0          1          0      )

 cart.    s(15) = (  1.0000000  0.0000000  0.0000000 )
                  (  0.0000000  0.0000000  1.0000000 )
                  (  0.0000000 -1.0000000  0.0000000 )


      isym = 16      90 deg rotation - cart. axis [1,0,0]        

 cryst.   s(16) = (     1          0          0      )
                  (     0          0          1      )
                  (     0         -1          0      )

 cart.    s(16) = (  1.0000000  0.0000000  0.0000000 )
                  (  0.0000000  0.0000000 -1.0000000 )
                  (  0.0000000  1.0000000  0.0000000 )


      isym = 17     120 deg rotation - cart. axis [-1,-1,-1]     

 cryst.   s(17) = (     0          0          1      )
                  (     1          0          0      )
                  (     0          1          0      )

 cart.    s(17) = (  0.0000000  1.0000000  0.0000000 )
                  (  0.0000000  0.0000000  1.0000000 )
                  (  1.0000000  0.0000000  0.0000000 )


      isym = 18     120 deg rotation - cart. axis [-1,1,1]       

 cryst.   s(18) = (     0          0         -1      )
                  (    -1          0          0      )
                  (     0          1          0      )

 cart.    s(18) = (  0.0000000 -1.0000000  0.0000000 )
                  (  0.0000000  0.0000000  1.0000000 )
                  ( -1.0000000  0.0000000  0.0000000 )


      isym = 19     120 deg rotation - cart. axis [1,1,-1]       

 cryst.   s(19) = (     0          0         -1      )
                  (     1          0          0      )
                  (     0         -1          0      )

 cart.    s(19) = (  0.0000000  1.0000000  0.0000000 )
                  (  0.0000000  0.0000000 -1.0000000 )
                  ( -1.0000000  0.0000000  0.0000000 )


      isym = 20     120 deg rotation - cart. axis [1,-1,1]       

 cryst.   s(20) = (     0          0          1      )
                  (    -1          0          0      )
                  (     0         -1          0      )

 cart.    s(20) = (  0.0000000 -1.0000000  0.0000000 )
                  (  0.0000000  0.0000000 -1.0000000 )
                  (  1.0000000  0.0000000  0.0000000 )


      isym = 21     120 deg rotation - cart. axis [1,1,1]        

 cryst.   s(21) = (     0          1          0      )
                  (     0          0          1      )
                  (     1          0          0      )

 cart.    s(21) = (  0.0000000  0.0000000  1.0000000 )
                  (  1.0000000  0.0000000  0.0000000 )
                  (  0.0000000  1.0000000  0.0000000 )


      isym = 22     120 deg rotation - cart. axis [-1,1,-1]      

 cryst.   s(22) = (     0         -1          0      )
                  (     0          0         -1      )
                  (     1          0          0      )

 cart.    s(22) = (  0.0000000  0.0000000  1.0000000 )
                  ( -1.0000000  0.0000000  0.0000000 )
                  (  0.0000000 -1.0000000  0.0000000 )


      isym = 23     120 deg rotation - cart. axis [1,-1,-1]      

 cryst.   s(23) = (     0         -1          0      )
                  (     0          0          1      )
                  (    -1          0          0      )

 cart.    s(23) = (  0.0000000  0.0000000 -1.0000000 )
                  ( -1.0000000  0.0000000  0.0000000 )
                  (  0.0000000  1.0000000  0.0000000 )


      isym = 24     120 deg rotation - cart. axis [-1,-1,1]      

 cryst.   s(24) = (     0          1          0      )
                  (     0          0         -1      )
                  (    -1          0          0      )

 cart.    s(24) = (  0.0000000  0.0000000 -1.0000000 )
                  (  1.0000000  0.0000000  0.0000000 )
                  (  0.0000000 -1.0000000  0.0000000 )


      isym = 25     inversion                                    

 cryst.   s(25) = (    -1          0          0      )
                  (     0         -1          0      )
                  (     0          0         -1      )

 cart.    s(25) = ( -1.0000000  0.0000000  0.0000000 )
                  (  0.0000000 -1.0000000  0.0000000 )
                  (  0.0000000  0.0000000 -1.0000000 )


      isym = 26     inv. 180 deg rotation - cart. axis [0,0,1]   

 cryst.   s(26) = (     1          0          0      )
                  (     0          1          0      )
                  (     0          0         -1      )

 cart.    s(26) = (  1.0000000  0.0000000  0.0000000 )
                  (  0.0000000  1.0000000  0.0000000 )
                  (  0.0000000  0.0000000 -1.0000000 )


      isym = 27     inv. 180 deg rotation - cart. axis [0,1,0]   

 cryst.   s(27) = (     1          0          0      )
                  (     0         -1          0      )
                  (     0          0          1      )

 cart.    s(27) = (  1.0000000  0.0000000  0.0000000 )
                  (  0.0000000 -1.0000000  0.0000000 )
                  (  0.0000000  0.0000000  1.0000000 )


      isym = 28     inv. 180 deg rotation - cart. axis [1,0,0]   

 cryst.   s(28) = (    -1          0          0      )
                  (     0          1          0      )
                  (     0          0          1      )

 cart.    s(28) = ( -1.0000000  0.0000000  0.0000000 )
                  (  0.0000000  1.0000000  0.0000000 )
                  (  0.0000000  0.0000000  1.0000000 )


      isym = 29     inv. 180 deg rotation - cart. axis [1,1,0]   

 cryst.   s(29) = (     0         -1          0      )
                  (    -1          0          0      )
                  (     0          0          1      )

 cart.    s(29) = (  0.0000000 -1.0000000  0.0000000 )
                  ( -1.0000000  0.0000000  0.0000000 )
                  (  0.0000000  0.0000000  1.0000000 )


      isym = 30     inv. 180 deg rotation - cart. axis [1,-1,0]  

 cryst.   s(30) = (     0          1          0      )
                  (     1          0          0      )
                  (     0          0          1      )

 cart.    s(30) = (  0.0000000  1.0000000  0.0000000 )
                  (  1.0000000  0.0000000  0.0000000 )
                  (  0.0000000  0.0000000  1.0000000 )


      isym = 31     inv.  90 deg rotation - cart. axis [0,0,-1]  

 cryst.   s(31) = (     0          1          0      )
                  (    -1          0          0      )
                  (     0          0         -1      )

 cart.    s(31) = (  0.0000000 -1.0000000  0.0000000 )
                  (  1.0000000  0.0000000  0.0000000 )
                  (  0.0000000  0.0000000 -1.0000000 )


      isym = 32     inv.  90 deg rotation - cart. axis [0,0,1]   

 cryst.   s(32) = (     0         -1          0      )
                  (     1          0          0      )
                  (     0          0         -1      )

 cart.    s(32) = (  0.0000000  1.0000000  0.0000000 )
                  ( -1.0000000  0.0000000  0.0000000 )
                  (  0.0000000  0.0000000 -1.0000000 )


      isym = 33     inv. 180 deg rotation - cart. axis [1,0,1]   

 cryst.   s(33) = (     0          0         -1      )
                  (     0          1          0      )
                  (    -1          0          0      )

 cart.    s(33) = (  0.0000000  0.0000000 -1.0000000 )
                  (  0.0000000  1.0000000  0.0000000 )
                  ( -1.0000000  0.0000000  0.0000000 )


      isym = 34     inv. 180 deg rotation - cart. axis [-1,0,1]  

 cryst.   s(34) = (     0          0          1      )
                  (     0          1          0      )
                  (     1          0          0      )

 cart.    s(34) = (  0.0000000  0.0000000  1.0000000 )
                  (  0.0000000  1.0000000  0.0000000 )
                  (  1.0000000  0.0000000  0.0000000 )


      isym = 35     inv.  90 deg rotation - cart. axis [0,1,0]   

 cryst.   s(35) = (     0          0          1      )
                  (     0         -1          0      )
                  (    -1          0          0      )

 cart.    s(35) = (  0.0000000  0.0000000 -1.0000000 )
                  (  0.0000000 -1.0000000  0.0000000 )
                  (  1.0000000  0.0000000  0.0000000 )


      isym = 36     inv.  90 deg rotation - cart. axis [0,-1,0]  

 cryst.   s(36) = (     0          0         -1      )
                  (     0         -1          0      )
                  (     1          0          0      )

 cart.    s(36) = (  0.0000000  0.0000000  1.0000000 )
                  (  0.0000000 -1.0000000  0.0000000 )
                  ( -1.0000000  0.0000000  0.0000000 )


      isym = 37     inv. 180 deg rotation - cart. axis [0,1,1]   

 cryst.   s(37) = (     1          0          0      )
                  (     0          0         -1      )
                  (     0         -1          0      )

 cart.    s(37) = (  1.0000000  0.0000000  0.0000000 )
                  (  0.0000000  0.0000000 -1.0000000 )
                  (  0.0000000 -1.0000000  0.0000000 )


      isym = 38     inv. 180 deg rotation - cart. axis [0,1,-1]  

 cryst.   s(38) = (     1          0          0      )
                  (     0          0          1      )
                  (     0          1          0      )

 cart.    s(38) = (  1.0000000  0.0000000  0.0000000 )
                  (  0.0000000  0.0000000  1.0000000 )
                  (  0.0000000  1.0000000  0.0000000 )


      isym = 39     inv.  90 deg rotation - cart. axis [-1,0,0]  

 cryst.   s(39) = (    -1          0          0      )
                  (     0          0          1      )
                  (     0         -1          0      )

 cart.    s(39) = ( -1.0000000  0.0000000  0.0000000 )
                  (  0.0000000  0.0000000 -1.0000000 )
                  (  0.0000000  1.0000000  0.0000000 )


      isym = 40     inv.  90 deg rotation - cart. axis [1,0,0]   

 cryst.   s(40) = (    -1          0          0      )
                  (     0          0         -1      )
                  (     0          1          0      )

 cart.    s(40) = ( -1.0000000  0.0000000  0.0000000 )
                  (  0.0000000  0.0000000  1.0000000 )
                  (  0.0000000 -1.0000000  0.0000000 )


      isym = 41     inv. 120 deg rotation - cart. axis [-1,-1,-1]

 cryst.   s(41) = (     0          0         -1      )
                  (    -1          0          0      )
                  (     0         -1          0      )

 cart.    s(41) = (  0.0000000 -1.0000000  0.0000000 )
                  (  0.0000000  0.0000000 -1.0000000 )
                  ( -1.0000000  0.0000000  0.0000000 )


      isym = 42     inv. 120 deg rotation - cart. axis [-1,1,1]  

 cryst.   s(42) = (     0          0          1      )
                  (     1          0          0      )
                  (     0         -1          0      )

 cart.    s(42) = (  0.0000000  1.0000000  0.0000000 )
                  (  0.0000000  0.0000000 -1.0000000 )
                  (  1.0000000  0.0000000  0.0000000 )


      isym = 43     inv. 120 deg rotation - cart. axis [1,1,-1]  

 cryst.   s(43) = (     0          0          1      )
                  (    -1          0          0      )
                  (     0          1          0      )

 cart.    s(43) = (  0.0000000 -1.0000000  0.0000000 )
                  (  0.0000000  0.0000000  1.0000000 )
                  (  1.0000000  0.0000000  0.0000000 )


      isym = 44     inv. 120 deg rotation - cart. axis [1,-1,1]  

 cryst.   s(44) = (     0          0         -1      )
                  (     1          0          0      )
                  (     0          1          0      )

 cart.    s(44) = (  0.0000000  1.0000000  0.0000000 )
                  (  0.0000000  0.0000000  1.0000000 )
                  ( -1.0000000  0.0000000  0.0000000 )


      isym = 45     inv. 120 deg rotation - cart. axis [1,1,1]   

 cryst.   s(45) = (     0         -1          0      )
                  (     0          0         -1      )
                  (    -1          0          0      )

 cart.    s(45) = (  0.0000000  0.0000000 -1.0000000 )
                  ( -1.0000000  0.0000000  0.0000000 )
                  (  0.0000000 -1.0000000  0.0000000 )


      isym = 46     inv. 120 deg rotation - cart. axis [-1,1,-1] 

 cryst.   s(46) = (     0          1          0      )
                  (     0          0          1      )
                  (    -1          0          0      )

 cart.    s(46) = (  0.0000000  0.0000000 -1.0000000 )
                  (  1.0000000  0.0000000  0.0000000 )
                  (  0.0000000  1.0000000  0.0000000 )


      isym = 47     inv. 120 deg rotation - cart. axis [1,-1,-1] 

 cryst.   s(47) = (     0          1          0      )
                  (     0          0         -1      )
                  (     1          0          0      )

 cart.    s(47) = (  0.0000000  0.0000000  1.0000000 )
                  (  1.0000000  0.0000000  0.0000000 )
                  (  0.0000000 -1.0000000  0.0000000 )


      isym = 48     inv. 120 deg rotation - cart. axis [-1,-1,1] 

 cryst.   s(48) = (     0         -1          0      )
                  (     0          0          1      )
                  (     1          0          0      )

 cart.    s(48) = (  0.0000000  0.0000000  1.0000000 )
                  ( -1.0000000  0.0000000  0.0000000 )
                  (  0.0000000  1.0000000  0.0000000 )


   Cartesian axes

     site n.     atom                  positions (alat units)
         1           K   tau(   1) = (   0.0000000   0.0000000   0.0000000  )
         2           N   tau(   2) = (   0.5000000   0.5000000   0.5000000  )
         3           O   tau(   3) = (   0.5000000   0.5000000   0.0000000  )
         4           O   tau(   4) = (   0.5000000   0.0000000   0.5000000  )
         5           O   tau(   5) = (   0.0000000   0.5000000   0.5000000  )

   Crystallographic axes

     site n.     atom                  positions (cryst. coord.)
         1           K   tau(   1) = (  0.0000000  0.0000000  0.0000000  )
         2           N   tau(   2) = (  0.5000000  0.5000000  0.5000000  )
         3           O   tau(   3) = (  0.5000000  0.5000000  0.0000000  )
         4           O   tau(   4) = (  0.5000000  0.0000000  0.5000000  )
         5           O   tau(   5) = (  0.0000000  0.5000000  0.5000000  )

     number of k points=   120  Marzari-Vanderbilt smearing, width (Ry)=  0.0010
                       cart. coord. in units 2pi/alat
        k(    1) = (   0.0000000   0.0000000   0.0000000), wk =   0.0005926
        k(    2) = (   0.0000000   0.0000000   0.0666667), wk =   0.0035556
        k(    3) = (   0.0000000   0.0000000   0.1333333), wk =   0.0035556
        k(    4) = (   0.0000000   0.0000000   0.2000000), wk =   0.0035556
        k(    5) = (   0.0000000   0.0000000   0.2666667), wk =   0.0035556
        k(    6) = (   0.0000000   0.0000000   0.3333333), wk =   0.0035556
        k(    7) = (   0.0000000   0.0000000   0.4000000), wk =   0.0035556
        k(    8) = (   0.0000000   0.0000000   0.4666667), wk =   0.0035556
        k(    9) = (   0.0000000   0.0666667   0.0666667), wk =   0.0071111
        k(   10) = (   0.0000000   0.0666667   0.1333333), wk =   0.0142222
        k(   11) = (   0.0000000   0.0666667   0.2000000), wk =   0.0142222
        k(   12) = (   0.0000000   0.0666667   0.2666667), wk =   0.0142222
        k(   13) = (   0.0000000   0.0666667   0.3333333), wk =   0.0142222
        k(   14) = (   0.0000000   0.0666667   0.4000000), wk =   0.0142222
        k(   15) = (   0.0000000   0.0666667   0.4666667), wk =   0.0142222
        k(   16) = (   0.0000000   0.1333333   0.1333333), wk =   0.0071111
        k(   17) = (   0.0000000   0.1333333   0.2000000), wk =   0.0142222
        k(   18) = (   0.0000000   0.1333333   0.2666667), wk =   0.0142222
        k(   19) = (   0.0000000   0.1333333   0.3333333), wk =   0.0142222
        k(   20) = (   0.0000000   0.1333333   0.4000000), wk =   0.0142222
        k(   21) = (   0.0000000   0.1333333   0.4666667), wk =   0.0142222
        k(   22) = (   0.0000000   0.2000000   0.2000000), wk =   0.0071111
        k(   23) = (   0.0000000   0.2000000   0.2666667), wk =   0.0142222
        k(   24) = (   0.0000000   0.2000000   0.3333333), wk =   0.0142222
        k(   25) = (   0.0000000   0.2000000   0.4000000), wk =   0.0142222
        k(   26) = (   0.0000000   0.2000000   0.4666667), wk =   0.0142222
        k(   27) = (   0.0000000   0.2666667   0.2666667), wk =   0.0071111
        k(   28) = (   0.0000000   0.2666667   0.3333333), wk =   0.0142222
        k(   29) = (   0.0000000   0.2666667   0.4000000), wk =   0.0142222
        k(   30) = (   0.0000000   0.2666667   0.4666667), wk =   0.0142222
        k(   31) = (   0.0000000   0.3333333   0.3333333), wk =   0.0071111
        k(   32) = (   0.0000000   0.3333333   0.4000000), wk =   0.0142222
        k(   33) = (   0.0000000   0.3333333   0.4666667), wk =   0.0142222
        k(   34) = (   0.0000000   0.4000000   0.4000000), wk =   0.0071111
        k(   35) = (   0.0000000   0.4000000   0.4666667), wk =   0.0142222
        k(   36) = (   0.0000000   0.4666667   0.4666667), wk =   0.0071111
        k(   37) = (   0.0666667   0.0666667   0.0666667), wk =   0.0047407
        k(   38) = (   0.0666667   0.0666667   0.1333333), wk =   0.0142222
        k(   39) = (   0.0666667   0.0666667   0.2000000), wk =   0.0142222
        k(   40) = (   0.0666667   0.0666667   0.2666667), wk =   0.0142222
        k(   41) = (   0.0666667   0.0666667   0.3333333), wk =   0.0142222
        k(   42) = (   0.0666667   0.0666667   0.4000000), wk =   0.0142222
        k(   43) = (   0.0666667   0.0666667   0.4666667), wk =   0.0142222
        k(   44) = (   0.0666667   0.1333333   0.1333333), wk =   0.0142222
        k(   45) = (   0.0666667   0.1333333   0.2000000), wk =   0.0284444
        k(   46) = (   0.0666667   0.1333333   0.2666667), wk =   0.0284444
        k(   47) = (   0.0666667   0.1333333   0.3333333), wk =   0.0284444
        k(   48) = (   0.0666667   0.1333333   0.4000000), wk =   0.0284444
        k(   49) = (   0.0666667   0.1333333   0.4666667), wk =   0.0284444
        k(   50) = (   0.0666667   0.2000000   0.2000000), wk =   0.0142222
        k(   51) = (   0.0666667   0.2000000   0.2666667), wk =   0.0284444
        k(   52) = (   0.0666667   0.2000000   0.3333333), wk =   0.0284444
        k(   53) = (   0.0666667   0.2000000   0.4000000), wk =   0.0284444
        k(   54) = (   0.0666667   0.2000000   0.4666667), wk =   0.0284444
        k(   55) = (   0.0666667   0.2666667   0.2666667), wk =   0.0142222
        k(   56) = (   0.0666667   0.2666667   0.3333333), wk =   0.0284444
        k(   57) = (   0.0666667   0.2666667   0.4000000), wk =   0.0284444
        k(   58) = (   0.0666667   0.2666667   0.4666667), wk =   0.0284444
        k(   59) = (   0.0666667   0.3333333   0.3333333), wk =   0.0142222
        k(   60) = (   0.0666667   0.3333333   0.4000000), wk =   0.0284444
        k(   61) = (   0.0666667   0.3333333   0.4666667), wk =   0.0284444
        k(   62) = (   0.0666667   0.4000000   0.4000000), wk =   0.0142222
        k(   63) = (   0.0666667   0.4000000   0.4666667), wk =   0.0284444
        k(   64) = (   0.0666667   0.4666667   0.4666667), wk =   0.0142222
        k(   65) = (   0.1333333   0.1333333   0.1333333), wk =   0.0047407
        k(   66) = (   0.1333333   0.1333333   0.2000000), wk =   0.0142222
        k(   67) = (   0.1333333   0.1333333   0.2666667), wk =   0.0142222
        k(   68) = (   0.1333333   0.1333333   0.3333333), wk =   0.0142222
        k(   69) = (   0.1333333   0.1333333   0.4000000), wk =   0.0142222
        k(   70) = (   0.1333333   0.1333333   0.4666667), wk =   0.0142222
        k(   71) = (   0.1333333   0.2000000   0.2000000), wk =   0.0142222
        k(   72) = (   0.1333333   0.2000000   0.2666667), wk =   0.0284444
        k(   73) = (   0.1333333   0.2000000   0.3333333), wk =   0.0284444
        k(   74) = (   0.1333333   0.2000000   0.4000000), wk =   0.0284444
        k(   75) = (   0.1333333   0.2000000   0.4666667), wk =   0.0284444
        k(   76) = (   0.1333333   0.2666667   0.2666667), wk =   0.0142222
        k(   77) = (   0.1333333   0.2666667   0.3333333), wk =   0.0284444
        k(   78) = (   0.1333333   0.2666667   0.4000000), wk =   0.0284444
        k(   79) = (   0.1333333   0.2666667   0.4666667), wk =   0.0284444
        k(   80) = (   0.1333333   0.3333333   0.3333333), wk =   0.0142222
        k(   81) = (   0.1333333   0.3333333   0.4000000), wk =   0.0284444
        k(   82) = (   0.1333333   0.3333333   0.4666667), wk =   0.0284444
        k(   83) = (   0.1333333   0.4000000   0.4000000), wk =   0.0142222
        k(   84) = (   0.1333333   0.4000000   0.4666667), wk =   0.0284444
        k(   85) = (   0.1333333   0.4666667   0.4666667), wk =   0.0142222
        k(   86) = (   0.2000000   0.2000000   0.2000000), wk =   0.0047407
        k(   87) = (   0.2000000   0.2000000   0.2666667), wk =   0.0142222
        k(   88) = (   0.2000000   0.2000000   0.3333333), wk =   0.0142222
        k(   89) = (   0.2000000   0.2000000   0.4000000), wk =   0.0142222
        k(   90) = (   0.2000000   0.2000000   0.4666667), wk =   0.0142222
        k(   91) = (   0.2000000   0.2666667   0.2666667), wk =   0.0142222
        k(   92) = (   0.2000000   0.2666667   0.3333333), wk =   0.0284444
        k(   93) = (   0.2000000   0.2666667   0.4000000), wk =   0.0284444
        k(   94) = (   0.2000000   0.2666667   0.4666667), wk =   0.0284444
        k(   95) = (   0.2000000   0.3333333   0.3333333), wk =   0.0142222
        k(   96) = (   0.2000000   0.3333333   0.4000000), wk =   0.0284444
        k(   97) = (   0.2000000   0.3333333   0.4666667), wk =   0.0284444
        k(   98) = (   0.2000000   0.4000000   0.4000000), wk =   0.0142222
        k(   99) = (   0.2000000   0.4000000   0.4666667), wk =   0.0284444
        k(  100) = (   0.2000000   0.4666667   0.4666667), wk =   0.0142222
        k(  101) = (   0.2666667   0.2666667   0.2666667), wk =   0.0047407
        k(  102) = (   0.2666667   0.2666667   0.3333333), wk =   0.0142222
        k(  103) = (   0.2666667   0.2666667   0.4000000), wk =   0.0142222
        k(  104) = (   0.2666667   0.2666667   0.4666667), wk =   0.0142222
        k(  105) = (   0.2666667   0.3333333   0.3333333), wk =   0.0142222
        k(  106) = (   0.2666667   0.3333333   0.4000000), wk =   0.0284444
        k(  107) = (   0.2666667   0.3333333   0.4666667), wk =   0.0284444
        k(  108) = (   0.2666667   0.4000000   0.4000000), wk =   0.0142222
        k(  109) = (   0.2666667   0.4000000   0.4666667), wk =   0.0284444
        k(  110) = (   0.2666667   0.4666667   0.4666667), wk =   0.0142222
        k(  111) = (   0.3333333   0.3333333   0.3333333), wk =   0.0047407
        k(  112) = (   0.3333333   0.3333333   0.4000000), wk =   0.0142222
        k(  113) = (   0.3333333   0.3333333   0.4666667), wk =   0.0142222
        k(  114) = (   0.3333333   0.4000000   0.4000000), wk =   0.0142222
        k(  115) = (   0.3333333   0.4000000   0.4666667), wk =   0.0284444
        k(  116) = (   0.3333333   0.4666667   0.4666667), wk =   0.0142222
        k(  117) = (   0.4000000   0.4000000   0.4000000), wk =   0.0047407
        k(  118) = (   0.4000000   0.4000000   0.4666667), wk =   0.0142222
        k(  119) = (   0.4000000   0.4666667   0.4666667), wk =   0.0142222
        k(  120) = (   0.4666667   0.4666667   0.4666667), wk =   0.0047407

                       cryst. coord.
        k(    1) = (   0.0000000   0.0000000   0.0000000), wk =   0.0005926
        k(    2) = (   0.0000000   0.0000000   0.0666667), wk =   0.0035556
        k(    3) = (   0.0000000   0.0000000   0.1333333), wk =   0.0035556
        k(    4) = (   0.0000000   0.0000000   0.2000000), wk =   0.0035556
        k(    5) = (   0.0000000   0.0000000   0.2666667), wk =   0.0035556
        k(    6) = (   0.0000000   0.0000000   0.3333333), wk =   0.0035556
        k(    7) = (   0.0000000   0.0000000   0.4000000), wk =   0.0035556
        k(    8) = (   0.0000000   0.0000000   0.4666667), wk =   0.0035556
        k(    9) = (   0.0000000   0.0666667   0.0666667), wk =   0.0071111
        k(   10) = (   0.0000000   0.0666667   0.1333333), wk =   0.0142222
        k(   11) = (   0.0000000   0.0666667   0.2000000), wk =   0.0142222
        k(   12) = (   0.0000000   0.0666667   0.2666667), wk =   0.0142222
        k(   13) = (   0.0000000   0.0666667   0.3333333), wk =   0.0142222
        k(   14) = (   0.0000000   0.0666667   0.4000000), wk =   0.0142222
        k(   15) = (   0.0000000   0.0666667   0.4666667), wk =   0.0142222
        k(   16) = (   0.0000000   0.1333333   0.1333333), wk =   0.0071111
        k(   17) = (   0.0000000   0.1333333   0.2000000), wk =   0.0142222
        k(   18) = (   0.0000000   0.1333333   0.2666667), wk =   0.0142222
        k(   19) = (   0.0000000   0.1333333   0.3333333), wk =   0.0142222
        k(   20) = (   0.0000000   0.1333333   0.4000000), wk =   0.0142222
        k(   21) = (   0.0000000   0.1333333   0.4666667), wk =   0.0142222
        k(   22) = (   0.0000000   0.2000000   0.2000000), wk =   0.0071111
        k(   23) = (   0.0000000   0.2000000   0.2666667), wk =   0.0142222
        k(   24) = (   0.0000000   0.2000000   0.3333333), wk =   0.0142222
        k(   25) = (   0.0000000   0.2000000   0.4000000), wk =   0.0142222
        k(   26) = (   0.0000000   0.2000000   0.4666667), wk =   0.0142222
        k(   27) = (   0.0000000   0.2666667   0.2666667), wk =   0.0071111
        k(   28) = (   0.0000000   0.2666667   0.3333333), wk =   0.0142222
        k(   29) = (   0.0000000   0.2666667   0.4000000), wk =   0.0142222
        k(   30) = (   0.0000000   0.2666667   0.4666667), wk =   0.0142222
        k(   31) = (   0.0000000   0.3333333   0.3333333), wk =   0.0071111
        k(   32) = (   0.0000000   0.3333333   0.4000000), wk =   0.0142222
        k(   33) = (   0.0000000   0.3333333   0.4666667), wk =   0.0142222
        k(   34) = (   0.0000000   0.4000000   0.4000000), wk =   0.0071111
        k(   35) = (   0.0000000   0.4000000   0.4666667), wk =   0.0142222
        k(   36) = (   0.0000000   0.4666667   0.4666667), wk =   0.0071111
        k(   37) = (   0.0666667   0.0666667   0.0666667), wk =   0.0047407
        k(   38) = (   0.0666667   0.0666667   0.1333333), wk =   0.0142222
        k(   39) = (   0.0666667   0.0666667   0.2000000), wk =   0.0142222
        k(   40) = (   0.0666667   0.0666667   0.2666667), wk =   0.0142222
        k(   41) = (   0.0666667   0.0666667   0.3333333), wk =   0.0142222
        k(   42) = (   0.0666667   0.0666667   0.4000000), wk =   0.0142222
        k(   43) = (   0.0666667   0.0666667   0.4666667), wk =   0.0142222
        k(   44) = (   0.0666667   0.1333333   0.1333333), wk =   0.0142222
        k(   45) = (   0.0666667   0.1333333   0.2000000), wk =   0.0284444
        k(   46) = (   0.0666667   0.1333333   0.2666667), wk =   0.0284444
        k(   47) = (   0.0666667   0.1333333   0.3333333), wk =   0.0284444
        k(   48) = (   0.0666667   0.1333333   0.4000000), wk =   0.0284444
        k(   49) = (   0.0666667   0.1333333   0.4666667), wk =   0.0284444
        k(   50) = (   0.0666667   0.2000000   0.2000000), wk =   0.0142222
        k(   51) = (   0.0666667   0.2000000   0.2666667), wk =   0.0284444
        k(   52) = (   0.0666667   0.2000000   0.3333333), wk =   0.0284444
        k(   53) = (   0.0666667   0.2000000   0.4000000), wk =   0.0284444
        k(   54) = (   0.0666667   0.2000000   0.4666667), wk =   0.0284444
        k(   55) = (   0.0666667   0.2666667   0.2666667), wk =   0.0142222
        k(   56) = (   0.0666667   0.2666667   0.3333333), wk =   0.0284444
        k(   57) = (   0.0666667   0.2666667   0.4000000), wk =   0.0284444
        k(   58) = (   0.0666667   0.2666667   0.4666667), wk =   0.0284444
        k(   59) = (   0.0666667   0.3333333   0.3333333), wk =   0.0142222
        k(   60) = (   0.0666667   0.3333333   0.4000000), wk =   0.0284444
        k(   61) = (   0.0666667   0.3333333   0.4666667), wk =   0.0284444
        k(   62) = (   0.0666667   0.4000000   0.4000000), wk =   0.0142222
        k(   63) = (   0.0666667   0.4000000   0.4666667), wk =   0.0284444
        k(   64) = (   0.0666667   0.4666667   0.4666667), wk =   0.0142222
        k(   65) = (   0.1333333   0.1333333   0.1333333), wk =   0.0047407
        k(   66) = (   0.1333333   0.1333333   0.2000000), wk =   0.0142222
        k(   67) = (   0.1333333   0.1333333   0.2666667), wk =   0.0142222
        k(   68) = (   0.1333333   0.1333333   0.3333333), wk =   0.0142222
        k(   69) = (   0.1333333   0.1333333   0.4000000), wk =   0.0142222
        k(   70) = (   0.1333333   0.1333333   0.4666667), wk =   0.0142222
        k(   71) = (   0.1333333   0.2000000   0.2000000), wk =   0.0142222
        k(   72) = (   0.1333333   0.2000000   0.2666667), wk =   0.0284444
        k(   73) = (   0.1333333   0.2000000   0.3333333), wk =   0.0284444
        k(   74) = (   0.1333333   0.2000000   0.4000000), wk =   0.0284444
        k(   75) = (   0.1333333   0.2000000   0.4666667), wk =   0.0284444
        k(   76) = (   0.1333333   0.2666667   0.2666667), wk =   0.0142222
        k(   77) = (   0.1333333   0.2666667   0.3333333), wk =   0.0284444
        k(   78) = (   0.1333333   0.2666667   0.4000000), wk =   0.0284444
        k(   79) = (   0.1333333   0.2666667   0.4666667), wk =   0.0284444
        k(   80) = (   0.1333333   0.3333333   0.3333333), wk =   0.0142222
        k(   81) = (   0.1333333   0.3333333   0.4000000), wk =   0.0284444
        k(   82) = (   0.1333333   0.3333333   0.4666667), wk =   0.0284444
        k(   83) = (   0.1333333   0.4000000   0.4000000), wk =   0.0142222
        k(   84) = (   0.1333333   0.4000000   0.4666667), wk =   0.0284444
        k(   85) = (   0.1333333   0.4666667   0.4666667), wk =   0.0142222
        k(   86) = (   0.2000000   0.2000000   0.2000000), wk =   0.0047407
        k(   87) = (   0.2000000   0.2000000   0.2666667), wk =   0.0142222
        k(   88) = (   0.2000000   0.2000000   0.3333333), wk =   0.0142222
        k(   89) = (   0.2000000   0.2000000   0.4000000), wk =   0.0142222
        k(   90) = (   0.2000000   0.2000000   0.4666667), wk =   0.0142222
        k(   91) = (   0.2000000   0.2666667   0.2666667), wk =   0.0142222
        k(   92) = (   0.2000000   0.2666667   0.3333333), wk =   0.0284444
        k(   93) = (   0.2000000   0.2666667   0.4000000), wk =   0.0284444
        k(   94) = (   0.2000000   0.2666667   0.4666667), wk =   0.0284444
        k(   95) = (   0.2000000   0.3333333   0.3333333), wk =   0.0142222
        k(   96) = (   0.2000000   0.3333333   0.4000000), wk =   0.0284444
        k(   97) = (   0.2000000   0.3333333   0.4666667), wk =   0.0284444
        k(   98) = (   0.2000000   0.4000000   0.4000000), wk =   0.0142222
        k(   99) = (   0.2000000   0.4000000   0.4666667), wk =   0.0284444
        k(  100) = (   0.2000000   0.4666667   0.4666667), wk =   0.0142222
        k(  101) = (   0.2666667   0.2666667   0.2666667), wk =   0.0047407
        k(  102) = (   0.2666667   0.2666667   0.3333333), wk =   0.0142222
        k(  103) = (   0.2666667   0.2666667   0.4000000), wk =   0.0142222
        k(  104) = (   0.2666667   0.2666667   0.4666667), wk =   0.0142222
        k(  105) = (   0.2666667   0.3333333   0.3333333), wk =   0.0142222
        k(  106) = (   0.2666667   0.3333333   0.4000000), wk =   0.0284444
        k(  107) = (   0.2666667   0.3333333   0.4666667), wk =   0.0284444
        k(  108) = (   0.2666667   0.4000000   0.4000000), wk =   0.0142222
        k(  109) = (   0.2666667   0.4000000   0.4666667), wk =   0.0284444
        k(  110) = (   0.2666667   0.4666667   0.4666667), wk =   0.0142222
        k(  111) = (   0.3333333   0.3333333   0.3333333), wk =   0.0047407
        k(  112) = (   0.3333333   0.3333333   0.4000000), wk =   0.0142222
        k(  113) = (   0.3333333   0.3333333   0.4666667), wk =   0.0142222
        k(  114) = (   0.3333333   0.4000000   0.4000000), wk =   0.0142222
        k(  115) = (   0.3333333   0.4000000   0.4666667), wk =   0.0284444
        k(  116) = (   0.3333333   0.4666667   0.4666667), wk =   0.0142222
        k(  117) = (   0.4000000   0.4000000   0.4000000), wk =   0.0047407
        k(  118) = (   0.4000000   0.4000000   0.4666667), wk =   0.0142222
        k(  119) = (   0.4000000   0.4666667   0.4666667), wk =   0.0142222
        k(  120) = (   0.4666667   0.4666667   0.4666667), wk =   0.0047407

     Dense  grid:    25533 G-vectors     FFT dimensions: (  40,  40,  40)

     Dynamical RAM for                 wfc:       0.05 MB

     Dynamical RAM for     wfc (w. buffer):       5.87 MB

     Dynamical RAM for           str. fact:       0.06 MB

     Dynamical RAM for           local pot:       0.00 MB

     Dynamical RAM for          nlocal pot:       0.16 MB

     Dynamical RAM for                qrad:      17.58 MB

     Dynamical RAM for          rho,v,vnew:       0.13 MB

     Dynamical RAM for               rhoin:       0.04 MB

     Dynamical RAM for            rho*nmix:       0.31 MB

     Dynamical RAM for           G-vectors:       0.08 MB

     Dynamical RAM for          h,s,v(r/c):       0.03 MB

     Dynamical RAM for          <psi|beta>:       0.02 MB

     Dynamical RAM for                 psi:       0.19 MB

     Dynamical RAM for                hpsi:       0.19 MB

     Dynamical RAM for                spsi:       0.19 MB

     Dynamical RAM for      wfcinit/wfcrot:       0.13 MB

     Dynamical RAM for           addusdens:       3.69 MB

     Dynamical RAM for          addusforce:       3.92 MB

     Dynamical RAM for         addusstress:       3.93 MB

     Estimated static dynamical RAM per process >      24.44 MB

     Estimated max dynamical RAM per process >      28.37 MB

     Estimated total dynamical RAM >     567.36 MB

     Check: negative/imaginary core charge=   -0.000003    0.000000

     Initial potential from superposition of free atoms

     starting charge   31.49657, renormalised to   32.00000
     Starting wfcs are   24 randomized atomic wfcs

     total cpu time spent up to now is        1.3 secs

     Self-consistent Calculation

     iteration #  1     ecut=    50.00 Ry     beta= 0.70
     Davidson diagonalization with overlap
     ethr =  1.00E-02,  avg # of iterations =  1.0

     total cpu time spent up to now is        2.7 secs

     total energy              =    -172.14704136 Ry
     Harris-Foulkes estimate   =    -173.25563917 Ry
     estimated scf accuracy    <       1.38822065 Ry

     iteration #  2     ecut=    50.00 Ry     beta= 0.70
     Davidson diagonalization with overlap
     ethr =  4.34E-03,  avg # of iterations =  2.6

     total cpu time spent up to now is        5.4 secs

     total energy              =    -172.10033788 Ry
     Harris-Foulkes estimate   =    -175.78935530 Ry
     estimated scf accuracy    <      13.39423582 Ry

     iteration #  3     ecut=    50.00 Ry     beta= 0.70
     Davidson diagonalization with overlap
     ethr =  4.34E-03,  avg # of iterations =  2.0

     total cpu time spent up to now is        7.8 secs

     total energy              =    -173.07459404 Ry
     Harris-Foulkes estimate   =    -173.11965043 Ry
     estimated scf accuracy    <       0.27037536 Ry

     iteration #  4     ecut=    50.00 Ry     beta= 0.70
     Davidson diagonalization with overlap
     ethr =  8.45E-04,  avg # of iterations =  1.1

     total cpu time spent up to now is        9.5 secs

     total energy              =    -173.09565928 Ry
     Harris-Foulkes estimate   =    -173.09574286 Ry
     estimated scf accuracy    <       0.00310583 Ry

     iteration #  5     ecut=    50.00 Ry     beta= 0.70
     Davidson diagonalization with overlap
     ethr =  9.71E-06,  avg # of iterations =  3.9

     total cpu time spent up to now is       13.3 secs

     total energy              =    -173.09770526 Ry
     Harris-Foulkes estimate   =    -173.10029127 Ry
     estimated scf accuracy    <       0.02501951 Ry

     iteration #  6     ecut=    50.00 Ry     beta= 0.70
     Davidson diagonalization with overlap
     ethr =  9.71E-06,  avg # of iterations =  1.0

     total cpu time spent up to now is       14.9 secs

     total energy              =    -173.09815601 Ry
     Harris-Foulkes estimate   =    -173.09846806 Ry
     estimated scf accuracy    <       0.00324965 Ry

     iteration #  7     ecut=    50.00 Ry     beta= 0.70
     Davidson diagonalization with overlap
     ethr =  9.71E-06,  avg # of iterations =  1.0

     total cpu time spent up to now is       16.6 secs

     total energy              =    -173.09812162 Ry
     Harris-Foulkes estimate   =    -173.09822812 Ry
     estimated scf accuracy    <       0.00065947 Ry

     iteration #  8     ecut=    50.00 Ry     beta= 0.70
     Davidson diagonalization with overlap
     ethr =  2.06E-06,  avg # of iterations =  1.0

     total cpu time spent up to now is       18.2 secs

     total energy              =    -173.09817445 Ry
     Harris-Foulkes estimate   =    -173.09817451 Ry
     estimated scf accuracy    <       0.00000058 Ry

     iteration #  9     ecut=    50.00 Ry     beta= 0.70
     Davidson diagonalization with overlap
     ethr =  1.81E-09,  avg # of iterations =  4.0

     total cpu time spent up to now is       22.2 secs

     total energy              =    -173.09817614 Ry
     Harris-Foulkes estimate   =    -173.09817654 Ry
     estimated scf accuracy    <       0.00000081 Ry

     iteration # 10     ecut=    50.00 Ry     beta= 0.70
     Davidson diagonalization with overlap
     ethr =  1.81E-09,  avg # of iterations =  2.0

     total cpu time spent up to now is       24.6 secs

     total energy              =    -173.09817599 Ry
     Harris-Foulkes estimate   =    -173.09817701 Ry
     estimated scf accuracy    <       0.00000610 Ry

     iteration # 11     ecut=    50.00 Ry     beta= 0.70
     Davidson diagonalization with overlap
     ethr =  1.81E-09,  avg # of iterations =  2.1

     total cpu time spent up to now is       26.9 secs

     End of self-consistent calculation

          k = 0.0000 0.0000 0.0000 (  3191 PWs)   bands (ev):

   -25.6912 -15.8218 -14.3491 -14.3491 -10.0484  -9.1689  -9.1689  -9.1689
    -2.9556  -2.9556  -2.9556   0.5968   0.5968   0.5968   0.7003   0.7003
     0.7003   4.2063   4.2063   4.2063

     occupation numbers 
     1.0000   1.0000   1.0000   1.0000   1.0000   1.0000   1.0000   1.0000
     1.0000   1.0000   1.0000   1.0000   1.0000   1.0000   1.0000   1.0000
     1.0000   0.0000   0.0000   0.0000

          k = 0.0000 0.0000 0.0667 (  3171 PWs)   bands (ev):

   -25.6909 -15.8108 -14.3601 -14.3487 -10.0748  -9.1679  -9.1679  -9.1672
    -2.9509  -2.9509  -2.8807   0.5872   0.5891   0.5891   0.6861   0.6930
     0.6930   4.1283   4.2048   4.2048

     occupation numbers 
     1.0000   1.0000   1.0000   1.0000   1.0000   1.0000   1.0000   1.0000
     1.0000   1.0000   1.0000   1.0000   1.0000   1.0000   1.0000   1.0000
     1.0000   0.0000   0.0000   0.0000

          k = 0.0000 0.0000 0.1333 (  3170 PWs)   bands (ev):

   -25.6901 -15.7784 -14.3922 -14.3476 -10.1479  -9.1651  -9.1651  -9.1621
    -2.9376  -2.9376  -2.6641   0.5605   0.5659   0.5659   0.6469   0.6734
     0.6734   3.9022   4.2005   4.2005

     occupation numbers 
     1.0000   1.0000   1.0000   1.0000   1.0000   1.0000   1.0000   1.0000
     1.0000   1.0000   1.0000   1.0000   1.0000   1.0000   1.0000   1.0000
     1.0000   0.0000   0.0000   0.0000

          k = 0.0000 0.0000 0.2000 (  3178 PWs)   bands (ev):

   -25.6888 -15.7275 -14.4428 -14.3459 -10.2513  -9.1609  -9.1609  -9.1547
    -2.9178  -2.9178  -2.3281   0.5216   0.5284   0.5284   0.5937   0.6478
     0.6478   3.5482   4.1945   4.1945

     occupation numbers 
     1.0000   1.0000   1.0000   1.0000   1.0000   1.0000   1.0000   1.0000
     1.0000   1.0000   1.0000   1.0000   1.0000   1.0000   1.0000   1.0000
     1.0000   0.0000   0.0000   0.0000

          k = 0.0000 0.0000 0.2667 (  3178 PWs)   bands (ev):

   -25.6874 -15.6630 -14.5069 -14.3439 -10.3645  -9.1561  -9.1561  -9.1461
    -2.8945  -2.8945  -1.9066   0.4777   0.4815   0.4815   0.5434   0.6220
     0.6220   3.0956   4.1879   4.1879

     occupation numbers 
     1.0000   1.0000   1.0000   1.0000   1.0000   1.0000   1.0000   1.0000
     1.0000   1.0000   1.0000   1.0000   1.0000   1.0000   1.0000   1.0000
     1.0000   0.0000   0.0000   0.0000

          k = 0.0000 0.0000 0.3333 (  3174 PWs)   bands (ev):

   -25.6861 -15.5931 -14.5766 -14.3421 -10.4679  -9.1515  -9.1515  -9.1379
    -2.8716  -2.8716  -1.4477   0.4342   0.4342   0.4365   0.5191   0.5996
     0.5996   2.5839   4.1817   4.1817

     occupation numbers 
     1.0000   1.0000   1.0000   1.0000   1.0000   1.0000   1.0000   1.0000
     1.0000   1.0000   1.0000   1.0000   1.0000   1.0000   1.0000   1.0000
     1.0000   0.0000   0.0000   0.0000

          k = 0.0000 0.0000 0.4000 (  3166 PWs)   bands (ev):

   -25.6850 -15.5305 -14.6391 -14.3406 -10.5457  -9.1478  -9.1478  -9.1315
    -2.8534  -2.8534  -1.0279   0.3960   0.3960   0.4047   0.5525   0.5832
     0.5832   2.0706   4.1771   4.1771

     occupation numbers 
     1.0000   1.0000   1.0000   1.0000   1.0000   1.0000   1.0000   1.0000
     1.0000   1.0000   1.0000   1.0000   1.0000   1.0000   1.0000   1.0000
     1.0000   0.0000   0.0000   0.0000

          k = 0.0000 0.0000 0.4667 (  3198 PWs)   bands (ev):

   -25.6845 -15.4919 -14.6776 -14.3398 -10.5872  -9.1459  -9.1459  -9.1280
    -2.8433  -2.8433  -0.7658   0.3747   0.3747   0.3874   0.5743   0.5743
     0.6488   1.6791   4.1745   4.1745

     occupation numbers 
     1.0000   1.0000   1.0000   1.0000   1.0000   1.0000   1.0000   1.0000
     1.0000   1.0000   1.0000   1.0000   1.0000   1.0000   1.0000   1.0000
     1.0000   0.0000   0.0000   0.0000

          k = 0.0000 0.0667 0.0667 (  3167 PWs)   bands (ev):

   -25.6906 -15.7996 -14.3652 -14.3541 -10.1013  -9.1692  -9.1669  -9.1634
    -2.9462  -2.8794  -2.8724   0.5527   0.5817   0.6019   0.6565   0.6852
     0.7069   4.1260   4.1277   4.2032

     occupation numbers 
     1.0000   1.0000   1.0000   1.0000   1.0000   1.0000   1.0000   1.0000
     1.0000   1.0000   1.0000   1.0000   1.0000   1.0000   1.0000   1.0000
     1.0000   0.0000   0.0000   0.0000

          k = 0.0000 0.0667 0.1333 (  3167 PWs)   bands (ev):

   -25.6898 -15.7671 -14.3946 -14.3551 -10.1746  -9.1683  -9.1641  -9.1573
    -2.9326  -2.8626  -2.6589   0.4952   0.5593   0.5940   0.6193   0.6645
     0.7055   3.9004   4.1225   4.1990

     occupation numbers 
     1.0000   1.0000   1.0000   1.0000   1.0000   1.0000   1.0000   1.0000
     1.0000   1.0000   1.0000   1.0000   1.0000   1.0000   1.0000   1.0000
     1.0000   0.0000   0.0000   0.0000

          k = 0.0000 0.0667 0.2000 (  3168 PWs)   bands (ev):

   -25.6886 -15.7159 -14.4444 -14.3537 -10.2784  -9.1650  -9.1600  -9.1502
    -2.9123  -2.8422  -2.3224   0.4227   0.5228   0.5548   0.5997   0.6376
     0.6878   3.5458   4.1161   4.1931

     occupation numbers 
     1.0000   1.0000   1.0000   1.0000   1.0000   1.0000   1.0000   1.0000
     1.0000   1.0000   1.0000   1.0000   1.0000   1.0000   1.0000   1.0000
     1.0000   0.0000   0.0000   0.0000

          k = 0.0000 0.0667 0.2667 (  3163 PWs)   bands (ev):

   -25.6872 -15.6510 -14.5079 -14.3517 -10.3920  -9.1602  -9.1552  -9.1431
    -2.8885  -2.8182  -1.9002   0.3488   0.4766   0.5105   0.5861   0.6106
     0.6596   3.0926   4.1091   4.1865

     occupation numbers 
     1.0000   1.0000   1.0000   1.0000   1.0000   1.0000   1.0000   1.0000
     1.0000   1.0000   1.0000   1.0000   1.0000   1.0000   1.0000   1.0000
     1.0000   0.0000   0.0000   0.0000

          k = 0.0000 0.0667 0.3333 (  3168 PWs)   bands (ev):

   -25.6858 -15.5806 -14.5772 -14.3498 -10.4958  -9.1550  -9.1506  -9.1370
    -2.8651  -2.7947  -1.4407   0.2892   0.4295   0.4807   0.5772   0.5875
     0.6287   2.5799   4.1025   4.1803

     occupation numbers 
     1.0000   1.0000   1.0000   1.0000   1.0000   1.0000   1.0000   1.0000
     1.0000   1.0000   1.0000   1.0000   1.0000   1.0000   1.0000   1.0000
     1.0000   0.0000   0.0000   0.0000

          k = 0.0000 0.0667 0.4000 (  3173 PWs)   bands (ev):

   -25.6848 -15.5174 -14.6396 -14.3483 -10.5739  -9.1504  -9.1470  -9.1326
    -2.8465  -2.7758  -1.0216   0.2575   0.3914   0.4816   0.5706   0.5790
     0.6105   2.0659   4.0976   4.1756

     occupation numbers 
     1.0000   1.0000   1.0000   1.0000   1.0000   1.0000   1.0000   1.0000
     1.0000   1.0000   1.0000   1.0000   1.0000   1.0000   1.0000   1.0000
     1.0000   0.0000   0.0000   0.0000

          k = 0.0000 0.0667 0.4667 (  3193 PWs)   bands (ev):

   -25.6842 -15.4784 -14.6782 -14.3475 -10.6156  -9.1478  -9.1451  -9.1304
    -2.8361  -2.7653  -0.7627   0.2504   0.3701   0.5017   0.5616   0.5730
     0.6574   1.6751   4.0949   4.1730

     occupation numbers 
     1.0000   1.0000   1.0000   1.0000   1.0000   1.0000   1.0000   1.0000
     1.0000   1.0000   1.0000   1.0000   1.0000   1.0000   1.0000   1.0000
     1.0000   0.0000   0.0000   0.0000

          k = 0.0000 0.1333 0.1333 (  3165 PWs)   bands (ev):

   -25.6890 -15.7341 -14.4100 -14.3691 -10.2485  -9.1704  -9.1614  -9.1507
    -2.9183  -2.6562  -2.6331   0.3994   0.5394   0.5797   0.6051   0.6407
     0.7378   3.8914   3.8991   4.1950

     occupation numbers 
     1.0000   1.0000   1.0000   1.0000   1.0000   1.0000   1.0000   1.0000
     1.0000   1.0000   1.0000   1.0000   1.0000   1.0000   1.0000   1.0000
     1.0000   0.0000   0.0000   0.0000

          k = 0.0000 0.1333 0.2000 (  3178 PWs)   bands (ev):

   -25.6878 -15.6820 -14.4516 -14.3741 -10.3533  -9.1699  -9.1573  -9.1444
    -2.8967  -2.6236  -2.3059   0.2935   0.5061   0.5438   0.6004   0.6094
     0.7528   3.5391   3.8879   4.1889

     occupation numbers 
     1.0000   1.0000   1.0000   1.0000   1.0000   1.0000   1.0000   1.0000
     1.0000   1.0000   1.0000   1.0000   1.0000   1.0000   1.0000   1.0000
     1.0000   0.0000   0.0000   0.0000

          k = 0.0000 0.1333 0.2667 (  3168 PWs)   bands (ev):

   -25.6864 -15.6159 -14.5117 -14.3741 -10.4681  -9.1670  -9.1527  -9.1396
    -2.8714  -2.5973  -1.8816   0.1945   0.4623   0.5111   0.5787   0.5916
     0.7518   3.0838   3.8796   4.1823

     occupation numbers 
     1.0000   1.0000   1.0000   1.0000   1.0000   1.0000   1.0000   1.0000
     1.0000   1.0000   1.0000   1.0000   1.0000   1.0000   1.0000   1.0000
     1.0000   0.0000   0.0000   0.0000

          k = 0.0000 0.1333 0.3333 (  3174 PWs)   bands (ev):

   -25.6851 -15.5439 -14.5791 -14.3728 -10.5731  -9.1623  -9.1482  -9.1369
    -2.8466  -2.5714  -1.4199   0.1219   0.4162   0.4928   0.5532   0.5827
     0.7397   2.5684   3.8718   4.1762

     occupation numbers 
     1.0000   1.0000   1.0000   1.0000   1.0000   1.0000   1.0000   1.0000
     1.0000   1.0000   1.0000   1.0000   1.0000   1.0000   1.0000   1.0000
     1.0000   0.0000   0.0000   0.0000

          k = 0.0000 0.1333 0.4000 (  3182 PWs)   bands (ev):

   -25.6841 -15.4789 -14.6410 -14.3716 -10.6522  -9.1570  -9.1447  -9.1364
    -2.8267  -2.5505  -1.0027   0.0979   0.3783   0.5094   0.5350   0.5772
     0.7219   2.0521   3.8659   4.1715

     occupation numbers 
     1.0000   1.0000   1.0000   1.0000   1.0000   1.0000   1.0000   1.0000
     1.0000   1.0000   1.0000   1.0000   1.0000   1.0000   1.0000   1.0000
     1.0000   0.0000   0.0000   0.0000

          k = 0.0000 0.1333 0.4667 (  3192 PWs)   bands (ev):

   -25.6835 -15.4385 -14.6797 -14.3708 -10.6945  -9.1531  -9.1428  -9.1371
    -2.8157  -2.5388  -0.7542   0.1192   0.3569   0.5254   0.5624   0.6000
     0.6951   1.6622   3.8627   4.1690

     occupation numbers 
     1.0000   1.0000   1.0000   1.0000   1.0000   1.0000   1.0000   1.0000
     1.0000   1.0000   1.0000   1.0000   1.0000   1.0000   1.0000   1.0000
     1.0000   0.0000   0.0000   0.0000

          k = 0.0000 0.2000 0.2000 (  3171 PWs)   bands (ev):

   -25.6866 -15.6285 -14.4746 -14.3956 -10.4596  -9.1727  -9.1534  -9.1403
    -2.8733  -2.3006  -2.2636   0.1600   0.4781   0.5266   0.5710   0.5949
     0.8018   3.5205   3.5386   4.1830

     occupation numbers 
     1.0000   1.0000   1.0000   1.0000   1.0000   1.0000   1.0000   1.0000
     1.0000   1.0000   1.0000   1.0000   1.0000   1.0000   1.0000   1.0000
     1.0816   0.0000   0.0000   0.0000

          k = 0.0000 0.2000 0.2667 (  3185 PWs)   bands (ev):

   -25.6853 -15.5603 -14.5217 -14.4064 -10.5763  -9.1727  -9.1490  -9.1387
    -2.8458  -2.2534  -1.8524   0.0393   0.4396   0.5120   0.5329   0.5861
     0.8303   3.0706   3.5191   4.1764

     occupation numbers 
     1.0000   1.0000   1.0000   1.0000   1.0000   1.0000   1.0000   1.0000
     1.0000   1.0000   1.0000   1.0000   1.0000   1.0000   1.0000   1.0000
     0.1064   0.0000   0.0000   0.0000

          k = 0.0000 0.2000 0.3333 (  3180 PWs)   bands (ev):

   -25.6840 -15.4856 -14.5834 -14.4097 -10.6831  -9.1701  -9.1447  -9.1397
    -2.8186  -2.2227  -1.3864  -0.0465   0.3963   0.5025   0.5088   0.5772
     0.8404   2.5509   3.5088   4.1703

     occupation numbers 
     1.0000   1.0000   1.0000   1.0000   1.0000   1.0000   1.0000   1.0000
     1.0000   1.0000   1.0000   1.0000   1.0000   1.0000   1.0000   1.0000
     0.0082   0.0000   0.0000   0.0000

          k = 0.0000 0.2000 0.4000 (  3185 PWs)   bands (ev):

   -25.6830 -15.4174 -14.6433 -14.4104 -10.7637  -9.1656  -9.1431  -9.1413
    -2.7969  -2.1975  -0.9715  -0.0633   0.3590   0.4819   0.5325   0.5738
     0.8309   2.0297   3.5010   4.1657

     occupation numbers 
     1.0000   1.0000   1.0000   1.0000   1.0000   1.0000   1.0000   1.0000
     1.0000   1.0000   1.0000   1.0000   1.0000   1.0000   1.0000   1.0000
     0.0956   0.0000   0.0000   0.0000

          k = 0.0000 0.2000 0.4667 (  3189 PWs)   bands (ev):

   -25.6824 -15.3745 -14.6820 -14.4105 -10.8067  -9.1609  -9.1471  -9.1395
    -2.7848  -2.1833  -0.7429  -0.0043   0.3376   0.4714   0.5577   0.6402
     0.7808   1.6386   3.4968   4.1632

     occupation numbers 
     1.0000   1.0000   1.0000   1.0000   1.0000   1.0000   1.0000   1.0000
     1.0000   1.0000   1.0000   1.0000   1.0000   1.0000   1.0000   1.0000
     1.0012   0.0000   0.0000   0.0000

          k = 0.0000 0.2667 0.2667 (  3195 PWs)   bands (ev):

   -25.6840 -15.4891 -14.5467 -14.4375 -10.6952  -9.1761  -9.1447  -9.1407
    -2.8155  -1.8362  -1.7988  -0.1010   0.4093   0.4841   0.5168   0.5776
     0.8862   3.0406   3.0715   4.1698

     occupation numbers 
     1.0000   1.0000   1.0000   1.0000   1.0000   1.0000   1.0000   1.0000
     1.0000   1.0000   1.0000   1.0000   1.0000   1.0000   1.0000   1.0000
     0.0000   0.0000   0.0000   0.0000

          k = 0.0000 0.2667 0.3333 (  3185 PWs)   bands (ev):

   -25.6827 -15.4103 -14.5926 -14.4560 -10.8042  -9.1765  -9.1454  -9.1406
    -2.7856  -1.7801  -1.3421  -0.2031   0.3722   0.4449   0.5299   0.5690
     0.9189   2.5296   3.0425   4.1638

     occupation numbers 
     1.0000   1.0000   1.0000   1.0000   1.0000   1.0000   1.0000   1.0000
     1.0000   1.0000   1.0000   1.0000   1.0000   1.0000   1.0000   1.0000
     0.0000   0.0000   0.0000   0.0000

          k = 0.0000 0.2667 0.4000 (  3185 PWs)   bands (ev):

   -25.6818 -15.3373 -14.6466 -14.4639 -10.8865  -9.1740  -9.1520  -9.1374
    -2.7616  -1.7469  -0.9281  -0.2169   0.3368   0.4201   0.5507   0.5771
     0.9246   2.0007   3.0312   4.1592

     occupation numbers 
     1.0000   1.0000   1.0000   1.0000   1.0000   1.0000   1.0000   1.0000
     1.0000   1.0000   1.0000   1.0000   1.0000   1.0000   1.0000   1.0000
     0.0000   0.0000   0.0000   0.0000

          k = 0.0000 0.2667 0.4667 (  3176 PWs)   bands (ev):

   -25.6812 -15.2905 -14.6846 -14.4666 -10.9305  -9.1696  -9.1586  -9.1356
    -2.7482  -1.7274  -0.7322  -0.1109   0.3156   0.4083   0.5506   0.6628
     0.8811   1.6035   3.0251   4.1568

     occupation numbers 
     1.0000   1.0000   1.0000   1.0000   1.0000   1.0000   1.0000   1.0000
     1.0000   1.0000   1.0000   1.0000   1.0000   1.0000   1.0000   1.0000
     0.0000   0.0000   0.0000   0.0000

          k = 0.0000 0.3333 0.3333 (  3203 PWs)   bands (ev):

   -25.6815 -15.3260 -14.6137 -14.5005 -10.9153  -9.1802  -9.1533  -9.1367
    -2.7529  -1.2969  -1.2862  -0.3268   0.3448   0.3931   0.5580   0.5595
     0.9734   2.4885   2.5306   4.1577

     occupation numbers 
     1.0000   1.0000   1.0000   1.0000   1.0000   1.0000   1.0000   1.0000
     1.0000   1.0000   1.0000   1.0000   1.0000   1.0000   1.0000   1.0000
     0.0000   0.0000   0.0000   0.0000

          k = 0.0000 0.3333 0.4000 (  3190 PWs)   bands (ev):

   -25.6806 -15.2460 -14.6521 -14.5276 -10.9992  -9.1805  -9.1620  -9.1336
    -2.7266  -1.2419  -0.8708  -0.3527   0.3150   0.3605   0.5498   0.6029
     0.9991   1.9689   2.4939   4.1533

     occupation numbers 
     1.0000   1.0000   1.0000   1.0000   1.0000   1.0000   1.0000   1.0000
     1.0000   1.0000   1.0000   1.0000   1.0000   1.0000   1.0000   1.0000
     0.0000   0.0000   0.0000   0.0000

          k = 0.0000 0.3333 0.4667 (  3185 PWs)   bands (ev):

   -25.6801 -15.1930 -14.6872 -14.5376 -11.0441  -9.1776  -9.1698  -9.1320
    -2.7119  -1.2089  -0.7245  -0.1931   0.2945   0.3467   0.5425   0.6856
     0.9767   1.5585   2.4842   4.1509

     occupation numbers 
     1.0000   1.0000   1.0000   1.0000   1.0000   1.0000   1.0000   1.0000
     1.0000   1.0000   1.0000   1.0000   1.0000   1.0000   1.0000   1.0000
     0.0000   0.0000   0.0000   0.0000

          k = 0.0000 0.4000 0.4000 (  3189 PWs)   bands (ev):

   -25.6797 -15.1564 -14.6649 -14.5872 -11.0844  -9.1839  -9.1715  -9.1307
    -2.6984  -0.8404  -0.7372  -0.4301   0.2954   0.3160   0.5412   0.6471
     1.0485   1.9212   1.9641   4.1489

     occupation numbers 
     1.0000   1.0000   1.0000   1.0000   1.0000   1.0000   1.0000   1.0000
     1.0000   1.0000   1.0000   1.0000   1.0000   1.0000   1.0000   1.0000
     0.0000   0.0000   0.0000   0.0000

          k = 0.0000 0.4000 0.4667 (  3188 PWs)   bands (ev):

   -25.6792 -15.0938 -14.6894 -14.6160 -11.1300  -9.1835  -9.1789  -9.1291
    -2.6826  -0.7484  -0.6581  -0.2464   0.2781   0.2977   0.5316   0.7208
     1.0577   1.5106   1.9273   4.1465

     occupation numbers 
     1.0000   1.0000   1.0000   1.0000   1.0000   1.0000   1.0000   1.0000
     1.0000   1.0000   1.0000   1.0000   1.0000   1.0000   1.0000   1.0000
     0.0000   0.0000   0.0000   0.0000

          k = 0.0000 0.4667 0.4667 (  3184 PWs)   bands (ev):

   -25.6787 -15.0190 -14.6925 -14.6776 -11.1760  -9.1860  -9.1845  -9.1275
    -2.6662  -0.7307  -0.2919  -0.2608   0.2686   0.2711   0.5177   0.7865
     1.1070   1.4696   1.4832   4.1441

     occupation numbers 
     1.0000   1.0000   1.0000   1.0000   1.0000   1.0000   1.0000   1.0000
     1.0000   1.0000   1.0000   1.0000   1.0000   1.0000   1.0000   1.0067
     0.0000   0.0000   0.0000   0.0000

          k = 0.0667 0.0667 0.0667 (  3170 PWs)   bands (ev):

   -25.6903 -15.7885 -14.3648 -14.3648 -10.1279  -9.1684  -9.1684  -9.1595
    -2.8747  -2.8747  -2.8640   0.5448   0.5448   0.6190   0.6191   0.7031
     0.7031   4.1244   4.1244   4.1269

     occupation numbers 
     1.0000   1.0000   1.0000   1.0000   1.0000   1.0000   1.0000   1.0000
     1.0000   1.0000   1.0000   1.0000   1.0000   1.0000   1.0000   1.0000
     1.0000   0.0000   0.0000   0.0000

          k = 0.0667 0.0667 0.1333 (  3161 PWs)   bands (ev):

   -25.6895 -15.7558 -14.3961 -14.3635 -10.2014  -9.1684  -9.1661  -9.1530
    -2.8610  -2.8540  -2.6535   0.4836   0.5079   0.5743   0.6257   0.6913
     0.7082   3.8986   4.1200   4.1218

     occupation numbers 
     1.0000   1.0000   1.0000   1.0000   1.0000   1.0000   1.0000   1.0000
     1.0000   1.0000   1.0000   1.0000   1.0000   1.0000   1.0000   1.0000
     1.0000   0.0000   0.0000   0.0000

          k = 0.0667 0.0667 0.2000 (  3165 PWs)   bands (ev):

   -25.6883 -15.7043 -14.4456 -14.3616 -10.3056  -9.1656  -9.1627  -9.1460
    -2.8406  -2.8328  -2.3167   0.4124   0.4356   0.5522   0.6189   0.6715
     0.6938   3.5434   4.1137   4.1154

     occupation numbers 
     1.0000   1.0000   1.0000   1.0000   1.0000   1.0000   1.0000   1.0000
     1.0000   1.0000   1.0000   1.0000   1.0000   1.0000   1.0000   1.0000
     1.0000   0.0000   0.0000   0.0000

          k = 0.0667 0.0667 0.2667 (  3162 PWs)   bands (ev):

   -25.6869 -15.6390 -14.5087 -14.3594 -10.4197  -9.1607  -9.1588  -9.1397
    -2.8166  -2.8078  -1.8938   0.3401   0.3608   0.5397   0.6040   0.6468
     0.6661   3.0895   4.1066   4.1084

     occupation numbers 
     1.0000   1.0000   1.0000   1.0000   1.0000   1.0000   1.0000   1.0000
     1.0000   1.0000   1.0000   1.0000   1.0000   1.0000   1.0000   1.0000
     1.0000   0.0000   0.0000   0.0000

          k = 0.0667 0.0667 0.3333 (  3171 PWs)   bands (ev):

   -25.6856 -15.5681 -14.5777 -14.3574 -10.5239  -9.1550  -9.1545  -9.1352
    -2.7931  -2.7833  -1.4336   0.2758   0.3101   0.5344   0.5856   0.6227
     0.6354   2.5758   4.1001   4.1019

     occupation numbers 
     1.0000   1.0000   1.0000   1.0000   1.0000   1.0000   1.0000   1.0000
     1.0000   1.0000   1.0000   1.0000   1.0000   1.0000   1.0000   1.0000
     1.0000   0.0000   0.0000   0.0000

          k = 0.0667 0.0667 0.4000 (  3179 PWs)   bands (ev):

   -25.6845 -15.5043 -14.6400 -14.3557 -10.6024  -9.1520  -9.1483  -9.1329
    -2.7743  -2.7635  -1.0152   0.2277   0.3094   0.5338   0.5683   0.6047
     0.6231   2.0611   4.0951   4.0969

     occupation numbers 
     1.0000   1.0000   1.0000   1.0000   1.0000   1.0000   1.0000   1.0000
     1.0000   1.0000   1.0000   1.0000   1.0000   1.0000   1.0000   1.0000
     1.0000   0.0000   0.0000   0.0000

          k = 0.0667 0.0667 0.4667 (  3186 PWs)   bands (ev):

   -25.6840 -15.4649 -14.6786 -14.3549 -10.6443  -9.1504  -9.1440  -9.1326
    -2.7638  -2.7525  -0.7594   0.2019   0.3523   0.5264   0.5578   0.5955
     0.6618   1.6708   4.0924   4.0943

     occupation numbers 
     1.0000   1.0000   1.0000   1.0000   1.0000   1.0000   1.0000   1.0000
     1.0000   1.0000   1.0000   1.0000   1.0000   1.0000   1.0000   1.0000
     1.0000   0.0000   0.0000   0.0000

          k = 0.0667 0.1333 0.1333 (  3170 PWs)   bands (ev):

   -25.6887 -15.7226 -14.4094 -14.3789 -10.2756  -9.1701  -9.1649  -9.1461
    -2.8431  -2.6511  -2.6271   0.3984   0.4827   0.5129   0.6438   0.6863
     0.7352   3.8895   3.8972   4.1165

     occupation numbers 
     1.0000   1.0000   1.0000   1.0000   1.0000   1.0000   1.0000   1.0000
     1.0000   1.0000   1.0000   1.0000   1.0000   1.0000   1.0000   1.0000
     1.0000   0.0000   0.0000   0.0000

          k = 0.0667 0.1333 0.2000 (  3169 PWs)   bands (ev):

   -25.6875 -15.6703 -14.4518 -14.3824 -10.3808  -9.1699  -9.1620  -9.1397
    -2.8212  -2.6176  -2.2999   0.2941   0.4214   0.4906   0.6444   0.6680
     0.7505   3.5367   3.8861   4.1102

     occupation numbers 
     1.0000   1.0000   1.0000   1.0000   1.0000   1.0000   1.0000   1.0000
     1.0000   1.0000   1.0000   1.0000   1.0000   1.0000   1.0000   1.0000
     1.0000   0.0000   0.0000   0.0000

          k = 0.0667 0.1333 0.2667 (  3166 PWs)   bands (ev):

   -25.6861 -15.6039 -14.5120 -14.3814 -10.4962  -9.1673  -9.1584  -9.1352
    -2.7953  -2.5908  -1.8750   0.1965   0.3508   0.4835   0.6334   0.6452
     0.7500   3.0807   3.8777   4.1032

     occupation numbers 
     1.0000   1.0000   1.0000   1.0000   1.0000   1.0000   1.0000   1.0000
     1.0000   1.0000   1.0000   1.0000   1.0000   1.0000   1.0000   1.0000
     1.0000   0.0000   0.0000   0.0000

          k = 0.0667 0.1333 0.3333 (  3175 PWs)   bands (ev):

   -25.6848 -15.5315 -14.5793 -14.3797 -10.6018  -9.1629  -9.1542  -9.1333
    -2.7699  -2.5644  -1.4127   0.1246   0.2965   0.4812   0.6124   0.6286
     0.7386   2.5643   3.8700   4.0967

     occupation numbers 
     1.0000   1.0000   1.0000   1.0000   1.0000   1.0000   1.0000   1.0000
     1.0000   1.0000   1.0000   1.0000   1.0000   1.0000   1.0000   1.0000
     1.0000   0.0000   0.0000   0.0000

          k = 0.0667 0.1333 0.4000 (  3186 PWs)   bands (ev):

   -25.6838 -15.4659 -14.6412 -14.3782 -10.6813  -9.1586  -9.1494  -9.1343
    -2.7495  -2.5430  -0.9961   0.0957   0.2844   0.4811   0.5990   0.6188
     0.7215   2.0471   3.8641   4.0917

     occupation numbers 
     1.0000   1.0000   1.0000   1.0000   1.0000   1.0000   1.0000   1.0000
     1.0000   1.0000   1.0000   1.0000   1.0000   1.0000   1.0000   1.0000
     1.0000   0.0000   0.0000   0.0000

          k = 0.0667 0.1333 0.4667 (  3197 PWs)   bands (ev):

   -25.6832 -15.4252 -14.6800 -14.3773 -10.7238  -9.1562  -9.1436  -9.1380
    -2.7382  -2.5310  -0.7505   0.0968   0.3361   0.4742   0.6080   0.6339
     0.6956   1.6574   3.8609   4.0891

     occupation numbers 
     1.0000   1.0000   1.0000   1.0000   1.0000   1.0000   1.0000   1.0000
     1.0000   1.0000   1.0000   1.0000   1.0000   1.0000   1.0000   1.0000
     1.0000   0.0000   0.0000   0.0000

          k = 0.0667 0.2000 0.2000 (  3176 PWs)   bands (ev):

   -25.6863 -15.6167 -14.4738 -14.4039 -10.4877  -9.1731  -9.1597  -9.1350
    -2.7974  -2.2949  -2.2567   0.1622   0.4099   0.4288   0.6493   0.6515
     0.7994   3.5181   3.5363   4.1039

     occupation numbers 
     1.0000   1.0000   1.0000   1.0000   1.0000   1.0000   1.0000   1.0000
     1.0000   1.0000   1.0000   1.0000   1.0000   1.0000   1.0000   1.0000
     1.0704   0.0000   0.0000   0.0000

          k = 0.0667 0.2000 0.2667 (  3174 PWs)   bands (ev):

   -25.6850 -15.5483 -14.5213 -14.4133 -10.6051  -9.1735  -9.1569  -9.1328
    -2.7693  -2.2466  -1.8455   0.0431   0.3498   0.4193   0.6315   0.6431
     0.8286   3.0675   3.5167   4.0969

     occupation numbers 
     1.0000   1.0000   1.0000   1.0000   1.0000   1.0000   1.0000   1.0000
     1.0000   1.0000   1.0000   1.0000   1.0000   1.0000   1.0000   1.0000
     0.1494   0.0000   0.0000   0.0000

          k = 0.0667 0.2000 0.3333 (  3182 PWs)   bands (ev):

   -25.6837 -15.4732 -14.5832 -14.4155 -10.7126  -9.1713  -9.1542  -9.1333
    -2.7416  -2.2155  -1.3790  -0.0416   0.2967   0.4191   0.6133   0.6327
     0.8394   2.5467   3.5065   4.0905

     occupation numbers 
     1.0000   1.0000   1.0000   1.0000   1.0000   1.0000   1.0000   1.0000
     1.0000   1.0000   1.0000   1.0000   1.0000   1.0000   1.0000   1.0000
     0.0111   0.0000   0.0000   0.0000

          k = 0.0667 0.2000 0.4000 (  3191 PWs)   bands (ev):

   -25.6827 -15.4046 -14.6431 -14.4157 -10.7937  -9.1674  -9.1521  -9.1359
    -2.7194  -2.1900  -0.9647  -0.0601   0.2786   0.4193   0.6068   0.6260
     0.8309   2.0244   3.4986   4.0855

     occupation numbers 
     1.0000   1.0000   1.0000   1.0000   1.0000   1.0000   1.0000   1.0000
     1.0000   1.0000   1.0000   1.0000   1.0000   1.0000   1.0000   1.0000
     0.0944   0.0000   0.0000   0.0000

          k = 0.0667 0.2000 0.4667 (  3190 PWs)   bands (ev):

   -25.6822 -15.3614 -14.6819 -14.4154 -10.8371  -9.1640  -9.1508  -9.1388
    -2.7070  -2.1754  -0.7384  -0.0170   0.3214   0.4127   0.6098   0.6613
     0.7863   1.6331   3.4945   4.0829

     occupation numbers 
     1.0000   1.0000   1.0000   1.0000   1.0000   1.0000   1.0000   1.0000
     1.0000   1.0000   1.0000   1.0000   1.0000   1.0000   1.0000   1.0000
     1.0063   0.0000   0.0000   0.0000

          k = 0.0667 0.2667 0.2667 (  3181 PWs)   bands (ev):

   -25.6837 -15.4770 -14.5457 -14.4436 -10.7249  -9.1774  -9.1557  -9.1328
    -2.7385  -1.8297  -1.7909  -0.0955   0.3373   0.3674   0.6208   0.6394
     0.8850   3.0373   3.0685   4.0900

     occupation numbers 
     1.0000   1.0000   1.0000   1.0000   1.0000   1.0000   1.0000   1.0000
     1.0000   1.0000   1.0000   1.0000   1.0000   1.0000   1.0000   1.0000
     0.0000   0.0000   0.0000   0.0000

          k = 0.0667 0.2667 0.3333 (  3190 PWs)   bands (ev):

   -25.6825 -15.3981 -14.5918 -14.4607 -10.8347  -9.1782  -9.1558  -9.1345
    -2.7082  -1.7726  -1.3344  -0.1961   0.2931   0.3584   0.6151   0.6304
     0.9184   2.5253   3.0394   4.0836

     occupation numbers 
     1.0000   1.0000   1.0000   1.0000   1.0000   1.0000   1.0000   1.0000
     1.0000   1.0000   1.0000   1.0000   1.0000   1.0000   1.0000   1.0000
     0.0000   0.0000   0.0000   0.0000

          k = 0.0667 0.2667 0.4000 (  3191 PWs)   bands (ev):

   -25.6815 -15.3248 -14.6461 -14.4675 -10.9177  -9.1761  -9.1582  -9.1362
    -2.6838  -1.7391  -0.9210  -0.2110   0.2708   0.3565   0.6120   0.6325
     0.9250   1.9950   3.0281   4.0787

     occupation numbers 
     1.0000   1.0000   1.0000   1.0000   1.0000   1.0000   1.0000   1.0000
     1.0000   1.0000   1.0000   1.0000   1.0000   1.0000   1.0000   1.0000
     0.0000   0.0000   0.0000   0.0000

          k = 0.0667 0.2667 0.4667 (  3188 PWs)   bands (ev):

   -25.6810 -15.2778 -14.6842 -14.4698 -10.9621  -9.1726  -9.1619  -9.1370
    -2.6701  -1.7194  -0.7261  -0.1196   0.3042   0.3499   0.6040   0.6801
     0.8859   1.5974   3.0220   4.0761

     occupation numbers 
     1.0000   1.0000   1.0000   1.0000   1.0000   1.0000   1.0000   1.0000
     1.0000   1.0000   1.0000   1.0000   1.0000   1.0000   1.0000   1.0000
     0.0000   0.0000   0.0000   0.0000

          k = 0.0667 0.3333 0.3333 (  3183 PWs)   bands (ev):

   -25.6813 -15.3138 -14.6126 -14.5038 -10.9469  -9.1822  -9.1602  -9.1353
    -2.6751  -1.2895  -1.2778  -0.3183   0.2763   0.3184   0.6216   0.6248
     0.9734   2.4838   2.5267   4.0773

     occupation numbers 
     1.0000   1.0000   1.0000   1.0000   1.0000   1.0000   1.0000   1.0000
     1.0000   1.0000   1.0000   1.0000   1.0000   1.0000   1.0000   1.0000
     0.0000   0.0000   0.0000   0.0000

          k = 0.0667 0.3333 0.4000 (  3188 PWs)   bands (ev):

   -25.6804 -15.2338 -14.6511 -14.5295 -11.0317  -9.1828  -9.1666  -9.1353
    -2.6484  -1.2338  -0.8633  -0.3451   0.2571   0.3061   0.6077   0.6491
     0.9997   1.9630   2.4896   4.0725

     occupation numbers 
     1.0000   1.0000   1.0000   1.0000   1.0000   1.0000   1.0000   1.0000
     1.0000   1.0000   1.0000   1.0000   1.0000   1.0000   1.0000   1.0000
     0.0000   0.0000   0.0000   0.0000

          k = 0.0667 0.3333 0.4667 (  3188 PWs)   bands (ev):

   -25.6799 -15.1808 -14.6864 -14.5387 -11.0771  -9.1805  -9.1730  -9.1351
    -2.6335  -1.2008  -0.7162  -0.2007   0.2775   0.3046   0.5924   0.7016
     0.9797   1.5519   2.4798   4.0699

     occupation numbers 
     1.0000   1.0000   1.0000   1.0000   1.0000   1.0000   1.0000   1.0000
     1.0000   1.0000   1.0000   1.0000   1.0000   1.0000   1.0000   1.0000
     0.0000   0.0000   0.0000   0.0000

          k = 0.0667 0.4000 0.4000 (  3190 PWs)   bands (ev):

   -25.6795 -15.1445 -14.6637 -14.5877 -11.1179  -9.1864  -9.1751  -9.1343
    -2.6198  -0.8319  -0.7308  -0.4227   0.2419   0.2826   0.5935   0.6805
     1.0494   1.9145   1.9587   4.0677

     occupation numbers 
     1.0000   1.0000   1.0000   1.0000   1.0000   1.0000   1.0000   1.0000
     1.0000   1.0000   1.0000   1.0000   1.0000   1.0000   1.0000   1.0000
     0.0000   0.0000   0.0000   0.0000

          k = 0.0667 0.4000 0.4667 (  3183 PWs)   bands (ev):

   -25.6790 -15.0819 -14.6883 -14.6156 -11.1641  -9.1863  -9.1819  -9.1337
    -2.6038  -0.7387  -0.6511  -0.2547   0.2501   0.2874   0.5712   0.7348
     1.0592   1.5036   1.9212   4.0652

     occupation numbers 
     1.0000   1.0000   1.0000   1.0000   1.0000   1.0000   1.0000   1.0000
     1.0000   1.0000   1.0000   1.0000   1.0000   1.0000   1.0000   1.0000
     0.0000   0.0000   0.0000   0.0000

          k = 0.0667 0.4667 0.4667 (  3188 PWs)   bands (ev):

   -25.6785 -15.0072 -14.6912 -14.6764 -11.2107  -9.1889  -9.1874  -9.1329
    -2.5872  -0.7184  -0.2995  -0.2708   0.2665   0.2830   0.5348   0.7928
     1.1080   1.4621   1.4762   4.0627

     occupation numbers 
     1.0000   1.0000   1.0000   1.0000   1.0000   1.0000   1.0000   1.0000
     1.0000   1.0000   1.0000   1.0000   1.0000   1.0000   1.0000   1.0280
     0.0000   0.0000   0.0000   0.0000

          k = 0.1333 0.1333 0.1333 (  3167 PWs)   bands (ev):

   -25.6879 -15.6891 -14.4078 -14.4078 -10.3507  -9.1692  -9.1692  -9.1389
    -2.6364  -2.6364  -2.5991   0.3915   0.3915   0.4144   0.6825   0.7297
     0.7297   3.8844   3.8844   3.8960

     occupation numbers 
     1.0000   1.0000   1.0000   1.0000   1.0000   1.0000   1.0000   1.0000
     1.0000   1.0000   1.0000   1.0000   1.0000   1.0000   1.0000   1.0000
     1.0000   0.0000   0.0000   0.0000

          k = 0.1333 0.1333 0.2000 (  3163 PWs)   bands (ev):

   -25.6867 -15.6361 -14.4540 -14.4055 -10.4571  -9.1707  -9.1679  -9.1329
[...]
     1.0000   1.0000   1.0000   1.0000   1.0000   1.0000   1.0000   1.0000
     1.0000   1.0000   1.0000   1.0000   1.0000   1.0000   1.0000   0.0000
     0.0000   0.0000   0.0000   0.0000

          k = 0.2210 0.4421 0.5158 (  2359 PWs)   bands (ev):

   -22.1871 -13.2621 -12.5090 -12.3666  -9.0988  -5.8799  -5.8560  -5.7585
    -0.3093   1.5019   1.7683   2.1242   2.5551   3.0419   3.5474   3.9416
     4.0719   4.7108   5.4222   7.5950

     occupation numbers 
     1.0000   1.0000   1.0000   1.0000   1.0000   1.0000   1.0000   1.0000
     1.0000   1.0000   1.0000   1.0000   1.0000   1.0000   1.0000   0.0000
     0.0000   0.0000   0.0000   0.0000

          k = 0.2210 0.5158 0.5158 (  2357 PWs)   bands (ev):

   -22.1849 -13.1217 -12.5142 -12.4860  -9.1830  -5.8759  -5.8758  -5.7830
    -0.2804   1.4992   2.0936   2.1155   2.8298   3.0845   3.3934   4.1273
     4.1388   4.6161   4.7825   7.5894

     occupation numbers 
     1.0000   1.0000   1.0000   1.0000   1.0000   1.0000   1.0000   1.0000
     1.0000   1.0000   1.0000   1.0000   1.0000   1.0000   1.0000   0.0000
     0.0000   0.0000   0.0000   0.0000

          k = 0.2947 0.2947 0.2947 (  2356 PWs)   bands (ev):

   -22.2030 -13.8343 -12.1835 -12.1835  -8.5199  -5.8447  -5.8447  -5.6265
     0.0531   0.0531   0.4913   2.3987   2.3987   2.4836   3.7444   3.7444
     3.7727   6.8651   6.8651   7.2054

     occupation numbers 
     1.0000   1.0000   1.0000   1.0000   1.0000   1.0000   1.0000   1.0000
     1.0000   1.0000   1.0000   1.0000   1.0000   1.0000   0.7459   0.7459
     0.0024   0.0000   0.0000   0.0000

          k = 0.2947 0.2947 0.3684 (  2353 PWs)   bands (ev):

   -22.1976 -13.6946 -12.3010 -12.1699  -8.7489  -5.8695  -5.8524  -5.6572
     0.0929   0.3425   0.9584   2.2763   2.3335   2.5413   3.7301   3.8006
     3.8386   6.1872   6.8426   7.1175

     occupation numbers 
     1.0000   1.0000   1.0000   1.0000   1.0000   1.0000   1.0000   1.0000
     1.0000   1.0000   1.0000   1.0000   1.0000   1.0000   1.0810   0.0000
     0.0000   0.0000   0.0000   0.0000

          k = 0.2947 0.2947 0.4421 (  2356 PWs)   bands (ev):

   -22.1933 -13.5606 -12.4191 -12.1592  -8.9152  -5.8891  -5.8428  -5.6969
     0.1253   0.4405   1.4243   2.1899   2.4013   2.6965   3.7155   3.8255
     3.8822   5.4210   6.8252   7.0936

     occupation numbers 
     1.0000   1.0000   1.0000   1.0000   1.0000   1.0000   1.0000   1.0000
     1.0000   1.0000   1.0000   1.0000   1.0000   1.0000   1.0076   0.0000
     0.0000   0.0000   0.0000   0.0000

          k = 0.2947 0.2947 0.5158 (  2368 PWs)   bands (ev):

   -22.1910 -13.4713 -12.5003 -12.1533  -9.0019  -5.8999  -5.8247  -5.7316
     0.1436   0.4888   1.5736   2.1450   2.5050   3.0569   3.7074   3.8135
     3.9027   4.7901   6.8157   7.0835

     occupation numbers 
     1.0000   1.0000   1.0000   1.0000   1.0000   1.0000   1.0000   1.0000
     1.0000   1.0000   1.0000   1.0000   1.0000   1.0000   1.0006   0.0000
     0.0000   0.0000   0.0000   0.0000

          k = 0.2947 0.3684 0.3684 (  2367 PWs)   bands (ev):

   -22.1925 -13.5454 -12.3291 -12.2328  -8.9923  -5.8905  -5.8824  -5.6973
     0.2526   0.8706   1.1050   2.1678   2.3206   2.5360   3.7945   3.8035
     3.9191   6.0456   6.2964   7.0023

     occupation numbers 
     1.0000   1.0000   1.0000   1.0000   1.0000   1.0000   1.0000   1.0000
     1.0000   1.0000   1.0000   1.0000   1.0000   1.0000   0.0000   0.0000
     0.0000   0.0000   0.0000   0.0000

          k = 0.2947 0.3684 0.4421 (  2358 PWs)   bands (ev):

   -22.1885 -13.3992 -12.4180 -12.2456  -9.1700  -5.9136  -5.8848  -5.7430
     0.3077   1.0632   1.4941   2.1123   2.3403   2.7076   3.7862   3.8400
     3.9760   5.3624   6.1777   6.9779

     occupation numbers 
     1.0000   1.0000   1.0000   1.0000   1.0000   1.0000   1.0000   1.0000
     1.0000   1.0000   1.0000   1.0000   1.0000   1.0000   0.0000   0.0000
     0.0000   0.0000   0.0000   0.0000

          k = 0.2947 0.3684 0.5158 (  2367 PWs)   bands (ev):

   -22.1863 -13.2983 -12.4958 -12.2449  -9.2632  -5.9275  -5.8734  -5.7795
     0.3361   1.1308   1.6122   2.0971   2.4201   3.1159   3.7473   3.8619
     3.9941   4.7193   6.1567   6.9676

     occupation numbers 
     1.0000   1.0000   1.0000   1.0000   1.0000   1.0000   1.0000   1.0000
     1.0000   1.0000   1.0000   1.0000   1.0000   1.0000   0.5882   0.0000
     0.0000   0.0000   0.0000   0.0000

          k = 0.2947 0.4421 0.4421 (  2360 PWs)   bands (ev):

   -22.1847 -13.2361 -12.4376 -12.3305  -9.3571  -5.9240  -5.9135  -5.7915
     0.3741   1.5468   1.6846   2.0481   2.3490   2.8248   3.7826   3.8870
     4.0517   5.1970   5.5178   6.9542

     occupation numbers 
     1.0000   1.0000   1.0000   1.0000   1.0000   1.0000   1.0000   1.0000
     1.0000   1.0000   1.0000   1.0000   1.0000   1.0000   0.0000   0.0000
     0.0000   0.0000   0.0000   0.0000

          k = 0.2947 0.4421 0.5158 (  2357 PWs)   bands (ev):

   -22.1826 -13.1169 -12.4927 -12.3630  -9.4553  -5.9375  -5.9113  -5.8281
     0.4077   1.6239   1.8130   2.0661   2.4675   3.1667   3.6959   3.9650
     4.0851   4.6429   5.3755   6.9443

     occupation numbers 
     1.0000   1.0000   1.0000   1.0000   1.0000   1.0000   1.0000   1.0000
     1.0000   1.0000   1.0000   1.0000   1.0000   1.0000   1.0000   0.0000
     0.0000   0.0000   0.0000   0.0000

          k = 0.2947 0.5158 0.5158 (  2354 PWs)   bands (ev):

   -22.1806 -12.9729 -12.4953 -12.4687  -9.5563  -5.9341  -5.9310  -5.8644
     0.4438   1.6435   2.0404   2.0541   2.8541   3.2444   3.5421   4.1233
     4.1475   4.5414   4.7329   6.9346

     occupation numbers 
     1.0000   1.0000   1.0000   1.0000   1.0000   1.0000   1.0000   1.0000
     1.0000   1.0000   1.0000   1.0000   1.0000   1.0000   1.0000   0.0000
     0.0000   0.0000   0.0000   0.0000

          k = 0.3684 0.3684 0.3684 (  2365 PWs)   bands (ev):

   -22.1877 -13.3908 -12.3132 -12.3132  -9.2597  -5.9206  -5.9206  -5.7476
     0.9253   0.9253   1.2428   2.1960   2.1960   2.5275   3.8718   3.8718
     3.9510   6.0103   6.0103   6.5057

     occupation numbers 
     1.0000   1.0000   1.0000   1.0000   1.0000   1.0000   1.0000   1.0000
     1.0000   1.0000   1.0000   1.0000   1.0000   1.0000   0.0000   0.0000
     0.0000   0.0000   0.0000   0.0000

          k = 0.3684 0.3684 0.4421 (  2357 PWs)   bands (ev):

   -22.1839 -13.2371 -12.4080 -12.3007  -9.4587  -5.9505  -5.9302  -5.8006
     0.9726   1.2236   1.5786   2.1038   2.2358   2.7222   3.8838   3.9103
     4.0074   5.3017   5.9821   6.3954

     occupation numbers 
     1.0000   1.0000   1.0000   1.0000   1.0000   1.0000   1.0000   1.0000
     1.0000   1.0000   1.0000   1.0000   1.0000   1.0000   0.0000   0.0000
     0.0000   0.0000   0.0000   0.0000

          k = 0.3684 0.3684 0.5158 (  2365 PWs)   bands (ev):

   -22.1818 -13.1275 -12.4851 -12.2938  -9.5643  -5.9670  -5.9241  -5.8407
     1.0007   1.3175   1.6943   2.0539   2.3275   3.2006   3.8592   3.8851
     4.0407   4.6434   5.9664   6.3703

     occupation numbers 
     1.0000   1.0000   1.0000   1.0000   1.0000   1.0000   1.0000   1.0000
     1.0000   1.0000   1.0000   1.0000   1.0000   1.0000   0.0000   0.0000
     0.0000   0.0000   0.0000   0.0000

          k = 0.3684 0.4421 0.4421 (  2364 PWs)   bands (ev):

   -22.1803 -13.0724 -12.4202 -12.3578  -9.6770  -5.9715  -5.9613  -5.8572
     1.1510   1.6492   1.7506   2.0612   2.2319   2.8562   3.9135   3.9551
     4.0659   5.1345   5.4266   6.2459

     occupation numbers 
     1.0000   1.0000   1.0000   1.0000   1.0000   1.0000   1.0000   1.0000
     1.0000   1.0000   1.0000   1.0000   1.0000   1.0000   0.0000   0.0000
     0.0000   0.0000   0.0000   0.0000

          k = 0.3684 0.4421 0.5158 (  2360 PWs)   bands (ev):

   -22.1784 -12.9491 -12.4770 -12.3706  -9.7944  -5.9872  -5.9634  -5.8985
     1.2011   1.7383   1.8686   2.0261   2.3940   3.2728   3.8344   3.9918
     4.1030   4.5607   5.2981   6.2176

     occupation numbers 
     1.0000   1.0000   1.0000   1.0000   1.0000   1.0000   1.0000   1.0000
     1.0000   1.0000   1.0000   1.0000   1.0000   1.0000   0.0000   0.0000
     0.0000   0.0000   0.0000   0.0000

          k = 0.3684 0.5158 0.5158 (  2359 PWs)   bands (ev):

   -22.1764 -12.8038 -12.4770 -12.4534  -9.9192  -5.9886  -5.9837  -5.9408
     1.2583   1.7794   2.0024   2.0130   2.8671   3.3870   3.7005   4.1157
     4.1562   4.4505   4.6642   6.1897

     occupation numbers 
     1.0000   1.0000   1.0000   1.0000   1.0000   1.0000   1.0000   1.0000
     1.0000   1.0000   1.0000   1.0000   1.0000   1.0000   1.0000   0.0000
     0.0000   0.0000   0.0000   0.0000

          k = 0.4421 0.4421 0.4421 (  2365 PWs)   bands (ev):

   -22.1769 -12.9064 -12.4064 -12.4064  -9.9270  -5.9986  -5.9986  -5.9174
     1.7432   1.8280   1.8280   2.1220   2.1220   2.9700   3.9974   3.9974
     4.0945   5.0787   5.0787   5.7475

     occupation numbers 
     1.0000   1.0000   1.0000   1.0000   1.0000   1.0000   1.0000   1.0000
     1.0000   1.0000   1.0000   1.0000   1.0000   1.0000   0.0000   0.0000
     0.0000   0.0000   0.0000   0.0000

          k = 0.4421 0.4421 0.5158 (  2356 PWs)   bands (ev):

   -22.1750 -12.7785 -12.4649 -12.3988 -10.0653  -6.0190  -6.0039  -5.9595
     1.8273   1.9123   1.9282   2.0221   2.4187   3.3610   3.9285   4.0250
     4.1298   4.4687   5.0444   5.6290

     occupation numbers 
     1.0000   1.0000   1.0000   1.0000   1.0000   1.0000   1.0000   1.0000
     1.0000   1.0000   1.0000   1.0000   1.0000   1.0000   0.0000   0.0000
     0.0000   0.0000   0.0000   0.0000

          k = 0.4421 0.5158 0.5158 (  2359 PWs)   bands (ev):

   -22.1732 -12.6409 -12.4626 -12.4456 -10.2186  -6.0290  -6.0249  -6.0010
     1.8833   1.9670   1.9789   2.1324   2.8734   3.5021   3.8510   4.0977
     4.1643   4.3488   4.5319   5.4643

     occupation numbers 
     1.0000   1.0000   1.0000   1.0000   1.0000   1.0000   1.0000   1.0000
     1.0000   1.0000   1.0000   1.0000   1.0000   1.0000   0.0000   0.0000
     0.0000   0.0000   0.0000   0.0000

          k = 0.5158 0.5158 0.5158 (  2341 PWs)   bands (ev):

   -22.1714 -12.5231 -12.4546 -12.4546 -10.3942  -6.0474  -6.0474  -6.0372
     1.9411   1.9680   1.9680   2.8760   2.8760   3.6172   3.9653   3.9653
     4.1748   4.2543   4.2543   5.0478

     occupation numbers 
     1.0000   1.0000   1.0000   1.0000   1.0000   1.0000   1.0000   1.0000
     1.0000   1.0000   1.0000   1.0000   1.0000   1.0000   0.0000   0.0000
     0.0000   0.0000   0.0000   0.0000

     the Fermi energy is     3.7508 ev

!    total energy              =    -173.21649219 Ry
     Harris-Foulkes estimate   =    -173.21649219 Ry
     estimated scf accuracy    <          6.7E-13 Ry

     The total energy is the sum of the following terms:

     one-electron contribution =     -34.18642401 Ry
     hartree contribution      =      33.91695018 Ry
     xc contribution           =     -35.11152023 Ry
     ewald contribution        =    -137.83550569 Ry
     smearing contrib. (-TS)   =       0.00000756 Ry

     convergence has been achieved in  12 iterations

     Forces acting on atoms (cartesian axes, Ry/au):

     atom    1 type  1   force =     0.00000000    0.00000000    0.00000000
     atom    2 type  2   force =     0.00000000    0.00000000    0.00000000
     atom    3 type  3   force =     0.00000000    0.00000000    0.00000000
     atom    4 type  3   force =     0.00000000    0.00000000    0.00000000
     atom    5 type  3   force =     0.00000000    0.00000000    0.00000000
     The non-local contrib.  to forces
     atom    1 type  1   force =     0.00000000    0.00000000    0.00000000
     atom    2 type  2   force =     0.00000000    0.00000000    0.00000000
     atom    3 type  3   force =     0.00000000    0.00000000    0.00000000
     atom    4 type  3   force =     0.00000000    0.00000000    0.00000000
     atom    5 type  3   force =     0.00000000    0.00000000    0.00000000
     The ionic contribution  to forces
     atom    1 type  1   force =    -0.00000000   -0.00000000    0.00000000
     atom    2 type  2   force =    -0.00000000   -0.00000000   -0.00000000
     atom    3 type  3   force =    -0.00000000    0.00000000    0.00000000
     atom    4 type  3   force =     0.00000000    0.00000000   -0.00000000
     atom    5 type  3   force =     0.00000000    0.00000000   -0.00000000
     The local contribution  to forces
     atom    1 type  1   force =     0.00000000    0.00000000    0.00000000
     atom    2 type  2   force =     0.00000000    0.00000000    0.00000000
     atom    3 type  3   force =    -0.00000000    0.00000000   -0.00000000
     atom    4 type  3   force =     0.00000000   -0.00000000   -0.00000000
     atom    5 type  3   force =    -0.00000000    0.00000000   -0.00000000
     The core correction contribution to forces
     atom    1 type  1   force =     0.00000000    0.00000000   -0.00000000
     atom    2 type  2   force =     0.00000000    0.00000000    0.00000000
     atom    3 type  3   force =     0.00000000    0.00000000   -0.00000000
     atom    4 type  3   force =     0.00000000   -0.00000000   -0.00000000
     atom    5 type  3   force =     0.00000000    0.00000000    0.00000000
     The Hubbard contrib.    to forces
     atom    1 type  1   force =     0.00000000    0.00000000    0.00000000
     atom    2 type  2   force =     0.00000000    0.00000000    0.00000000
     atom    3 type  3   force =     0.00000000    0.00000000    0.00000000
     atom    4 type  3   force =     0.00000000    0.00000000    0.00000000
     atom    5 type  3   force =     0.00000000    0.00000000    0.00000000
     The SCF correction term to forces
     atom    1 type  1   force =    -0.00000000    0.00000000    0.00000000
     atom    2 type  2   force =     0.00000000    0.00000000   -0.00000000
     atom    3 type  3   force =     0.00000000    0.00000000   -0.00000000
     atom    4 type  3   force =     0.00000000   -0.00000000    0.00000000
     atom    5 type  3   force =    -0.00000000   -0.00000000    0.00000000

     Total force =     0.000000     Total SCF correction =     0.000000


     Computing stress (Cartesian axis) and pressure

          total   stress  (Ry/bohr**3)                   (kbar)     P=  -76.91
  -0.00052280   0.00000000   0.00000000        -76.91      0.00      0.00
   0.00000000  -0.00052280   0.00000000          0.00    -76.91      0.00
   0.00000000   0.00000000  -0.00052280          0.00      0.00    -76.91

     kinetic stress (kbar)  17645.06      0.00      0.00
                                0.00  17645.06      0.00
                                0.00      0.00  17645.06

     local   stress (kbar)  -5723.92     -0.00      0.00
                               -0.00  -5723.92      0.00
                                0.00      0.00  -5723.92

     nonloc. stress (kbar)   5005.45      0.00      0.00
                                0.00   5005.45      0.00
                                0.00      0.00   5005.45

     hartree stress (kbar)   4212.25     -0.00      0.00
                               -0.00   4212.25      0.00
                                0.00      0.00   4212.25

     exc-cor stress (kbar)  -3528.37      0.00      0.00
                                0.00  -3528.37      0.00
                                0.00      0.00  -3528.37

     corecor stress (kbar)   -569.16      0.00     -0.00
                                0.00   -569.16      0.00
                               -0.00     -0.00   -569.16

     ewald   stress (kbar) -17118.21      0.00     -0.00
                                0.00 -17118.21      0.00
                               -0.00      0.00 -17118.21

     hubbard stress (kbar)      0.00      0.00      0.00
                                0.00      0.00      0.00
                                0.00      0.00      0.00

     london  stress (kbar)      0.00      0.00      0.00
                                0.00      0.00      0.00
                                0.00      0.00      0.00

     DFT-D3  stress (kbar)      0.00      0.00      0.00
                                0.00      0.00      0.00
                                0.00      0.00      0.00

     XDM     stress (kbar)      0.00      0.00      0.00
                                0.00      0.00      0.00
                                0.00      0.00      0.00

     dft-nl  stress (kbar)      0.00      0.00      0.00
                                0.00      0.00      0.00
                                0.00      0.00      0.00

     TS-vdW  stress (kbar)      0.00      0.00      0.00
                                0.00      0.00      0.00
                                0.00      0.00      0.00


 
     init_run     :      1.80s CPU      2.02s WALL (       2 calls)
     electrons    :    409.23s CPU    449.25s WALL (      11 calls)
     update_pot   :      1.68s CPU      1.72s WALL (       9 calls)
     forces       :      2.49s CPU      2.53s WALL (      11 calls)
     stress       :      5.20s CPU      5.23s WALL (      11 calls)

     Called by init_run:
     wfcinit      :      1.25s CPU      1.39s WALL (       2 calls)
     wfcinit:atom :      0.01s CPU      0.01s WALL (     240 calls)
     wfcinit:wfcr :      1.19s CPU      1.32s WALL (     240 calls)
     potinit      :      0.05s CPU      0.05s WALL (       2 calls)
     hinit0       :      0.49s CPU      0.54s WALL (       2 calls)

     Called by electrons:
     c_bands      :    372.96s CPU    411.10s WALL (     182 calls)
     sum_band     :     34.56s CPU     36.24s WALL (     182 calls)
     v_of_rho     :      0.38s CPU      0.38s WALL (     191 calls)
     v_h          :      0.03s CPU      0.03s WALL (     191 calls)
     v_xc         :      0.39s CPU      0.39s WALL (     213 calls)
     newd         :      1.23s CPU      1.24s WALL (     191 calls)
     mix_rho      :      0.14s CPU      0.14s WALL (     182 calls)

     Called by c_bands:
     init_us_2    :      4.04s CPU      4.21s WALL (   46560 calls)
     cegterg      :    359.36s CPU    397.12s WALL (   21840 calls)

     Called by sum_band:
     sum_band:bec :      0.38s CPU      0.40s WALL (   21840 calls)
     addusdens    :      1.22s CPU      1.24s WALL (     182 calls)

     Called by *egterg:
     h_psi        :    138.95s CPU    146.31s WALL (   71596 calls)
     s_psi        :      3.69s CPU      3.91s WALL (   71596 calls)
     g_psi        :      1.00s CPU      1.02s WALL (   49516 calls)
     cdiaghg      :    167.98s CPU    189.39s WALL (   70036 calls)
     cegterg:over :     27.79s CPU     36.04s WALL (   49516 calls)
     cegterg:upda :      9.32s CPU      9.59s WALL (   49516 calls)
     cegterg:last :      4.01s CPU      4.13s WALL (   22680 calls)
     cdiaghg:chol :      5.48s CPU      6.42s WALL (   70036 calls)
     cdiaghg:inve :      4.12s CPU      4.80s WALL (   70036 calls)
     cdiaghg:para :      9.27s CPU      9.85s WALL (  140072 calls)

     Called by h_psi:
     h_psi:pot    :    138.56s CPU    145.91s WALL (   71596 calls)
     h_psi:calbec :      6.45s CPU      6.81s WALL (   71596 calls)
     vloc_psi     :    127.95s CPU    134.71s WALL (   71596 calls)
     add_vuspsi   :      3.87s CPU      4.11s WALL (   71596 calls)

     General routines
     calbec       :      9.86s CPU     10.37s WALL (  100036 calls)
     fft          :      0.49s CPU      0.52s WALL (    2398 calls)
     ffts         :      0.03s CPU      0.03s WALL (     182 calls)
     fftw         :    145.63s CPU    153.27s WALL ( 2656782 calls)
 
     Parallel routines
     fft_scatt_xy :     11.70s CPU     12.34s WALL ( 2659362 calls)
     fft_scatt_yz :     91.11s CPU     96.23s WALL ( 2659362 calls)
 
     PWSCF        :  7m 0.57s CPU     7m41.15s WALL

 
   This run was terminated on:   3:30:43  26Mar2019            

=------------------------------------------------------------------------------=
   JOB DONE.
=------------------------------------------------------------------------------=
