
     Program PWSCF v.6.3MaX starts on 27Mar2019 at 10: 1:29 

     This program is part of the open-source Quantum ESPRESSO suite
     for quantum simulation of materials; please cite
         "P. Giannozzi et al., J. Phys.:Condens. Matter 21 395502 (2009);
         "P. Giannozzi et al., J. Phys.:Condens. Matter 29 465901 (2017);
          URL http://www.quantum-espresso.org", 
     in publications or presentations arising from this work. More details at
     http://www.quantum-espresso.org/quote

 *** WARNING: using old-style file format, will disappear from next version ***

     Parallel version (MPI & OpenMP), running on      20 processor cores
     Number of MPI processes:                20
     Threads/MPI process:                     1

     MPI processes distributed on     1 nodes
     R & G space division:  proc/nbgrp/npool/nimage =      20
     Reading input from /home/azadoks/dftman/projects/Dielectric Test/LocalJobs/Si_vc-relax_f7a2011a37eb/pwscf.in
Warning: card &CELL ignored
Warning: card / ignored

     Current dimensions of program PWSCF are:
     Max number of different atomic species (ntypx) = 10
     Max number of k-points (npk) =  40000
     Max angular momentum in pseudopotentials (lmaxx) =  3
     Message from routine iosys:
     minimal I/O required, wf_collect reset to FALSE

     Subspace diagonalization in iterative solution of the eigenvalue problem:
     one sub-group per band group will be used
     scalapack distributed-memory algorithm (size of sub-group:  3*  3 procs)

 
     Parallelization info
     --------------------
     sticks:   dense  smooth     PW     G-vecs:    dense   smooth      PW
     Min          25      25      9                  385      385      81
     Max          26      26     10                  388      388      83
     Sum         511     511    187                 7727     7727    1639
 


     bravais-lattice index     =            0
     lattice parameter (alat)  =       7.3075  a.u.
     unit-cell volume          =     275.9279 (a.u.)^3
     number of atoms/cell      =            2
     number of atomic types    =            1
     number of electrons       =         8.00
     number of Kohn-Sham states=            4
     kinetic-energy cutoff     =      35.0000  Ry
     charge density cutoff     =     140.0000  Ry
     convergence threshold     =      1.0E-08
     mixing beta               =       0.7000
     number of iterations used =            8  plain     mixing
     Exchange-correlation      =  SLA  PW   PBE  PBE ( 1  4  3  4 0 0)
     nstep                     =           50

 
     Using Berry phase electric field
     In a.u.(Ry)  cartesian system of reference
        0.0000000000
        0.0000000000
        0.0000000000
     In a.u.(Ry)  crystal system of reference
        0.0000000000
        0.0000000000
        0.0000000000
     Number of iterative cycles:   1
 

     celldm(1)=   7.307522  celldm(2)=   0.000000  celldm(3)=   0.000000
     celldm(4)=   0.000000  celldm(5)=   0.000000  celldm(6)=   0.000000

     crystal axes: (cart. coord. in units of alat)
               a(1) = (   0.866025   0.000000   0.500000 )  
               a(2) = (   0.288675   0.816497   0.500000 )  
               a(3) = (   0.000000   0.000000   1.000000 )  

     reciprocal axes: (cart. coord. in units 2 pi/alat)
               b(1) = (  1.154701 -0.408248  0.000000 )  
               b(2) = (  0.000000  1.224745  0.000000 )  
               b(3) = ( -0.577350 -0.408248  1.000000 )  


     PseudoPot. # 1 for Si read from file:
     /home/azadoks/.local/share/pseudo/DFTQE_PBE/Si_PBE.UPF
     MD5 check sum: cf7ab5690cd9a85b22c4813f7e365554
     Pseudo is Norm-conserving, Zval =  4.0
     Generated by new atomic code, or converted to UPF format
     Using radial grid of  883 points,  3 beta functions with: 
                l(1) =   0
                l(2) =   0
                l(3) =   1

     atomic species   valence    mass     pseudopotential
        Si             4.00    28.08550     Si( 1.00)

     No symmetry found


                                    s                        frac. trans.

      isym =  1     identity                                     

 cryst.   s( 1) = (     1          0          0      )
                  (     0          1          0      )
                  (     0          0          1      )

 cart.    s( 1) = (  1.0000000 -0.0000000  0.0000000 )
                  (  0.0000000  1.0000000  0.0000000 )
                  ( -0.0000000 -0.0000000  1.0000000 )


   Cartesian axes

     site n.     atom                  positions (alat units)
         1           Si  tau(   1) = (   1.0103629   0.7144347   1.7500001  )
         2           Si  tau(   2) = (   0.1443376   0.1020621   0.2500000  )

   Crystallographic axes

     site n.     atom                  positions (cryst. coord.)
         1           Si  tau(   1) = (  0.8750000  0.8750000  0.8750000  )
         2           Si  tau(   2) = (  0.1250000  0.1250000  0.1250000  )

     number of k points=  1728
                       cart. coord. in units 2pi/alat
        k(    1) = (   0.0000000   0.0000000   0.0000000), wk =   0.0011574
        k(    2) = (  -0.0481125  -0.0340207   0.0833333), wk =   0.0011574
        k(    3) = (  -0.0962250  -0.0680414   0.1666666), wk =   0.0011574
        k(    4) = (  -0.1443375  -0.1020620   0.2500000), wk =   0.0011574
        k(    5) = (  -0.1924500  -0.1360827   0.3333333), wk =   0.0011574
        k(    6) = (  -0.2405625  -0.1701034   0.4166666), wk =   0.0011574
        k(    7) = (  -0.2886751  -0.2041241   0.4999999), wk =   0.0011574
        k(    8) = (  -0.3367876  -0.2381448   0.5833332), wk =   0.0011574
        k(    9) = (  -0.3849001  -0.2721654   0.6666665), wk =   0.0011574
        k(   10) = (  -0.4330126  -0.3061861   0.7499999), wk =   0.0011574
        k(   11) = (  -0.4811251  -0.3402068   0.8333332), wk =   0.0011574
        k(   12) = (  -0.5292376  -0.3742275   0.9166665), wk =   0.0011574
        k(   13) = (   0.0000000   0.1020620   0.0000000), wk =   0.0011574
        k(   14) = (  -0.0481125   0.0680414   0.0833333), wk =   0.0011574
        k(   15) = (  -0.0962250   0.0340207   0.1666666), wk =   0.0011574
        k(   16) = (  -0.1443375   0.0000000   0.2500000), wk =   0.0011574
        k(   17) = (  -0.1924500  -0.0340207   0.3333333), wk =   0.0011574
        k(   18) = (  -0.2405625  -0.0680413   0.4166666), wk =   0.0011574
        k(   19) = (  -0.2886751  -0.1020620   0.4999999), wk =   0.0011574
        k(   20) = (  -0.3367876  -0.1360827   0.5833332), wk =   0.0011574
        k(   21) = (  -0.3849001  -0.1701034   0.6666665), wk =   0.0011574
        k(   22) = (  -0.4330126  -0.2041241   0.7499999), wk =   0.0011574
        k(   23) = (  -0.4811251  -0.2381447   0.8333332), wk =   0.0011574
        k(   24) = (  -0.5292376  -0.2721654   0.9166665), wk =   0.0011574
        k(   25) = (   0.0000000   0.2041241   0.0000000), wk =   0.0011574
        k(   26) = (  -0.0481125   0.1701034   0.0833333), wk =   0.0011574
        k(   27) = (  -0.0962250   0.1360827   0.1666666), wk =   0.0011574
        k(   28) = (  -0.1443375   0.1020621   0.2500000), wk =   0.0011574
        k(   29) = (  -0.1924500   0.0680414   0.3333333), wk =   0.0011574
        k(   30) = (  -0.2405625   0.0340207   0.4166666), wk =   0.0011574
        k(   31) = (  -0.2886751   0.0000000   0.4999999), wk =   0.0011574
        k(   32) = (  -0.3367876  -0.0340207   0.5833332), wk =   0.0011574
        k(   33) = (  -0.3849001  -0.0680413   0.6666665), wk =   0.0011574
        k(   34) = (  -0.4330126  -0.1020620   0.7499999), wk =   0.0011574
        k(   35) = (  -0.4811251  -0.1360827   0.8333332), wk =   0.0011574
        k(   36) = (  -0.5292376  -0.1701034   0.9166665), wk =   0.0011574
        k(   37) = (   0.0000000   0.3061861   0.0000000), wk =   0.0011574
        k(   38) = (  -0.0481125   0.2721655   0.0833333), wk =   0.0011574
        k(   39) = (  -0.0962250   0.2381448   0.1666666), wk =   0.0011574
        k(   40) = (  -0.1443375   0.2041241   0.2500000), wk =   0.0011574
        k(   41) = (  -0.1924500   0.1701034   0.3333333), wk =   0.0011574
        k(   42) = (  -0.2405625   0.1360827   0.4166666), wk =   0.0011574
        k(   43) = (  -0.2886751   0.1020621   0.4999999), wk =   0.0011574
        k(   44) = (  -0.3367876   0.0680414   0.5833332), wk =   0.0011574
        k(   45) = (  -0.3849001   0.0340207   0.6666665), wk =   0.0011574
        k(   46) = (  -0.4330126   0.0000000   0.7499999), wk =   0.0011574
        k(   47) = (  -0.4811251  -0.0340206   0.8333332), wk =   0.0011574
        k(   48) = (  -0.5292376  -0.0680413   0.9166665), wk =   0.0011574
        k(   49) = (   0.0000000   0.4082482   0.0000000), wk =   0.0011574
        k(   50) = (  -0.0481125   0.3742275   0.0833333), wk =   0.0011574
        k(   51) = (  -0.0962250   0.3402068   0.1666666), wk =   0.0011574
        k(   52) = (  -0.1443375   0.3061862   0.2500000), wk =   0.0011574
        k(   53) = (  -0.1924500   0.2721655   0.3333333), wk =   0.0011574
        k(   54) = (  -0.2405625   0.2381448   0.4166666), wk =   0.0011574
        k(   55) = (  -0.2886751   0.2041241   0.4999999), wk =   0.0011574
        k(   56) = (  -0.3367876   0.1701034   0.5833332), wk =   0.0011574
        k(   57) = (  -0.3849001   0.1360828   0.6666665), wk =   0.0011574
        k(   58) = (  -0.4330126   0.1020621   0.7499999), wk =   0.0011574
        k(   59) = (  -0.4811251   0.0680414   0.8333332), wk =   0.0011574
        k(   60) = (  -0.5292376   0.0340207   0.9166665), wk =   0.0011574
        k(   61) = (   0.0000000   0.5103102   0.0000000), wk =   0.0011574
        k(   62) = (  -0.0481125   0.4762896   0.0833333), wk =   0.0011574
        k(   63) = (  -0.0962250   0.4422689   0.1666666), wk =   0.0011574
        k(   64) = (  -0.1443375   0.4082482   0.2500000), wk =   0.0011574
        k(   65) = (  -0.1924500   0.3742275   0.3333333), wk =   0.0011574
        k(   66) = (  -0.2405625   0.3402068   0.4166666), wk =   0.0011574
        k(   67) = (  -0.2886751   0.3061862   0.4999999), wk =   0.0011574
        k(   68) = (  -0.3367876   0.2721655   0.5833332), wk =   0.0011574
        k(   69) = (  -0.3849001   0.2381448   0.6666665), wk =   0.0011574
        k(   70) = (  -0.4330126   0.2041241   0.7499999), wk =   0.0011574
        k(   71) = (  -0.4811251   0.1701035   0.8333332), wk =   0.0011574
        k(   72) = (  -0.5292376   0.1360828   0.9166665), wk =   0.0011574
        k(   73) = (   0.0000000   0.6123723   0.0000000), wk =   0.0011574
        k(   74) = (  -0.0481125   0.5783516   0.0833333), wk =   0.0011574
        k(   75) = (  -0.0962250   0.5443309   0.1666666), wk =   0.0011574
        k(   76) = (  -0.1443375   0.5103103   0.2500000), wk =   0.0011574
        k(   77) = (  -0.1924500   0.4762896   0.3333333), wk =   0.0011574
        k(   78) = (  -0.2405625   0.4422689   0.4166666), wk =   0.0011574
        k(   79) = (  -0.2886751   0.4082482   0.4999999), wk =   0.0011574
        k(   80) = (  -0.3367876   0.3742275   0.5833332), wk =   0.0011574
        k(   81) = (  -0.3849001   0.3402069   0.6666665), wk =   0.0011574
        k(   82) = (  -0.4330126   0.3061862   0.7499999), wk =   0.0011574
        k(   83) = (  -0.4811251   0.2721655   0.8333332), wk =   0.0011574
        k(   84) = (  -0.5292376   0.2381448   0.9166665), wk =   0.0011574
        k(   85) = (   0.0000000   0.7144343   0.0000000), wk =   0.0011574
        k(   86) = (  -0.0481125   0.6804137   0.0833333), wk =   0.0011574
        k(   87) = (  -0.0962250   0.6463930   0.1666666), wk =   0.0011574
        k(   88) = (  -0.1443375   0.6123723   0.2500000), wk =   0.0011574
        k(   89) = (  -0.1924500   0.5783516   0.3333333), wk =   0.0011574
        k(   90) = (  -0.2405625   0.5443309   0.4166666), wk =   0.0011574
        k(   91) = (  -0.2886751   0.5103103   0.4999999), wk =   0.0011574
        k(   92) = (  -0.3367876   0.4762896   0.5833332), wk =   0.0011574
        k(   93) = (  -0.3849001   0.4422689   0.6666665), wk =   0.0011574
        k(   94) = (  -0.4330126   0.4082482   0.7499999), wk =   0.0011574
        k(   95) = (  -0.4811251   0.3742275   0.8333332), wk =   0.0011574
        k(   96) = (  -0.5292376   0.3402069   0.9166665), wk =   0.0011574
        k(   97) = (   0.0000000   0.8164964   0.0000000), wk =   0.0011574
        k(   98) = (  -0.0481125   0.7824757   0.0833333), wk =   0.0011574
        k(   99) = (  -0.0962250   0.7484550   0.1666666), wk =   0.0011574
        k(  100) = (  -0.1443375   0.7144343   0.2500000), wk =   0.0011574
        k(  101) = (  -0.1924500   0.6804137   0.3333333), wk =   0.0011574
        k(  102) = (  -0.2405625   0.6463930   0.4166666), wk =   0.0011574
        k(  103) = (  -0.2886751   0.6123723   0.4999999), wk =   0.0011574
        k(  104) = (  -0.3367876   0.5783516   0.5833332), wk =   0.0011574
        k(  105) = (  -0.3849001   0.5443310   0.6666665), wk =   0.0011574
        k(  106) = (  -0.4330126   0.5103103   0.7499999), wk =   0.0011574
        k(  107) = (  -0.4811251   0.4762896   0.8333332), wk =   0.0011574
        k(  108) = (  -0.5292376   0.4422689   0.9166665), wk =   0.0011574
        k(  109) = (   0.0000000   0.9185584   0.0000000), wk =   0.0011574
        k(  110) = (  -0.0481125   0.8845378   0.0833333), wk =   0.0011574
        k(  111) = (  -0.0962250   0.8505171   0.1666666), wk =   0.0011574
        k(  112) = (  -0.1443375   0.8164964   0.2500000), wk =   0.0011574
        k(  113) = (  -0.1924500   0.7824757   0.3333333), wk =   0.0011574
        k(  114) = (  -0.2405625   0.7484550   0.4166666), wk =   0.0011574
        k(  115) = (  -0.2886751   0.7144344   0.4999999), wk =   0.0011574
        k(  116) = (  -0.3367876   0.6804137   0.5833332), wk =   0.0011574
        k(  117) = (  -0.3849001   0.6463930   0.6666665), wk =   0.0011574
        k(  118) = (  -0.4330126   0.6123723   0.7499999), wk =   0.0011574
        k(  119) = (  -0.4811251   0.5783516   0.8333332), wk =   0.0011574
        k(  120) = (  -0.5292376   0.5443310   0.9166665), wk =   0.0011574
        k(  121) = (   0.0000000   1.0206205   0.0000000), wk =   0.0011574
        k(  122) = (  -0.0481125   0.9865998   0.0833333), wk =   0.0011574
        k(  123) = (  -0.0962250   0.9525791   0.1666666), wk =   0.0011574
        k(  124) = (  -0.1443375   0.9185584   0.2500000), wk =   0.0011574
        k(  125) = (  -0.1924500   0.8845378   0.3333333), wk =   0.0011574
        k(  126) = (  -0.2405625   0.8505171   0.4166666), wk =   0.0011574
        k(  127) = (  -0.2886751   0.8164964   0.4999999), wk =   0.0011574
        k(  128) = (  -0.3367876   0.7824757   0.5833332), wk =   0.0011574
        k(  129) = (  -0.3849001   0.7484551   0.6666665), wk =   0.0011574
        k(  130) = (  -0.4330126   0.7144344   0.7499999), wk =   0.0011574
        k(  131) = (  -0.4811251   0.6804137   0.8333332), wk =   0.0011574
        k(  132) = (  -0.5292376   0.6463930   0.9166665), wk =   0.0011574
        k(  133) = (   0.0000000   1.1226825   0.0000000), wk =   0.0011574
        k(  134) = (  -0.0481125   1.0886619   0.0833333), wk =   0.0011574
        k(  135) = (  -0.0962250   1.0546412   0.1666666), wk =   0.0011574
        k(  136) = (  -0.1443375   1.0206205   0.2500000), wk =   0.0011574
        k(  137) = (  -0.1924500   0.9865998   0.3333333), wk =   0.0011574
        k(  138) = (  -0.2405625   0.9525791   0.4166666), wk =   0.0011574
        k(  139) = (  -0.2886751   0.9185585   0.4999999), wk =   0.0011574
        k(  140) = (  -0.3367876   0.8845378   0.5833332), wk =   0.0011574
        k(  141) = (  -0.3849001   0.8505171   0.6666665), wk =   0.0011574
        k(  142) = (  -0.4330126   0.8164964   0.7499999), wk =   0.0011574
        k(  143) = (  -0.4811251   0.7824757   0.8333332), wk =   0.0011574
        k(  144) = (  -0.5292376   0.7484551   0.9166665), wk =   0.0011574
        k(  145) = (   0.0962250  -0.0340207   0.0000000), wk =   0.0011574
        k(  146) = (   0.0481125  -0.0680414   0.0833333), wk =   0.0011574
        k(  147) = (   0.0000000  -0.1020620   0.1666666), wk =   0.0011574
        k(  148) = (  -0.0481125  -0.1360827   0.2500000), wk =   0.0011574
        k(  149) = (  -0.0962250  -0.1701034   0.3333333), wk =   0.0011574
        k(  150) = (  -0.1443375  -0.2041241   0.4166666), wk =   0.0011574
        k(  151) = (  -0.1924500  -0.2381447   0.4999999), wk =   0.0011574
        k(  152) = (  -0.2405625  -0.2721654   0.5833332), wk =   0.0011574
        k(  153) = (  -0.2886750  -0.3061861   0.6666665), wk =   0.0011574
        k(  154) = (  -0.3367875  -0.3402068   0.7499999), wk =   0.0011574
        k(  155) = (  -0.3849000  -0.3742275   0.8333332), wk =   0.0011574
        k(  156) = (  -0.4330126  -0.4082481   0.9166665), wk =   0.0011574
        k(  157) = (   0.0962250   0.0680414   0.0000000), wk =   0.0011574
        k(  158) = (   0.0481125   0.0340207   0.0833333), wk =   0.0011574
        k(  159) = (   0.0000000   0.0000000   0.1666666), wk =   0.0011574
        k(  160) = (  -0.0481125  -0.0340207   0.2500000), wk =   0.0011574
        k(  161) = (  -0.0962250  -0.0680413   0.3333333), wk =   0.0011574
        k(  162) = (  -0.1443375  -0.1020620   0.4166666), wk =   0.0011574
        k(  163) = (  -0.1924500  -0.1360827   0.4999999), wk =   0.0011574
        k(  164) = (  -0.2405625  -0.1701034   0.5833332), wk =   0.0011574
        k(  165) = (  -0.2886750  -0.2041241   0.6666665), wk =   0.0011574
        k(  166) = (  -0.3367875  -0.2381447   0.7499999), wk =   0.0011574
        k(  167) = (  -0.3849000  -0.2721654   0.8333332), wk =   0.0011574
        k(  168) = (  -0.4330126  -0.3061861   0.9166665), wk =   0.0011574
        k(  169) = (   0.0962250   0.1701034   0.0000000), wk =   0.0011574
        k(  170) = (   0.0481125   0.1360827   0.0833333), wk =   0.0011574
        k(  171) = (   0.0000000   0.1020621   0.1666666), wk =   0.0011574
        k(  172) = (  -0.0481125   0.0680414   0.2500000), wk =   0.0011574
        k(  173) = (  -0.0962250   0.0340207   0.3333333), wk =   0.0011574
        k(  174) = (  -0.1443375   0.0000000   0.4166666), wk =   0.0011574
        k(  175) = (  -0.1924500  -0.0340207   0.4999999), wk =   0.0011574
        k(  176) = (  -0.2405625  -0.0680413   0.5833332), wk =   0.0011574
        k(  177) = (  -0.2886750  -0.1020620   0.6666665), wk =   0.0011574
        k(  178) = (  -0.3367875  -0.1360827   0.7499999), wk =   0.0011574
        k(  179) = (  -0.3849000  -0.1701034   0.8333332), wk =   0.0011574
        k(  180) = (  -0.4330126  -0.2041240   0.9166665), wk =   0.0011574
        k(  181) = (   0.0962250   0.2721655   0.0000000), wk =   0.0011574
        k(  182) = (   0.0481125   0.2381448   0.0833333), wk =   0.0011574
        k(  183) = (   0.0000000   0.2041241   0.1666666), wk =   0.0011574
        k(  184) = (  -0.0481125   0.1701034   0.2500000), wk =   0.0011574
        k(  185) = (  -0.0962250   0.1360828   0.3333333), wk =   0.0011574
        k(  186) = (  -0.1443375   0.1020621   0.4166666), wk =   0.0011574
        k(  187) = (  -0.1924500   0.0680414   0.4999999), wk =   0.0011574
        k(  188) = (  -0.2405625   0.0340207   0.5833332), wk =   0.0011574
        k(  189) = (  -0.2886750   0.0000000   0.6666665), wk =   0.0011574
        k(  190) = (  -0.3367875  -0.0340206   0.7499999), wk =   0.0011574
        k(  191) = (  -0.3849000  -0.0680413   0.8333332), wk =   0.0011574
        k(  192) = (  -0.4330126  -0.1020620   0.9166665), wk =   0.0011574
        k(  193) = (   0.0962250   0.3742275   0.0000000), wk =   0.0011574
        k(  194) = (   0.0481125   0.3402068   0.0833333), wk =   0.0011574
        k(  195) = (   0.0000000   0.3061862   0.1666666), wk =   0.0011574
        k(  196) = (  -0.0481125   0.2721655   0.2500000), wk =   0.0011574
        k(  197) = (  -0.0962250   0.2381448   0.3333333), wk =   0.0011574
        k(  198) = (  -0.1443375   0.2041241   0.4166666), wk =   0.0011574
        k(  199) = (  -0.1924500   0.1701034   0.4999999), wk =   0.0011574
        k(  200) = (  -0.2405625   0.1360828   0.5833332), wk =   0.0011574
        k(  201) = (  -0.2886750   0.1020621   0.6666665), wk =   0.0011574
        k(  202) = (  -0.3367875   0.0680414   0.7499999), wk =   0.0011574
        k(  203) = (  -0.3849000   0.0340207   0.8333332), wk =   0.0011574
        k(  204) = (  -0.4330126   0.0000001   0.9166665), wk =   0.0011574
        k(  205) = (   0.0962250   0.4762896   0.0000000), wk =   0.0011574
        k(  206) = (   0.0481125   0.4422689   0.0833333), wk =   0.0011574
        k(  207) = (   0.0000000   0.4082482   0.1666666), wk =   0.0011574
        k(  208) = (  -0.0481125   0.3742275   0.2500000), wk =   0.0011574
        k(  209) = (  -0.0962250   0.3402069   0.3333333), wk =   0.0011574
        k(  210) = (  -0.1443375   0.3061862   0.4166666), wk =   0.0011574
        k(  211) = (  -0.1924500   0.2721655   0.4999999), wk =   0.0011574
        k(  212) = (  -0.2405625   0.2381448   0.5833332), wk =   0.0011574
        k(  213) = (  -0.2886750   0.2041241   0.6666665), wk =   0.0011574
        k(  214) = (  -0.3367875   0.1701035   0.7499999), wk =   0.0011574
        k(  215) = (  -0.3849000   0.1360828   0.8333332), wk =   0.0011574
        k(  216) = (  -0.4330126   0.1020621   0.9166665), wk =   0.0011574
        k(  217) = (   0.0962250   0.5783516   0.0000000), wk =   0.0011574
        k(  218) = (   0.0481125   0.5443309   0.0833333), wk =   0.0011574
        k(  219) = (   0.0000000   0.5103103   0.1666666), wk =   0.0011574
        k(  220) = (  -0.0481125   0.4762896   0.2500000), wk =   0.0011574
        k(  221) = (  -0.0962250   0.4422689   0.3333333), wk =   0.0011574
        k(  222) = (  -0.1443375   0.4082482   0.4166666), wk =   0.0011574
        k(  223) = (  -0.1924500   0.3742275   0.4999999), wk =   0.0011574
        k(  224) = (  -0.2405625   0.3402069   0.5833332), wk =   0.0011574
        k(  225) = (  -0.2886750   0.3061862   0.6666665), wk =   0.0011574
        k(  226) = (  -0.3367875   0.2721655   0.7499999), wk =   0.0011574
        k(  227) = (  -0.3849000   0.2381448   0.8333332), wk =   0.0011574
        k(  228) = (  -0.4330126   0.2041241   0.9166665), wk =   0.0011574
        k(  229) = (   0.0962250   0.6804137   0.0000000), wk =   0.0011574
        k(  230) = (   0.0481125   0.6463930   0.0833333), wk =   0.0011574
        k(  231) = (   0.0000000   0.6123723   0.1666666), wk =   0.0011574
        k(  232) = (  -0.0481125   0.5783516   0.2500000), wk =   0.0011574
        k(  233) = (  -0.0962250   0.5443309   0.3333333), wk =   0.0011574
        k(  234) = (  -0.1443375   0.5103103   0.4166666), wk =   0.0011574
        k(  235) = (  -0.1924500   0.4762896   0.4999999), wk =   0.0011574
        k(  236) = (  -0.2405625   0.4422689   0.5833332), wk =   0.0011574
        k(  237) = (  -0.2886750   0.4082482   0.6666665), wk =   0.0011574
        k(  238) = (  -0.3367875   0.3742276   0.7499999), wk =   0.0011574
        k(  239) = (  -0.3849000   0.3402069   0.8333332), wk =   0.0011574
        k(  240) = (  -0.4330126   0.3061862   0.9166665), wk =   0.0011574
        k(  241) = (   0.0962250   0.7824757   0.0000000), wk =   0.0011574
        k(  242) = (   0.0481125   0.7484550   0.0833333), wk =   0.0011574
        k(  243) = (   0.0000000   0.7144344   0.1666666), wk =   0.0011574
        k(  244) = (  -0.0481125   0.6804137   0.2500000), wk =   0.0011574
        k(  245) = (  -0.0962250   0.6463930   0.3333333), wk =   0.0011574
        k(  246) = (  -0.1443375   0.6123723   0.4166666), wk =   0.0011574
        k(  247) = (  -0.1924500   0.5783516   0.4999999), wk =   0.0011574
        k(  248) = (  -0.2405625   0.5443310   0.5833332), wk =   0.0011574
        k(  249) = (  -0.2886750   0.5103103   0.6666665), wk =   0.0011574
        k(  250) = (  -0.3367875   0.4762896   0.7499999), wk =   0.0011574
        k(  251) = (  -0.3849000   0.4422689   0.8333332), wk =   0.0011574
        k(  252) = (  -0.4330126   0.4082482   0.9166665), wk =   0.0011574
        k(  253) = (   0.0962250   0.8845378   0.0000000), wk =   0.0011574
        k(  254) = (   0.0481125   0.8505171   0.0833333), wk =   0.0011574
        k(  255) = (   0.0000000   0.8164964   0.1666666), wk =   0.0011574
        k(  256) = (  -0.0481125   0.7824757   0.2500000), wk =   0.0011574
        k(  257) = (  -0.0962250   0.7484550   0.3333333), wk =   0.0011574
        k(  258) = (  -0.1443375   0.7144344   0.4166666), wk =   0.0011574
        k(  259) = (  -0.1924500   0.6804137   0.4999999), wk =   0.0011574
        k(  260) = (  -0.2405625   0.6463930   0.5833332), wk =   0.0011574
        k(  261) = (  -0.2886750   0.6123723   0.6666665), wk =   0.0011574
        k(  262) = (  -0.3367875   0.5783517   0.7499999), wk =   0.0011574
        k(  263) = (  -0.3849000   0.5443310   0.8333332), wk =   0.0011574
        k(  264) = (  -0.4330126   0.5103103   0.9166665), wk =   0.0011574
        k(  265) = (   0.0962250   0.9865998   0.0000000), wk =   0.0011574
        k(  266) = (   0.0481125   0.9525791   0.0833333), wk =   0.0011574
        k(  267) = (   0.0000000   0.9185585   0.1666666), wk =   0.0011574
        k(  268) = (  -0.0481125   0.8845378   0.2500000), wk =   0.0011574
        k(  269) = (  -0.0962250   0.8505171   0.3333333), wk =   0.0011574
        k(  270) = (  -0.1443375   0.8164964   0.4166666), wk =   0.0011574
        k(  271) = (  -0.1924500   0.7824757   0.4999999), wk =   0.0011574
        k(  272) = (  -0.2405625   0.7484551   0.5833332), wk =   0.0011574
        k(  273) = (  -0.2886750   0.7144344   0.6666665), wk =   0.0011574
        k(  274) = (  -0.3367875   0.6804137   0.7499999), wk =   0.0011574
        k(  275) = (  -0.3849000   0.6463930   0.8333332), wk =   0.0011574
        k(  276) = (  -0.4330126   0.6123723   0.9166665), wk =   0.0011574
        k(  277) = (   0.0962250   1.0886619   0.0000000), wk =   0.0011574
        k(  278) = (   0.0481125   1.0546412   0.0833333), wk =   0.0011574
        k(  279) = (   0.0000000   1.0206205   0.1666666), wk =   0.0011574
        k(  280) = (  -0.0481125   0.9865998   0.2500000), wk =   0.0011574
        k(  281) = (  -0.0962250   0.9525791   0.3333333), wk =   0.0011574
        k(  282) = (  -0.1443375   0.9185585   0.4166666), wk =   0.0011574
        k(  283) = (  -0.1924500   0.8845378   0.4999999), wk =   0.0011574
        k(  284) = (  -0.2405625   0.8505171   0.5833332), wk =   0.0011574
        k(  285) = (  -0.2886750   0.8164964   0.6666665), wk =   0.0011574
        k(  286) = (  -0.3367875   0.7824757   0.7499999), wk =   0.0011574
        k(  287) = (  -0.3849000   0.7484551   0.8333332), wk =   0.0011574
        k(  288) = (  -0.4330126   0.7144344   0.9166665), wk =   0.0011574
        k(  289) = (   0.1924501  -0.0680413   0.0000000), wk =   0.0011574
        k(  290) = (   0.1443376  -0.1020620   0.0833333), wk =   0.0011574
        k(  291) = (   0.0962251  -0.1360827   0.1666666), wk =   0.0011574
        k(  292) = (   0.0481126  -0.1701034   0.2500000), wk =   0.0011574
        k(  293) = (   0.0000000  -0.2041241   0.3333333), wk =   0.0011574
        k(  294) = (  -0.0481125  -0.2381447   0.4166666), wk =   0.0011574
        k(  295) = (  -0.0962250  -0.2721654   0.4999999), wk =   0.0011574
        k(  296) = (  -0.1443375  -0.3061861   0.5833332), wk =   0.0011574
        k(  297) = (  -0.1924500  -0.3402068   0.6666665), wk =   0.0011574
        k(  298) = (  -0.2405625  -0.3742275   0.7499999), wk =   0.0011574
        k(  299) = (  -0.2886750  -0.4082481   0.8333332), wk =   0.0011574
        k(  300) = (  -0.3367875  -0.4422688   0.9166665), wk =   0.0011574
        k(  301) = (   0.1924501   0.0340207   0.0000000), wk =   0.0011574
        k(  302) = (   0.1443376   0.0000000   0.0833333), wk =   0.0011574
        k(  303) = (   0.0962251  -0.0340207   0.1666666), wk =   0.0011574
        k(  304) = (   0.0481126  -0.0680413   0.2500000), wk =   0.0011574
        k(  305) = (   0.0000000  -0.1020620   0.3333333), wk =   0.0011574
        k(  306) = (  -0.0481125  -0.1360827   0.4166666), wk =   0.0011574
        k(  307) = (  -0.0962250  -0.1701034   0.4999999), wk =   0.0011574
        k(  308) = (  -0.1443375  -0.2041241   0.5833332), wk =   0.0011574
        k(  309) = (  -0.1924500  -0.2381447   0.6666665), wk =   0.0011574
        k(  310) = (  -0.2405625  -0.2721654   0.7499999), wk =   0.0011574
        k(  311) = (  -0.2886750  -0.3061861   0.8333332), wk =   0.0011574
        k(  312) = (  -0.3367875  -0.3402068   0.9166665), wk =   0.0011574
        k(  313) = (   0.1924501   0.1360828   0.0000000), wk =   0.0011574
        k(  314) = (   0.1443376   0.1020621   0.0833333), wk =   0.0011574
        k(  315) = (   0.0962251   0.0680414   0.1666666), wk =   0.0011574
        k(  316) = (   0.0481126   0.0340207   0.2500000), wk =   0.0011574
        k(  317) = (   0.0000000   0.0000000   0.3333333), wk =   0.0011574
        k(  318) = (  -0.0481125  -0.0340206   0.4166666), wk =   0.0011574
        k(  319) = (  -0.0962250  -0.0680413   0.4999999), wk =   0.0011574
        k(  320) = (  -0.1443375  -0.1020620   0.5833332), wk =   0.0011574
        k(  321) = (  -0.1924500  -0.1360827   0.6666665), wk =   0.0011574
        k(  322) = (  -0.2405625  -0.1701034   0.7499999), wk =   0.0011574
        k(  323) = (  -0.2886750  -0.2041240   0.8333332), wk =   0.0011574
        k(  324) = (  -0.3367875  -0.2381447   0.9166665), wk =   0.0011574
        k(  325) = (   0.1924501   0.2381448   0.0000000), wk =   0.0011574
        k(  326) = (   0.1443376   0.2041241   0.0833333), wk =   0.0011574
        k(  327) = (   0.0962251   0.1701034   0.1666666), wk =   0.0011574
        k(  328) = (   0.0481126   0.1360828   0.2500000), wk =   0.0011574
        k(  329) = (   0.0000000   0.1020621   0.3333333), wk =   0.0011574
        k(  330) = (  -0.0481125   0.0680414   0.4166666), wk =   0.0011574
        k(  331) = (  -0.0962250   0.0340207   0.4999999), wk =   0.0011574
        k(  332) = (  -0.1443375   0.0000000   0.5833332), wk =   0.0011574
        k(  333) = (  -0.1924500  -0.0340206   0.6666665), wk =   0.0011574
        k(  334) = (  -0.2405625  -0.0680413   0.7499999), wk =   0.0011574
        k(  335) = (  -0.2886750  -0.1020620   0.8333332), wk =   0.0011574
        k(  336) = (  -0.3367875  -0.1360827   0.9166665), wk =   0.0011574
        k(  337) = (   0.1924501   0.3402068   0.0000000), wk =   0.0011574
        k(  338) = (   0.1443376   0.3061862   0.0833333), wk =   0.0011574
        k(  339) = (   0.0962251   0.2721655   0.1666666), wk =   0.0011574
        k(  340) = (   0.0481126   0.2381448   0.2500000), wk =   0.0011574
        k(  341) = (   0.0000000   0.2041241   0.3333333), wk =   0.0011574
        k(  342) = (  -0.0481125   0.1701035   0.4166666), wk =   0.0011574
        k(  343) = (  -0.0962250   0.1360828   0.4999999), wk =   0.0011574
        k(  344) = (  -0.1443375   0.1020621   0.5833332), wk =   0.0011574
        k(  345) = (  -0.1924500   0.0680414   0.6666665), wk =   0.0011574
        k(  346) = (  -0.2405625   0.0340207   0.7499999), wk =   0.0011574
        k(  347) = (  -0.2886750   0.0000001   0.8333332), wk =   0.0011574
        k(  348) = (  -0.3367875  -0.0340206   0.9166665), wk =   0.0011574
        k(  349) = (   0.1924501   0.4422689   0.0000000), wk =   0.0011574
        k(  350) = (   0.1443376   0.4082482   0.0833333), wk =   0.0011574
        k(  351) = (   0.0962251   0.3742275   0.1666666), wk =   0.0011574
        k(  352) = (   0.0481126   0.3402069   0.2500000), wk =   0.0011574
        k(  353) = (   0.0000000   0.3061862   0.3333333), wk =   0.0011574
        k(  354) = (  -0.0481125   0.2721655   0.4166666), wk =   0.0011574
        k(  355) = (  -0.0962250   0.2381448   0.4999999), wk =   0.0011574
        k(  356) = (  -0.1443375   0.2041241   0.5833332), wk =   0.0011574
        k(  357) = (  -0.1924500   0.1701035   0.6666665), wk =   0.0011574
        k(  358) = (  -0.2405625   0.1360828   0.7499999), wk =   0.0011574
        k(  359) = (  -0.2886750   0.1020621   0.8333332), wk =   0.0011574
        k(  360) = (  -0.3367875   0.0680414   0.9166665), wk =   0.0011574
        k(  361) = (   0.1924501   0.5443309   0.0000000), wk =   0.0011574
        k(  362) = (   0.1443376   0.5103103   0.0833333), wk =   0.0011574
        k(  363) = (   0.0962251   0.4762896   0.1666666), wk =   0.0011574
        k(  364) = (   0.0481126   0.4422689   0.2500000), wk =   0.0011574
        k(  365) = (   0.0000000   0.4082482   0.3333333), wk =   0.0011574
        k(  366) = (  -0.0481125   0.3742275   0.4166666), wk =   0.0011574
        k(  367) = (  -0.0962250   0.3402069   0.4999999), wk =   0.0011574
        k(  368) = (  -0.1443375   0.3061862   0.5833332), wk =   0.0011574
        k(  369) = (  -0.1924500   0.2721655   0.6666665), wk =   0.0011574
        k(  370) = (  -0.2405625   0.2381448   0.7499999), wk =   0.0011574
        k(  371) = (  -0.2886750   0.2041242   0.8333332), wk =   0.0011574
        k(  372) = (  -0.3367875   0.1701035   0.9166665), wk =   0.0011574
        k(  373) = (   0.1924501   0.6463930   0.0000000), wk =   0.0011574
        k(  374) = (   0.1443376   0.6123723   0.0833333), wk =   0.0011574
        k(  375) = (   0.0962251   0.5783516   0.1666666), wk =   0.0011574
        k(  376) = (   0.0481126   0.5443310   0.2500000), wk =   0.0011574
        k(  377) = (   0.0000000   0.5103103   0.3333333), wk =   0.0011574
        k(  378) = (  -0.0481125   0.4762896   0.4166666), wk =   0.0011574
        k(  379) = (  -0.0962250   0.4422689   0.4999999), wk =   0.0011574
        k(  380) = (  -0.1443375   0.4082482   0.5833332), wk =   0.0011574
        k(  381) = (  -0.1924500   0.3742276   0.6666665), wk =   0.0011574
        k(  382) = (  -0.2405625   0.3402069   0.7499999), wk =   0.0011574
        k(  383) = (  -0.2886750   0.3061862   0.8333332), wk =   0.0011574
        k(  384) = (  -0.3367875   0.2721655   0.9166665), wk =   0.0011574
        k(  385) = (   0.1924501   0.7484550   0.0000000), wk =   0.0011574
        k(  386) = (   0.1443376   0.7144344   0.0833333), wk =   0.0011574
        k(  387) = (   0.0962251   0.6804137   0.1666666), wk =   0.0011574
        k(  388) = (   0.0481126   0.6463930   0.2500000), wk =   0.0011574
        k(  389) = (   0.0000000   0.6123723   0.3333333), wk =   0.0011574
        k(  390) = (  -0.0481125   0.5783516   0.4166666), wk =   0.0011574
        k(  391) = (  -0.0962250   0.5443310   0.4999999), wk =   0.0011574
        k(  392) = (  -0.1443375   0.5103103   0.5833332), wk =   0.0011574
        k(  393) = (  -0.1924500   0.4762896   0.6666665), wk =   0.0011574
        k(  394) = (  -0.2405625   0.4422689   0.7499999), wk =   0.0011574
        k(  395) = (  -0.2886750   0.4082483   0.8333332), wk =   0.0011574
        k(  396) = (  -0.3367875   0.3742276   0.9166665), wk =   0.0011574
        k(  397) = (   0.1924501   0.8505171   0.0000000), wk =   0.0011574
        k(  398) = (   0.1443376   0.8164964   0.0833333), wk =   0.0011574
        k(  399) = (   0.0962251   0.7824757   0.1666666), wk =   0.0011574
        k(  400) = (   0.0481126   0.7484551   0.2500000), wk =   0.0011574
        k(  401) = (   0.0000000   0.7144344   0.3333333), wk =   0.0011574
        k(  402) = (  -0.0481125   0.6804137   0.4166666), wk =   0.0011574
        k(  403) = (  -0.0962250   0.6463930   0.4999999), wk =   0.0011574
        k(  404) = (  -0.1443375   0.6123723   0.5833332), wk =   0.0011574
        k(  405) = (  -0.1924500   0.5783517   0.6666665), wk =   0.0011574
        k(  406) = (  -0.2405625   0.5443310   0.7499999), wk =   0.0011574
        k(  407) = (  -0.2886750   0.5103103   0.8333332), wk =   0.0011574
        k(  408) = (  -0.3367875   0.4762896   0.9166665), wk =   0.0011574
        k(  409) = (   0.1924501   0.9525791   0.0000000), wk =   0.0011574
        k(  410) = (   0.1443376   0.9185585   0.0833333), wk =   0.0011574
        k(  411) = (   0.0962251   0.8845378   0.1666666), wk =   0.0011574
        k(  412) = (   0.0481126   0.8505171   0.2500000), wk =   0.0011574
        k(  413) = (   0.0000000   0.8164964   0.3333333), wk =   0.0011574
        k(  414) = (  -0.0481125   0.7824757   0.4166666), wk =   0.0011574
        k(  415) = (  -0.0962250   0.7484551   0.4999999), wk =   0.0011574
        k(  416) = (  -0.1443375   0.7144344   0.5833332), wk =   0.0011574
        k(  417) = (  -0.1924500   0.6804137   0.6666665), wk =   0.0011574
        k(  418) = (  -0.2405625   0.6463930   0.7499999), wk =   0.0011574
        k(  419) = (  -0.2886750   0.6123723   0.8333332), wk =   0.0011574
        k(  420) = (  -0.3367875   0.5783517   0.9166665), wk =   0.0011574
        k(  421) = (   0.1924501   1.0546412   0.0000000), wk =   0.0011574
        k(  422) = (   0.1443376   1.0206205   0.0833333), wk =   0.0011574
        k(  423) = (   0.0962251   0.9865998   0.1666666), wk =   0.0011574
        k(  424) = (   0.0481126   0.9525791   0.2500000), wk =   0.0011574
        k(  425) = (   0.0000000   0.9185585   0.3333333), wk =   0.0011574
        k(  426) = (  -0.0481125   0.8845378   0.4166666), wk =   0.0011574
        k(  427) = (  -0.0962250   0.8505171   0.4999999), wk =   0.0011574
        k(  428) = (  -0.1443375   0.8164964   0.5833332), wk =   0.0011574
        k(  429) = (  -0.1924500   0.7824758   0.6666665), wk =   0.0011574
        k(  430) = (  -0.2405625   0.7484551   0.7499999), wk =   0.0011574
        k(  431) = (  -0.2886750   0.7144344   0.8333332), wk =   0.0011574
        k(  432) = (  -0.3367875   0.6804137   0.9166665), wk =   0.0011574
        k(  433) = (   0.2886751  -0.1020620   0.0000000), wk =   0.0011574
        k(  434) = (   0.2405626  -0.1360827   0.0833333), wk =   0.0011574
        k(  435) = (   0.1924501  -0.1701034   0.1666666), wk =   0.0011574
        k(  436) = (   0.1443376  -0.2041241   0.2500000), wk =   0.0011574
        k(  437) = (   0.0962251  -0.2381447   0.3333333), wk =   0.0011574
        k(  438) = (   0.0481126  -0.2721654   0.4166666), wk =   0.0011574
        k(  439) = (   0.0000001  -0.3061861   0.4999999), wk =   0.0011574
        k(  440) = (  -0.0481124  -0.3402068   0.5833332), wk =   0.0011574
        k(  441) = (  -0.0962249  -0.3742275   0.6666665), wk =   0.0011574
        k(  442) = (  -0.1443375  -0.4082481   0.7499999), wk =   0.0011574
        k(  443) = (  -0.1924500  -0.4422688   0.8333332), wk =   0.0011574
        k(  444) = (  -0.2405625  -0.4762895   0.9166665), wk =   0.0011574
        k(  445) = (   0.2886751   0.0000000   0.0000000), wk =   0.0011574
        k(  446) = (   0.2405626  -0.0340206   0.0833333), wk =   0.0011574
        k(  447) = (   0.1924501  -0.0680413   0.1666666), wk =   0.0011574
        k(  448) = (   0.1443376  -0.1020620   0.2500000), wk =   0.0011574
        k(  449) = (   0.0962251  -0.1360827   0.3333333), wk =   0.0011574
        k(  450) = (   0.0481126  -0.1701034   0.4166666), wk =   0.0011574
        k(  451) = (   0.0000001  -0.2041240   0.4999999), wk =   0.0011574
        k(  452) = (  -0.0481124  -0.2381447   0.5833332), wk =   0.0011574
        k(  453) = (  -0.0962249  -0.2721654   0.6666665), wk =   0.0011574
        k(  454) = (  -0.1443375  -0.3061861   0.7499999), wk =   0.0011574
        k(  455) = (  -0.1924500  -0.3402068   0.8333332), wk =   0.0011574
        k(  456) = (  -0.2405625  -0.3742274   0.9166665), wk =   0.0011574
        k(  457) = (   0.2886751   0.1020621   0.0000000), wk =   0.0011574
        k(  458) = (   0.2405626   0.0680414   0.0833333), wk =   0.0011574
        k(  459) = (   0.1924501   0.0340207   0.1666666), wk =   0.0011574
        k(  460) = (   0.1443376   0.0000000   0.2500000), wk =   0.0011574
        k(  461) = (   0.0962251  -0.0340206   0.3333333), wk =   0.0011574
        k(  462) = (   0.0481126  -0.0680413   0.4166666), wk =   0.0011574
        k(  463) = (   0.0000001  -0.1020620   0.4999999), wk =   0.0011574
        k(  464) = (  -0.0481124  -0.1360827   0.5833332), wk =   0.0011574
        k(  465) = (  -0.0962249  -0.1701034   0.6666665), wk =   0.0011574
        k(  466) = (  -0.1443375  -0.2041240   0.7499999), wk =   0.0011574
        k(  467) = (  -0.1924500  -0.2381447   0.8333332), wk =   0.0011574
        k(  468) = (  -0.2405625  -0.2721654   0.9166665), wk =   0.0011574
        k(  469) = (   0.2886751   0.2041241   0.0000000), wk =   0.0011574
        k(  470) = (   0.2405626   0.1701034   0.0833333), wk =   0.0011574
        k(  471) = (   0.1924501   0.1360828   0.1666666), wk =   0.0011574
        k(  472) = (   0.1443376   0.1020621   0.2500000), wk =   0.0011574
        k(  473) = (   0.0962251   0.0680414   0.3333333), wk =   0.0011574
        k(  474) = (   0.0481126   0.0340207   0.4166666), wk =   0.0011574
        k(  475) = (   0.0000001   0.0000001   0.4999999), wk =   0.0011574
        k(  476) = (  -0.0481124  -0.0340206   0.5833332), wk =   0.0011574
        k(  477) = (  -0.0962249  -0.0680413   0.6666665), wk =   0.0011574
        k(  478) = (  -0.1443375  -0.1020620   0.7499999), wk =   0.0011574
        k(  479) = (  -0.1924500  -0.1360827   0.8333332), wk =   0.0011574
        k(  480) = (  -0.2405625  -0.1701033   0.9166665), wk =   0.0011574
        k(  481) = (   0.2886751   0.3061862   0.0000000), wk =   0.0011574
        k(  482) = (   0.2405626   0.2721655   0.0833333), wk =   0.0011574
        k(  483) = (   0.1924501   0.2381448   0.1666666), wk =   0.0011574
        k(  484) = (   0.1443376   0.2041241   0.2500000), wk =   0.0011574
        k(  485) = (   0.0962251   0.1701035   0.3333333), wk =   0.0011574
        k(  486) = (   0.0481126   0.1360828   0.4166666), wk =   0.0011574
        k(  487) = (   0.0000001   0.1020621   0.4999999), wk =   0.0011574
        k(  488) = (  -0.0481124   0.0680414   0.5833332), wk =   0.0011574
        k(  489) = (  -0.0962249   0.0340207   0.6666665), wk =   0.0011574
        k(  490) = (  -0.1443375   0.0000001   0.7499999), wk =   0.0011574
        k(  491) = (  -0.1924500  -0.0340206   0.8333332), wk =   0.0011574
        k(  492) = (  -0.2405625  -0.0680413   0.9166665), wk =   0.0011574
        k(  493) = (   0.2886751   0.4082482   0.0000000), wk =   0.0011574
        k(  494) = (   0.2405626   0.3742275   0.0833333), wk =   0.0011574
        k(  495) = (   0.1924501   0.3402069   0.1666666), wk =   0.0011574
        k(  496) = (   0.1443376   0.3061862   0.2500000), wk =   0.0011574
        k(  497) = (   0.0962251   0.2721655   0.3333333), wk =   0.0011574
        k(  498) = (   0.0481126   0.2381448   0.4166666), wk =   0.0011574
        k(  499) = (   0.0000001   0.2041241   0.4999999), wk =   0.0011574
        k(  500) = (  -0.0481124   0.1701035   0.5833332), wk =   0.0011574
        k(  501) = (  -0.0962249   0.1360828   0.6666665), wk =   0.0011574
        k(  502) = (  -0.1443375   0.1020621   0.7499999), wk =   0.0011574
        k(  503) = (  -0.1924500   0.0680414   0.8333332), wk =   0.0011574
        k(  504) = (  -0.2405625   0.0340208   0.9166665), wk =   0.0011574
        k(  505) = (   0.2886751   0.5103103   0.0000000), wk =   0.0011574
        k(  506) = (   0.2405626   0.4762896   0.0833333), wk =   0.0011574
        k(  507) = (   0.1924501   0.4422689   0.1666666), wk =   0.0011574
        k(  508) = (   0.1443376   0.4082482   0.2500000), wk =   0.0011574
        k(  509) = (   0.0962251   0.3742276   0.3333333), wk =   0.0011574
        k(  510) = (   0.0481126   0.3402069   0.4166666), wk =   0.0011574
        k(  511) = (   0.0000001   0.3061862   0.4999999), wk =   0.0011574
        k(  512) = (  -0.0481124   0.2721655   0.5833332), wk =   0.0011574
        k(  513) = (  -0.0962249   0.2381448   0.6666665), wk =   0.0011574
        k(  514) = (  -0.1443375   0.2041242   0.7499999), wk =   0.0011574
        k(  515) = (  -0.1924500   0.1701035   0.8333332), wk =   0.0011574
        k(  516) = (  -0.2405625   0.1360828   0.9166665), wk =   0.0011574
        k(  517) = (   0.2886751   0.6123723   0.0000000), wk =   0.0011574
        k(  518) = (   0.2405626   0.5783516   0.0833333), wk =   0.0011574
        k(  519) = (   0.1924501   0.5443310   0.1666666), wk =   0.0011574
        k(  520) = (   0.1443376   0.5103103   0.2500000), wk =   0.0011574
        k(  521) = (   0.0962251   0.4762896   0.3333333), wk =   0.0011574
        k(  522) = (   0.0481126   0.4422689   0.4166666), wk =   0.0011574
        k(  523) = (   0.0000001   0.4082482   0.4999999), wk =   0.0011574
        k(  524) = (  -0.0481124   0.3742276   0.5833332), wk =   0.0011574
        k(  525) = (  -0.0962249   0.3402069   0.6666665), wk =   0.0011574
        k(  526) = (  -0.1443375   0.3061862   0.7499999), wk =   0.0011574
        k(  527) = (  -0.1924500   0.2721655   0.8333332), wk =   0.0011574
        k(  528) = (  -0.2405625   0.2381449   0.9166665), wk =   0.0011574
        k(  529) = (   0.2886751   0.7144344   0.0000000), wk =   0.0011574
        k(  530) = (   0.2405626   0.6804137   0.0833333), wk =   0.0011574
        k(  531) = (   0.1924501   0.6463930   0.1666666), wk =   0.0011574
        k(  532) = (   0.1443376   0.6123723   0.2500000), wk =   0.0011574
        k(  533) = (   0.0962251   0.5783517   0.3333333), wk =   0.0011574
        k(  534) = (   0.0481126   0.5443310   0.4166666), wk =   0.0011574
        k(  535) = (   0.0000001   0.5103103   0.4999999), wk =   0.0011574
        k(  536) = (  -0.0481124   0.4762896   0.5833332), wk =   0.0011574
        k(  537) = (  -0.0962249   0.4422689   0.6666665), wk =   0.0011574
        k(  538) = (  -0.1443375   0.4082483   0.7499999), wk =   0.0011574
        k(  539) = (  -0.1924500   0.3742276   0.8333332), wk =   0.0011574
        k(  540) = (  -0.2405625   0.3402069   0.9166665), wk =   0.0011574
        k(  541) = (   0.2886751   0.8164964   0.0000000), wk =   0.0011574
        k(  542) = (   0.2405626   0.7824757   0.0833333), wk =   0.0011574
        k(  543) = (   0.1924501   0.7484551   0.1666666), wk =   0.0011574
        k(  544) = (   0.1443376   0.7144344   0.2500000), wk =   0.0011574
        k(  545) = (   0.0962251   0.6804137   0.3333333), wk =   0.0011574
        k(  546) = (   0.0481126   0.6463930   0.4166666), wk =   0.0011574
        k(  547) = (   0.0000001   0.6123723   0.4999999), wk =   0.0011574
        k(  548) = (  -0.0481124   0.5783517   0.5833332), wk =   0.0011574
        k(  549) = (  -0.0962249   0.5443310   0.6666665), wk =   0.0011574
        k(  550) = (  -0.1443375   0.5103103   0.7499999), wk =   0.0011574
        k(  551) = (  -0.1924500   0.4762896   0.8333332), wk =   0.0011574
        k(  552) = (  -0.2405625   0.4422689   0.9166665), wk =   0.0011574
        k(  553) = (   0.2886751   0.9185585   0.0000000), wk =   0.0011574
        k(  554) = (   0.2405626   0.8845378   0.0833333), wk =   0.0011574
        k(  555) = (   0.1924501   0.8505171   0.1666666), wk =   0.0011574
        k(  556) = (   0.1443376   0.8164964   0.2500000), wk =   0.0011574
        k(  557) = (   0.0962251   0.7824757   0.3333333), wk =   0.0011574
        k(  558) = (   0.0481126   0.7484551   0.4166666), wk =   0.0011574
        k(  559) = (   0.0000001   0.7144344   0.4999999), wk =   0.0011574
        k(  560) = (  -0.0481124   0.6804137   0.5833332), wk =   0.0011574
        k(  561) = (  -0.0962249   0.6463930   0.6666665), wk =   0.0011574
        k(  562) = (  -0.1443375   0.6123724   0.7499999), wk =   0.0011574
        k(  563) = (  -0.1924500   0.5783517   0.8333332), wk =   0.0011574
        k(  564) = (  -0.2405625   0.5443310   0.9166665), wk =   0.0011574
        k(  565) = (   0.2886751   1.0206205   0.0000000), wk =   0.0011574
        k(  566) = (   0.2405626   0.9865998   0.0833333), wk =   0.0011574
        k(  567) = (   0.1924501   0.9525792   0.1666666), wk =   0.0011574
        k(  568) = (   0.1443376   0.9185585   0.2500000), wk =   0.0011574
        k(  569) = (   0.0962251   0.8845378   0.3333333), wk =   0.0011574
        k(  570) = (   0.0481126   0.8505171   0.4166666), wk =   0.0011574
        k(  571) = (   0.0000001   0.8164964   0.4999999), wk =   0.0011574
        k(  572) = (  -0.0481124   0.7824758   0.5833332), wk =   0.0011574
        k(  573) = (  -0.0962249   0.7484551   0.6666665), wk =   0.0011574
        k(  574) = (  -0.1443375   0.7144344   0.7499999), wk =   0.0011574
        k(  575) = (  -0.1924500   0.6804137   0.8333332), wk =   0.0011574
        k(  576) = (  -0.2405625   0.6463930   0.9166665), wk =   0.0011574
        k(  577) = (   0.3849002  -0.1360827   0.0000000), wk =   0.0011574
        k(  578) = (   0.3367877  -0.1701034   0.0833333), wk =   0.0011574
        k(  579) = (   0.2886752  -0.2041240   0.1666666), wk =   0.0011574
        k(  580) = (   0.2405626  -0.2381447   0.2500000), wk =   0.0011574
        k(  581) = (   0.1924501  -0.2721654   0.3333333), wk =   0.0011574
        k(  582) = (   0.1443376  -0.3061861   0.4166666), wk =   0.0011574
        k(  583) = (   0.0962251  -0.3402068   0.4999999), wk =   0.0011574
        k(  584) = (   0.0481126  -0.3742274   0.5833332), wk =   0.0011574
        k(  585) = (   0.0000001  -0.4082481   0.6666665), wk =   0.0011574
        k(  586) = (  -0.0481124  -0.4422688   0.7499999), wk =   0.0011574
        k(  587) = (  -0.0962249  -0.4762895   0.8333332), wk =   0.0011574
        k(  588) = (  -0.1443374  -0.5103102   0.9166665), wk =   0.0011574
        k(  589) = (   0.3849002  -0.0340206   0.0000000), wk =   0.0011574
        k(  590) = (   0.3367877  -0.0680413   0.0833333), wk =   0.0011574
        k(  591) = (   0.2886752  -0.1020620   0.1666666), wk =   0.0011574
        k(  592) = (   0.2405626  -0.1360827   0.2500000), wk =   0.0011574
        k(  593) = (   0.1924501  -0.1701034   0.3333333), wk =   0.0011574
        k(  594) = (   0.1443376  -0.2041240   0.4166666), wk =   0.0011574
        k(  595) = (   0.0962251  -0.2381447   0.4999999), wk =   0.0011574
        k(  596) = (   0.0481126  -0.2721654   0.5833332), wk =   0.0011574
        k(  597) = (   0.0000001  -0.3061861   0.6666665), wk =   0.0011574
        k(  598) = (  -0.0481124  -0.3402068   0.7499999), wk =   0.0011574
        k(  599) = (  -0.0962249  -0.3742274   0.8333332), wk =   0.0011574
        k(  600) = (  -0.1443374  -0.4082481   0.9166665), wk =   0.0011574
        k(  601) = (   0.3849002   0.0680414   0.0000000), wk =   0.0011574
        k(  602) = (   0.3367877   0.0340207   0.0833333), wk =   0.0011574
        k(  603) = (   0.2886752   0.0000000   0.1666666), wk =   0.0011574
        k(  604) = (   0.2405626  -0.0340206   0.2500000), wk =   0.0011574
        k(  605) = (   0.1924501  -0.0680413   0.3333333), wk =   0.0011574
        k(  606) = (   0.1443376  -0.1020620   0.4166666), wk =   0.0011574
        k(  607) = (   0.0962251  -0.1360827   0.4999999), wk =   0.0011574
        k(  608) = (   0.0481126  -0.1701033   0.5833332), wk =   0.0011574
        k(  609) = (   0.0000001  -0.2041240   0.6666665), wk =   0.0011574
        k(  610) = (  -0.0481124  -0.2381447   0.7499999), wk =   0.0011574
        k(  611) = (  -0.0962249  -0.2721654   0.8333332), wk =   0.0011574
        k(  612) = (  -0.1443374  -0.3061861   0.9166665), wk =   0.0011574
        k(  613) = (   0.3849002   0.1701035   0.0000000), wk =   0.0011574
        k(  614) = (   0.3367877   0.1360828   0.0833333), wk =   0.0011574
        k(  615) = (   0.2886752   0.1020621   0.1666666), wk =   0.0011574
        k(  616) = (   0.2405626   0.0680414   0.2500000), wk =   0.0011574
        k(  617) = (   0.1924501   0.0340207   0.3333333), wk =   0.0011574
        k(  618) = (   0.1443376   0.0000001   0.4166666), wk =   0.0011574
        k(  619) = (   0.0962251  -0.0340206   0.4999999), wk =   0.0011574
        k(  620) = (   0.0481126  -0.0680413   0.5833332), wk =   0.0011574
        k(  621) = (   0.0000001  -0.1020620   0.6666665), wk =   0.0011574
        k(  622) = (  -0.0481124  -0.1360827   0.7499999), wk =   0.0011574
        k(  623) = (  -0.0962249  -0.1701033   0.8333332), wk =   0.0011574
        k(  624) = (  -0.1443374  -0.2041240   0.9166665), wk =   0.0011574
        k(  625) = (   0.3849002   0.2721655   0.0000000), wk =   0.0011574
        k(  626) = (   0.3367877   0.2381448   0.0833333), wk =   0.0011574
        k(  627) = (   0.2886752   0.2041241   0.1666666), wk =   0.0011574
        k(  628) = (   0.2405626   0.1701035   0.2500000), wk =   0.0011574
        k(  629) = (   0.1924501   0.1360828   0.3333333), wk =   0.0011574
        k(  630) = (   0.1443376   0.1020621   0.4166666), wk =   0.0011574
        k(  631) = (   0.0962251   0.0680414   0.4999999), wk =   0.0011574
        k(  632) = (   0.0481126   0.0340207   0.5833332), wk =   0.0011574
        k(  633) = (   0.0000001   0.0000001   0.6666665), wk =   0.0011574
        k(  634) = (  -0.0481124  -0.0340206   0.7499999), wk =   0.0011574
        k(  635) = (  -0.0962249  -0.0680413   0.8333332), wk =   0.0011574
        k(  636) = (  -0.1443374  -0.1020620   0.9166665), wk =   0.0011574
        k(  637) = (   0.3849002   0.3742276   0.0000000), wk =   0.0011574
        k(  638) = (   0.3367877   0.3402069   0.0833333), wk =   0.0011574
        k(  639) = (   0.2886752   0.3061862   0.1666666), wk =   0.0011574
        k(  640) = (   0.2405626   0.2721655   0.2500000), wk =   0.0011574
        k(  641) = (   0.1924501   0.2381448   0.3333333), wk =   0.0011574
        k(  642) = (   0.1443376   0.2041242   0.4166666), wk =   0.0011574
        k(  643) = (   0.0962251   0.1701035   0.4999999), wk =   0.0011574
        k(  644) = (   0.0481126   0.1360828   0.5833332), wk =   0.0011574
        k(  645) = (   0.0000001   0.1020621   0.6666665), wk =   0.0011574
        k(  646) = (  -0.0481124   0.0680414   0.7499999), wk =   0.0011574
        k(  647) = (  -0.0962249   0.0340208   0.8333332), wk =   0.0011574
        k(  648) = (  -0.1443374   0.0000001   0.9166665), wk =   0.0011574
        k(  649) = (   0.3849002   0.4762896   0.0000000), wk =   0.0011574
        k(  650) = (   0.3367877   0.4422689   0.0833333), wk =   0.0011574
        k(  651) = (   0.2886752   0.4082482   0.1666666), wk =   0.0011574
        k(  652) = (   0.2405626   0.3742276   0.2500000), wk =   0.0011574
        k(  653) = (   0.1924501   0.3402069   0.3333333), wk =   0.0011574
        k(  654) = (   0.1443376   0.3061862   0.4166666), wk =   0.0011574
        k(  655) = (   0.0962251   0.2721655   0.4999999), wk =   0.0011574
        k(  656) = (   0.0481126   0.2381448   0.5833332), wk =   0.0011574
        k(  657) = (   0.0000001   0.2041242   0.6666665), wk =   0.0011574
        k(  658) = (  -0.0481124   0.1701035   0.7499999), wk =   0.0011574
        k(  659) = (  -0.0962249   0.1360828   0.8333332), wk =   0.0011574
        k(  660) = (  -0.1443374   0.1020621   0.9166665), wk =   0.0011574
        k(  661) = (   0.3849002   0.5783516   0.0000000), wk =   0.0011574
        k(  662) = (   0.3367877   0.5443310   0.0833333), wk =   0.0011574
        k(  663) = (   0.2886752   0.5103103   0.1666666), wk =   0.0011574
        k(  664) = (   0.2405626   0.4762896   0.2500000), wk =   0.0011574
        k(  665) = (   0.1924501   0.4422689   0.3333333), wk =   0.0011574
        k(  666) = (   0.1443376   0.4082483   0.4166666), wk =   0.0011574
        k(  667) = (   0.0962251   0.3742276   0.4999999), wk =   0.0011574
        k(  668) = (   0.0481126   0.3402069   0.5833332), wk =   0.0011574
        k(  669) = (   0.0000001   0.3061862   0.6666665), wk =   0.0011574
        k(  670) = (  -0.0481124   0.2721655   0.7499999), wk =   0.0011574
        k(  671) = (  -0.0962249   0.2381449   0.8333332), wk =   0.0011574
        k(  672) = (  -0.1443374   0.2041242   0.9166665), wk =   0.0011574
        k(  673) = (   0.3849002   0.6804137   0.0000000), wk =   0.0011574
        k(  674) = (   0.3367877   0.6463930   0.0833333), wk =   0.0011574
        k(  675) = (   0.2886752   0.6123723   0.1666666), wk =   0.0011574
        k(  676) = (   0.2405626   0.5783517   0.2500000), wk =   0.0011574
        k(  677) = (   0.1924501   0.5443310   0.3333333), wk =   0.0011574
        k(  678) = (   0.1443376   0.5103103   0.4166666), wk =   0.0011574
        k(  679) = (   0.0962251   0.4762896   0.4999999), wk =   0.0011574
        k(  680) = (   0.0481126   0.4422689   0.5833332), wk =   0.0011574
        k(  681) = (   0.0000001   0.4082483   0.6666665), wk =   0.0011574
        k(  682) = (  -0.0481124   0.3742276   0.7499999), wk =   0.0011574
        k(  683) = (  -0.0962249   0.3402069   0.8333332), wk =   0.0011574
        k(  684) = (  -0.1443374   0.3061862   0.9166665), wk =   0.0011574
        k(  685) = (   0.3849002   0.7824757   0.0000000), wk =   0.0011574
        k(  686) = (   0.3367877   0.7484551   0.0833333), wk =   0.0011574
        k(  687) = (   0.2886752   0.7144344   0.1666666), wk =   0.0011574
        k(  688) = (   0.2405626   0.6804137   0.2500000), wk =   0.0011574
        k(  689) = (   0.1924501   0.6463930   0.3333333), wk =   0.0011574
        k(  690) = (   0.1443376   0.6123723   0.4166666), wk =   0.0011574
        k(  691) = (   0.0962251   0.5783517   0.4999999), wk =   0.0011574
        k(  692) = (   0.0481126   0.5443310   0.5833332), wk =   0.0011574
        k(  693) = (   0.0000001   0.5103103   0.6666665), wk =   0.0011574
        k(  694) = (  -0.0481124   0.4762896   0.7499999), wk =   0.0011574
        k(  695) = (  -0.0962249   0.4422690   0.8333332), wk =   0.0011574
        k(  696) = (  -0.1443374   0.4082483   0.9166665), wk =   0.0011574
        k(  697) = (   0.3849002   0.8845378   0.0000000), wk =   0.0011574
        k(  698) = (   0.3367877   0.8505171   0.0833333), wk =   0.0011574
        k(  699) = (   0.2886752   0.8164964   0.1666666), wk =   0.0011574
        k(  700) = (   0.2405626   0.7824758   0.2500000), wk =   0.0011574
        k(  701) = (   0.1924501   0.7484551   0.3333333), wk =   0.0011574
        k(  702) = (   0.1443376   0.7144344   0.4166666), wk =   0.0011574
        k(  703) = (   0.0962251   0.6804137   0.4999999), wk =   0.0011574
        k(  704) = (   0.0481126   0.6463930   0.5833332), wk =   0.0011574
        k(  705) = (   0.0000001   0.6123724   0.6666665), wk =   0.0011574
        k(  706) = (  -0.0481124   0.5783517   0.7499999), wk =   0.0011574
        k(  707) = (  -0.0962249   0.5443310   0.8333332), wk =   0.0011574
        k(  708) = (  -0.1443374   0.5103103   0.9166665), wk =   0.0011574
        k(  709) = (   0.3849002   0.9865998   0.0000000), wk =   0.0011574
        k(  710) = (   0.3367877   0.9525792   0.0833333), wk =   0.0011574
        k(  711) = (   0.2886752   0.9185585   0.1666666), wk =   0.0011574
        k(  712) = (   0.2405626   0.8845378   0.2500000), wk =   0.0011574
        k(  713) = (   0.1924501   0.8505171   0.3333333), wk =   0.0011574
        k(  714) = (   0.1443376   0.8164964   0.4166666), wk =   0.0011574
        k(  715) = (   0.0962251   0.7824758   0.4999999), wk =   0.0011574
        k(  716) = (   0.0481126   0.7484551   0.5833332), wk =   0.0011574
        k(  717) = (   0.0000001   0.7144344   0.6666665), wk =   0.0011574
        k(  718) = (  -0.0481124   0.6804137   0.7499999), wk =   0.0011574
        k(  719) = (  -0.0962249   0.6463931   0.8333332), wk =   0.0011574
        k(  720) = (  -0.1443374   0.6123724   0.9166665), wk =   0.0011574
        k(  721) = (   0.4811252  -0.1701034   0.0000000), wk =   0.0011574
        k(  722) = (   0.4330127  -0.2041240   0.0833333), wk =   0.0011574
        k(  723) = (   0.3849002  -0.2381447   0.1666666), wk =   0.0011574
        k(  724) = (   0.3367877  -0.2721654   0.2500000), wk =   0.0011574
        k(  725) = (   0.2886752  -0.3061861   0.3333333), wk =   0.0011574
        k(  726) = (   0.2405627  -0.3402068   0.4166666), wk =   0.0011574
        k(  727) = (   0.1924502  -0.3742274   0.4999999), wk =   0.0011574
        k(  728) = (   0.1443377  -0.4082481   0.5833332), wk =   0.0011574
        k(  729) = (   0.0962251  -0.4422688   0.6666665), wk =   0.0011574
        k(  730) = (   0.0481126  -0.4762895   0.7499999), wk =   0.0011574
        k(  731) = (   0.0000001  -0.5103102   0.8333332), wk =   0.0011574
        k(  732) = (  -0.0481124  -0.5443308   0.9166665), wk =   0.0011574
        k(  733) = (   0.4811252  -0.0680413   0.0000000), wk =   0.0011574
        k(  734) = (   0.4330127  -0.1020620   0.0833333), wk =   0.0011574
        k(  735) = (   0.3849002  -0.1360827   0.1666666), wk =   0.0011574
        k(  736) = (   0.3367877  -0.1701034   0.2500000), wk =   0.0011574
        k(  737) = (   0.2886752  -0.2041240   0.3333333), wk =   0.0011574
        k(  738) = (   0.2405627  -0.2381447   0.4166666), wk =   0.0011574
        k(  739) = (   0.1924502  -0.2721654   0.4999999), wk =   0.0011574
        k(  740) = (   0.1443377  -0.3061861   0.5833332), wk =   0.0011574
        k(  741) = (   0.0962251  -0.3402067   0.6666665), wk =   0.0011574
        k(  742) = (   0.0481126  -0.3742274   0.7499999), wk =   0.0011574
        k(  743) = (   0.0000001  -0.4082481   0.8333332), wk =   0.0011574
        k(  744) = (  -0.0481124  -0.4422688   0.9166665), wk =   0.0011574
        k(  745) = (   0.4811252   0.0340207   0.0000000), wk =   0.0011574
        k(  746) = (   0.4330127   0.0000001   0.0833333), wk =   0.0011574
        k(  747) = (   0.3849002  -0.0340206   0.1666666), wk =   0.0011574
        k(  748) = (   0.3367877  -0.0680413   0.2500000), wk =   0.0011574
        k(  749) = (   0.2886752  -0.1020620   0.3333333), wk =   0.0011574
        k(  750) = (   0.2405627  -0.1360827   0.4166666), wk =   0.0011574
        k(  751) = (   0.1924502  -0.1701033   0.4999999), wk =   0.0011574
        k(  752) = (   0.1443377  -0.2041240   0.5833332), wk =   0.0011574
        k(  753) = (   0.0962251  -0.2381447   0.6666665), wk =   0.0011574
        k(  754) = (   0.0481126  -0.2721654   0.7499999), wk =   0.0011574
        k(  755) = (   0.0000001  -0.3061861   0.8333332), wk =   0.0011574
        k(  756) = (  -0.0481124  -0.3402067   0.9166665), wk =   0.0011574
        k(  757) = (   0.4811252   0.1360828   0.0000000), wk =   0.0011574
        k(  758) = (   0.4330127   0.1020621   0.0833333), wk =   0.0011574
        k(  759) = (   0.3849002   0.0680414   0.1666666), wk =   0.0011574
        k(  760) = (   0.3367877   0.0340207   0.2500000), wk =   0.0011574
        k(  761) = (   0.2886752   0.0000001   0.3333333), wk =   0.0011574
        k(  762) = (   0.2405627  -0.0340206   0.4166666), wk =   0.0011574
        k(  763) = (   0.1924502  -0.0680413   0.4999999), wk =   0.0011574
        k(  764) = (   0.1443377  -0.1020620   0.5833332), wk =   0.0011574
        k(  765) = (   0.0962251  -0.1360827   0.6666665), wk =   0.0011574
        k(  766) = (   0.0481126  -0.1701033   0.7499999), wk =   0.0011574
        k(  767) = (   0.0000001  -0.2041240   0.8333332), wk =   0.0011574
        k(  768) = (  -0.0481124  -0.2381447   0.9166665), wk =   0.0011574
        k(  769) = (   0.4811252   0.2381448   0.0000000), wk =   0.0011574
        k(  770) = (   0.4330127   0.2041242   0.0833333), wk =   0.0011574
        k(  771) = (   0.3849002   0.1701035   0.1666666), wk =   0.0011574
        k(  772) = (   0.3367877   0.1360828   0.2500000), wk =   0.0011574
        k(  773) = (   0.2886752   0.1020621   0.3333333), wk =   0.0011574
        k(  774) = (   0.2405627   0.0680414   0.4166666), wk =   0.0011574
        k(  775) = (   0.1924502   0.0340208   0.4999999), wk =   0.0011574
        k(  776) = (   0.1443377   0.0000001   0.5833332), wk =   0.0011574
        k(  777) = (   0.0962251  -0.0340206   0.6666665), wk =   0.0011574
        k(  778) = (   0.0481126  -0.0680413   0.7499999), wk =   0.0011574
        k(  779) = (   0.0000001  -0.1020620   0.8333332), wk =   0.0011574
        k(  780) = (  -0.0481124  -0.1360826   0.9166665), wk =   0.0011574
        k(  781) = (   0.4811252   0.3402069   0.0000000), wk =   0.0011574
        k(  782) = (   0.4330127   0.3061862   0.0833333), wk =   0.0011574
        k(  783) = (   0.3849002   0.2721655   0.1666666), wk =   0.0011574
        k(  784) = (   0.3367877   0.2381448   0.2500000), wk =   0.0011574
        k(  785) = (   0.2886752   0.2041242   0.3333333), wk =   0.0011574
        k(  786) = (   0.2405627   0.1701035   0.4166666), wk =   0.0011574
        k(  787) = (   0.1924502   0.1360828   0.4999999), wk =   0.0011574
        k(  788) = (   0.1443377   0.1020621   0.5833332), wk =   0.0011574
        k(  789) = (   0.0962251   0.0680414   0.6666665), wk =   0.0011574
        k(  790) = (   0.0481126   0.0340208   0.7499999), wk =   0.0011574
        k(  791) = (   0.0000001   0.0000001   0.8333332), wk =   0.0011574
        k(  792) = (  -0.0481124  -0.0340206   0.9166665), wk =   0.0011574
        k(  793) = (   0.4811252   0.4422689   0.0000000), wk =   0.0011574
        k(  794) = (   0.4330127   0.4082482   0.0833333), wk =   0.0011574
        k(  795) = (   0.3849002   0.3742276   0.1666666), wk =   0.0011574
        k(  796) = (   0.3367877   0.3402069   0.2500000), wk =   0.0011574
        k(  797) = (   0.2886752   0.3061862   0.3333333), wk =   0.0011574
        k(  798) = (   0.2405627   0.2721655   0.4166666), wk =   0.0011574
        k(  799) = (   0.1924502   0.2381449   0.4999999), wk =   0.0011574
        k(  800) = (   0.1443377   0.2041242   0.5833332), wk =   0.0011574
        k(  801) = (   0.0962251   0.1701035   0.6666665), wk =   0.0011574
        k(  802) = (   0.0481126   0.1360828   0.7499999), wk =   0.0011574
        k(  803) = (   0.0000001   0.1020621   0.8333332), wk =   0.0011574
        k(  804) = (  -0.0481124   0.0680415   0.9166665), wk =   0.0011574
        k(  805) = (   0.4811252   0.5443310   0.0000000), wk =   0.0011574
        k(  806) = (   0.4330127   0.5103103   0.0833333), wk =   0.0011574
        k(  807) = (   0.3849002   0.4762896   0.1666666), wk =   0.0011574
        k(  808) = (   0.3367877   0.4422689   0.2500000), wk =   0.0011574
        k(  809) = (   0.2886752   0.4082483   0.3333333), wk =   0.0011574
        k(  810) = (   0.2405627   0.3742276   0.4166666), wk =   0.0011574
        k(  811) = (   0.1924502   0.3402069   0.4999999), wk =   0.0011574
        k(  812) = (   0.1443377   0.3061862   0.5833332), wk =   0.0011574
        k(  813) = (   0.0962251   0.2721655   0.6666665), wk =   0.0011574
        k(  814) = (   0.0481126   0.2381449   0.7499999), wk =   0.0011574
        k(  815) = (   0.0000001   0.2041242   0.8333332), wk =   0.0011574
        k(  816) = (  -0.0481124   0.1701035   0.9166665), wk =   0.0011574
        k(  817) = (   0.4811252   0.6463930   0.0000000), wk =   0.0011574
        k(  818) = (   0.4330127   0.6123723   0.0833333), wk =   0.0011574
        k(  819) = (   0.3849002   0.5783517   0.1666666), wk =   0.0011574
        k(  820) = (   0.3367877   0.5443310   0.2500000), wk =   0.0011574
        k(  821) = (   0.2886752   0.5103103   0.3333333), wk =   0.0011574
        k(  822) = (   0.2405627   0.4762896   0.4166666), wk =   0.0011574
        k(  823) = (   0.1924502   0.4422689   0.4999999), wk =   0.0011574
        k(  824) = (   0.1443377   0.4082483   0.5833332), wk =   0.0011574
        k(  825) = (   0.0962251   0.3742276   0.6666665), wk =   0.0011574
        k(  826) = (   0.0481126   0.3402069   0.7499999), wk =   0.0011574
        k(  827) = (   0.0000001   0.3061862   0.8333332), wk =   0.0011574
        k(  828) = (  -0.0481124   0.2721656   0.9166665), wk =   0.0011574
        k(  829) = (   0.4811252   0.7484551   0.0000000), wk =   0.0011574
        k(  830) = (   0.4330127   0.7144344   0.0833333), wk =   0.0011574
        k(  831) = (   0.3849002   0.6804137   0.1666666), wk =   0.0011574
        k(  832) = (   0.3367877   0.6463930   0.2500000), wk =   0.0011574
        k(  833) = (   0.2886752   0.6123724   0.3333333), wk =   0.0011574
        k(  834) = (   0.2405627   0.5783517   0.4166666), wk =   0.0011574
        k(  835) = (   0.1924502   0.5443310   0.4999999), wk =   0.0011574
        k(  836) = (   0.1443377   0.5103103   0.5833332), wk =   0.0011574
        k(  837) = (   0.0962251   0.4762896   0.6666665), wk =   0.0011574
        k(  838) = (   0.0481126   0.4422690   0.7499999), wk =   0.0011574
        k(  839) = (   0.0000001   0.4082483   0.8333332), wk =   0.0011574
        k(  840) = (  -0.0481124   0.3742276   0.9166665), wk =   0.0011574
        k(  841) = (   0.4811252   0.8505171   0.0000000), wk =   0.0011574
        k(  842) = (   0.4330127   0.8164964   0.0833333), wk =   0.0011574
        k(  843) = (   0.3849002   0.7824758   0.1666666), wk =   0.0011574
        k(  844) = (   0.3367877   0.7484551   0.2500000), wk =   0.0011574
        k(  845) = (   0.2886752   0.7144344   0.3333333), wk =   0.0011574
        k(  846) = (   0.2405627   0.6804137   0.4166666), wk =   0.0011574
        k(  847) = (   0.1924502   0.6463930   0.4999999), wk =   0.0011574
        k(  848) = (   0.1443377   0.6123724   0.5833332), wk =   0.0011574
        k(  849) = (   0.0962251   0.5783517   0.6666665), wk =   0.0011574
        k(  850) = (   0.0481126   0.5443310   0.7499999), wk =   0.0011574
        k(  851) = (   0.0000001   0.5103103   0.8333332), wk =   0.0011574
        k(  852) = (  -0.0481124   0.4762897   0.9166665), wk =   0.0011574
        k(  853) = (   0.4811252   0.9525792   0.0000000), wk =   0.0011574
        k(  854) = (   0.4330127   0.9185585   0.0833333), wk =   0.0011574
        k(  855) = (   0.3849002   0.8845378   0.1666666), wk =   0.0011574
        k(  856) = (   0.3367877   0.8505171   0.2500000), wk =   0.0011574
        k(  857) = (   0.2886752   0.8164965   0.3333333), wk =   0.0011574
        k(  858) = (   0.2405627   0.7824758   0.4166666), wk =   0.0011574
        k(  859) = (   0.1924502   0.7484551   0.4999999), wk =   0.0011574
        k(  860) = (   0.1443377   0.7144344   0.5833332), wk =   0.0011574
        k(  861) = (   0.0962251   0.6804137   0.6666665), wk =   0.0011574
        k(  862) = (   0.0481126   0.6463931   0.7499999), wk =   0.0011574
        k(  863) = (   0.0000001   0.6123724   0.8333332), wk =   0.0011574
        k(  864) = (  -0.0481124   0.5783517   0.9166665), wk =   0.0011574
        k(  865) = (   0.5773503  -0.2041240   0.0000000), wk =   0.0011574
        k(  866) = (   0.5292377  -0.2381447   0.0833333), wk =   0.0011574
        k(  867) = (   0.4811252  -0.2721654   0.1666666), wk =   0.0011574
        k(  868) = (   0.4330127  -0.3061861   0.2500000), wk =   0.0011574
        k(  869) = (   0.3849002  -0.3402068   0.3333333), wk =   0.0011574
        k(  870) = (   0.3367877  -0.3742274   0.4166666), wk =   0.0011574
        k(  871) = (   0.2886752  -0.4082481   0.4999999), wk =   0.0011574
        k(  872) = (   0.2405627  -0.4422688   0.5833332), wk =   0.0011574
        k(  873) = (   0.1924502  -0.4762895   0.6666665), wk =   0.0011574
        k(  874) = (   0.1443377  -0.5103101   0.7499999), wk =   0.0011574
        k(  875) = (   0.0962252  -0.5443308   0.8333332), wk =   0.0011574
        k(  876) = (   0.0481127  -0.5783515   0.9166665), wk =   0.0011574
        k(  877) = (   0.5773503  -0.1020620   0.0000000), wk =   0.0011574
        k(  878) = (   0.5292377  -0.1360827   0.0833333), wk =   0.0011574
        k(  879) = (   0.4811252  -0.1701033   0.1666666), wk =   0.0011574
        k(  880) = (   0.4330127  -0.2041240   0.2500000), wk =   0.0011574
        k(  881) = (   0.3849002  -0.2381447   0.3333333), wk =   0.0011574
        k(  882) = (   0.3367877  -0.2721654   0.4166666), wk =   0.0011574
        k(  883) = (   0.2886752  -0.3061861   0.4999999), wk =   0.0011574
        k(  884) = (   0.2405627  -0.3402067   0.5833332), wk =   0.0011574
        k(  885) = (   0.1924502  -0.3742274   0.6666665), wk =   0.0011574
        k(  886) = (   0.1443377  -0.4082481   0.7499999), wk =   0.0011574
        k(  887) = (   0.0962252  -0.4422688   0.8333332), wk =   0.0011574
        k(  888) = (   0.0481127  -0.4762895   0.9166665), wk =   0.0011574
        k(  889) = (   0.5773503   0.0000001   0.0000000), wk =   0.0011574
        k(  890) = (   0.5292377  -0.0340206   0.0833333), wk =   0.0011574
        k(  891) = (   0.4811252  -0.0680413   0.1666666), wk =   0.0011574
        k(  892) = (   0.4330127  -0.1020620   0.2500000), wk =   0.0011574
        k(  893) = (   0.3849002  -0.1360827   0.3333333), wk =   0.0011574
        k(  894) = (   0.3367877  -0.1701033   0.4166666), wk =   0.0011574
        k(  895) = (   0.2886752  -0.2041240   0.4999999), wk =   0.0011574
        k(  896) = (   0.2405627  -0.2381447   0.5833332), wk =   0.0011574
        k(  897) = (   0.1924502  -0.2721654   0.6666665), wk =   0.0011574
        k(  898) = (   0.1443377  -0.3061861   0.7499999), wk =   0.0011574
        k(  899) = (   0.0962252  -0.3402067   0.8333332), wk =   0.0011574
        k(  900) = (   0.0481127  -0.3742274   0.9166665), wk =   0.0011574
        k(  901) = (   0.5773503   0.1020621   0.0000000), wk =   0.0011574
        k(  902) = (   0.5292377   0.0680414   0.0833333), wk =   0.0011574
        k(  903) = (   0.4811252   0.0340208   0.1666666), wk =   0.0011574
        k(  904) = (   0.4330127   0.0000001   0.2500000), wk =   0.0011574
        k(  905) = (   0.3849002  -0.0340206   0.3333333), wk =   0.0011574
        k(  906) = (   0.3367877  -0.0680413   0.4166666), wk =   0.0011574
        k(  907) = (   0.2886752  -0.1020620   0.4999999), wk =   0.0011574
        k(  908) = (   0.2405627  -0.1360826   0.5833332), wk =   0.0011574
        k(  909) = (   0.1924502  -0.1701033   0.6666665), wk =   0.0011574
        k(  910) = (   0.1443377  -0.2041240   0.7499999), wk =   0.0011574
        k(  911) = (   0.0962252  -0.2381447   0.8333332), wk =   0.0011574
        k(  912) = (   0.0481127  -0.2721654   0.9166665), wk =   0.0011574
        k(  913) = (   0.5773503   0.2041242   0.0000000), wk =   0.0011574
        k(  914) = (   0.5292377   0.1701035   0.0833333), wk =   0.0011574
        k(  915) = (   0.4811252   0.1360828   0.1666666), wk =   0.0011574
        k(  916) = (   0.4330127   0.1020621   0.2500000), wk =   0.0011574
        k(  917) = (   0.3849002   0.0680414   0.3333333), wk =   0.0011574
        k(  918) = (   0.3367877   0.0340208   0.4166666), wk =   0.0011574
        k(  919) = (   0.2886752   0.0000001   0.4999999), wk =   0.0011574
        k(  920) = (   0.2405627  -0.0340206   0.5833332), wk =   0.0011574
        k(  921) = (   0.1924502  -0.0680413   0.6666665), wk =   0.0011574
        k(  922) = (   0.1443377  -0.1020620   0.7499999), wk =   0.0011574
        k(  923) = (   0.0962252  -0.1360826   0.8333332), wk =   0.0011574
        k(  924) = (   0.0481127  -0.1701033   0.9166665), wk =   0.0011574
        k(  925) = (   0.5773503   0.3061862   0.0000000), wk =   0.0011574
        k(  926) = (   0.5292377   0.2721655   0.0833333), wk =   0.0011574
        k(  927) = (   0.4811252   0.2381448   0.1666666), wk =   0.0011574
        k(  928) = (   0.4330127   0.2041242   0.2500000), wk =   0.0011574
        k(  929) = (   0.3849002   0.1701035   0.3333333), wk =   0.0011574
        k(  930) = (   0.3367877   0.1360828   0.4166666), wk =   0.0011574
        k(  931) = (   0.2886752   0.1020621   0.4999999), wk =   0.0011574
        k(  932) = (   0.2405627   0.0680415   0.5833332), wk =   0.0011574
        k(  933) = (   0.1924502   0.0340208   0.6666665), wk =   0.0011574
        k(  934) = (   0.1443377   0.0000001   0.7499999), wk =   0.0011574
        k(  935) = (   0.0962252  -0.0340206   0.8333332), wk =   0.0011574
        k(  936) = (   0.0481127  -0.0680413   0.9166665), wk =   0.0011574
        k(  937) = (   0.5773503   0.4082483   0.0000000), wk =   0.0011574
        k(  938) = (   0.5292377   0.3742276   0.0833333), wk =   0.0011574
        k(  939) = (   0.4811252   0.3402069   0.1666666), wk =   0.0011574
        k(  940) = (   0.4330127   0.3061862   0.2500000), wk =   0.0011574
        k(  941) = (   0.3849002   0.2721655   0.3333333), wk =   0.0011574
        k(  942) = (   0.3367877   0.2381449   0.4166666), wk =   0.0011574
        k(  943) = (   0.2886752   0.2041242   0.4999999), wk =   0.0011574
        k(  944) = (   0.2405627   0.1701035   0.5833332), wk =   0.0011574
        k(  945) = (   0.1924502   0.1360828   0.6666665), wk =   0.0011574
        k(  946) = (   0.1443377   0.1020621   0.7499999), wk =   0.0011574
        k(  947) = (   0.0962252   0.0680415   0.8333332), wk =   0.0011574
        k(  948) = (   0.0481127   0.0340208   0.9166665), wk =   0.0011574
        k(  949) = (   0.5773503   0.5103103   0.0000000), wk =   0.0011574
        k(  950) = (   0.5292377   0.4762896   0.0833333), wk =   0.0011574
        k(  951) = (   0.4811252   0.4422689   0.1666666), wk =   0.0011574
        k(  952) = (   0.4330127   0.4082483   0.2500000), wk =   0.0011574
        k(  953) = (   0.3849002   0.3742276   0.3333333), wk =   0.0011574
        k(  954) = (   0.3367877   0.3402069   0.4166666), wk =   0.0011574
        k(  955) = (   0.2886752   0.3061862   0.4999999), wk =   0.0011574
        k(  956) = (   0.2405627   0.2721655   0.5833332), wk =   0.0011574
        k(  957) = (   0.1924502   0.2381449   0.6666665), wk =   0.0011574
        k(  958) = (   0.1443377   0.2041242   0.7499999), wk =   0.0011574
        k(  959) = (   0.0962252   0.1701035   0.8333332), wk =   0.0011574
        k(  960) = (   0.0481127   0.1360828   0.9166665), wk =   0.0011574
        k(  961) = (   0.5773503   0.6123724   0.0000000), wk =   0.0011574
        k(  962) = (   0.5292377   0.5783517   0.0833333), wk =   0.0011574
        k(  963) = (   0.4811252   0.5443310   0.1666666), wk =   0.0011574
        k(  964) = (   0.4330127   0.5103103   0.2500000), wk =   0.0011574
        k(  965) = (   0.3849002   0.4762896   0.3333333), wk =   0.0011574
        k(  966) = (   0.3367877   0.4422690   0.4166666), wk =   0.0011574
        k(  967) = (   0.2886752   0.4082483   0.4999999), wk =   0.0011574
        k(  968) = (   0.2405627   0.3742276   0.5833332), wk =   0.0011574
        k(  969) = (   0.1924502   0.3402069   0.6666665), wk =   0.0011574
        k(  970) = (   0.1443377   0.3061862   0.7499999), wk =   0.0011574
        k(  971) = (   0.0962252   0.2721656   0.8333332), wk =   0.0011574
        k(  972) = (   0.0481127   0.2381449   0.9166665), wk =   0.0011574
        k(  973) = (   0.5773503   0.7144344   0.0000000), wk =   0.0011574
        k(  974) = (   0.5292377   0.6804137   0.0833333), wk =   0.0011574
        k(  975) = (   0.4811252   0.6463930   0.1666666), wk =   0.0011574
        k(  976) = (   0.4330127   0.6123724   0.2500000), wk =   0.0011574
        k(  977) = (   0.3849002   0.5783517   0.3333333), wk =   0.0011574
        k(  978) = (   0.3367877   0.5443310   0.4166666), wk =   0.0011574
        k(  979) = (   0.2886752   0.5103103   0.4999999), wk =   0.0011574
        k(  980) = (   0.2405627   0.4762896   0.5833332), wk =   0.0011574
        k(  981) = (   0.1924502   0.4422690   0.6666665), wk =   0.0011574
        k(  982) = (   0.1443377   0.4082483   0.7499999), wk =   0.0011574
        k(  983) = (   0.0962252   0.3742276   0.8333332), wk =   0.0011574
        k(  984) = (   0.0481127   0.3402069   0.9166665), wk =   0.0011574
        k(  985) = (   0.5773503   0.8164964   0.0000000), wk =   0.0011574
[...]
        k( 1542) = (   0.8333333   0.6666667   0.4166667), wk =   0.0011574
        k( 1543) = (   0.8333333   0.6666667   0.5000000), wk =   0.0011574
        k( 1544) = (   0.8333333   0.6666667   0.5833333), wk =   0.0011574
        k( 1545) = (   0.8333333   0.6666667   0.6666667), wk =   0.0011574
        k( 1546) = (   0.8333333   0.6666667   0.7500000), wk =   0.0011574
        k( 1547) = (   0.8333333   0.6666667   0.8333333), wk =   0.0011574
        k( 1548) = (   0.8333333   0.6666667   0.9166667), wk =   0.0011574
        k( 1549) = (   0.8333333   0.7500000   0.0000000), wk =   0.0011574
        k( 1550) = (   0.8333333   0.7500000   0.0833333), wk =   0.0011574
        k( 1551) = (   0.8333333   0.7500000   0.1666667), wk =   0.0011574
        k( 1552) = (   0.8333333   0.7500000   0.2500000), wk =   0.0011574
        k( 1553) = (   0.8333333   0.7500000   0.3333333), wk =   0.0011574
        k( 1554) = (   0.8333333   0.7500000   0.4166667), wk =   0.0011574
        k( 1555) = (   0.8333333   0.7500000   0.5000000), wk =   0.0011574
        k( 1556) = (   0.8333333   0.7500000   0.5833333), wk =   0.0011574
        k( 1557) = (   0.8333333   0.7500000   0.6666667), wk =   0.0011574
        k( 1558) = (   0.8333333   0.7500000   0.7500000), wk =   0.0011574
        k( 1559) = (   0.8333333   0.7500000   0.8333333), wk =   0.0011574
        k( 1560) = (   0.8333333   0.7500000   0.9166667), wk =   0.0011574
        k( 1561) = (   0.8333333   0.8333333   0.0000000), wk =   0.0011574
        k( 1562) = (   0.8333333   0.8333333   0.0833333), wk =   0.0011574
        k( 1563) = (   0.8333333   0.8333333   0.1666667), wk =   0.0011574
        k( 1564) = (   0.8333333   0.8333333   0.2500000), wk =   0.0011574
        k( 1565) = (   0.8333333   0.8333333   0.3333333), wk =   0.0011574
        k( 1566) = (   0.8333333   0.8333333   0.4166667), wk =   0.0011574
        k( 1567) = (   0.8333333   0.8333333   0.5000000), wk =   0.0011574
        k( 1568) = (   0.8333333   0.8333333   0.5833333), wk =   0.0011574
        k( 1569) = (   0.8333333   0.8333333   0.6666667), wk =   0.0011574
        k( 1570) = (   0.8333333   0.8333333   0.7500000), wk =   0.0011574
        k( 1571) = (   0.8333333   0.8333333   0.8333333), wk =   0.0011574
        k( 1572) = (   0.8333333   0.8333333   0.9166667), wk =   0.0011574
        k( 1573) = (   0.8333333   0.9166667   0.0000000), wk =   0.0011574
        k( 1574) = (   0.8333333   0.9166667   0.0833333), wk =   0.0011574
        k( 1575) = (   0.8333333   0.9166667   0.1666667), wk =   0.0011574
        k( 1576) = (   0.8333333   0.9166667   0.2500000), wk =   0.0011574
        k( 1577) = (   0.8333333   0.9166667   0.3333333), wk =   0.0011574
        k( 1578) = (   0.8333333   0.9166667   0.4166667), wk =   0.0011574
        k( 1579) = (   0.8333333   0.9166667   0.5000000), wk =   0.0011574
        k( 1580) = (   0.8333333   0.9166667   0.5833333), wk =   0.0011574
        k( 1581) = (   0.8333333   0.9166667   0.6666667), wk =   0.0011574
        k( 1582) = (   0.8333333   0.9166667   0.7500000), wk =   0.0011574
        k( 1583) = (   0.8333333   0.9166667   0.8333333), wk =   0.0011574
        k( 1584) = (   0.8333333   0.9166667   0.9166667), wk =   0.0011574
        k( 1585) = (   0.9166667   0.0000000   0.0000000), wk =   0.0011574
        k( 1586) = (   0.9166667   0.0000000   0.0833333), wk =   0.0011574
        k( 1587) = (   0.9166667   0.0000000   0.1666667), wk =   0.0011574
        k( 1588) = (   0.9166667   0.0000000   0.2500000), wk =   0.0011574
        k( 1589) = (   0.9166667   0.0000000   0.3333333), wk =   0.0011574
        k( 1590) = (   0.9166667  -0.0000000   0.4166667), wk =   0.0011574
        k( 1591) = (   0.9166667   0.0000000   0.5000000), wk =   0.0011574
        k( 1592) = (   0.9166667   0.0000000   0.5833333), wk =   0.0011574
        k( 1593) = (   0.9166667  -0.0000000   0.6666667), wk =   0.0011574
        k( 1594) = (   0.9166667   0.0000000   0.7500000), wk =   0.0011574
        k( 1595) = (   0.9166667   0.0000000   0.8333333), wk =   0.0011574
        k( 1596) = (   0.9166667  -0.0000000   0.9166667), wk =   0.0011574
        k( 1597) = (   0.9166667   0.0833333   0.0000000), wk =   0.0011574
        k( 1598) = (   0.9166667   0.0833333   0.0833333), wk =   0.0011574
        k( 1599) = (   0.9166667   0.0833333   0.1666667), wk =   0.0011574
        k( 1600) = (   0.9166667   0.0833333   0.2500000), wk =   0.0011574
        k( 1601) = (   0.9166667   0.0833333   0.3333333), wk =   0.0011574
        k( 1602) = (   0.9166667   0.0833333   0.4166667), wk =   0.0011574
        k( 1603) = (   0.9166667   0.0833333   0.5000000), wk =   0.0011574
        k( 1604) = (   0.9166667   0.0833333   0.5833333), wk =   0.0011574
        k( 1605) = (   0.9166667   0.0833333   0.6666667), wk =   0.0011574
        k( 1606) = (   0.9166667   0.0833333   0.7500000), wk =   0.0011574
        k( 1607) = (   0.9166667   0.0833333   0.8333333), wk =   0.0011574
        k( 1608) = (   0.9166667   0.0833333   0.9166667), wk =   0.0011574
        k( 1609) = (   0.9166667   0.1666667   0.0000000), wk =   0.0011574
        k( 1610) = (   0.9166667   0.1666667   0.0833333), wk =   0.0011574
        k( 1611) = (   0.9166667   0.1666667   0.1666667), wk =   0.0011574
        k( 1612) = (   0.9166667   0.1666667   0.2500000), wk =   0.0011574
        k( 1613) = (   0.9166667   0.1666667   0.3333333), wk =   0.0011574
        k( 1614) = (   0.9166667   0.1666667   0.4166667), wk =   0.0011574
        k( 1615) = (   0.9166667   0.1666667   0.5000000), wk =   0.0011574
        k( 1616) = (   0.9166667   0.1666667   0.5833333), wk =   0.0011574
        k( 1617) = (   0.9166667   0.1666667   0.6666667), wk =   0.0011574
        k( 1618) = (   0.9166667   0.1666667   0.7500000), wk =   0.0011574
        k( 1619) = (   0.9166667   0.1666667   0.8333333), wk =   0.0011574
        k( 1620) = (   0.9166667   0.1666667   0.9166667), wk =   0.0011574
        k( 1621) = (   0.9166667   0.2500000   0.0000000), wk =   0.0011574
        k( 1622) = (   0.9166667   0.2500000   0.0833333), wk =   0.0011574
        k( 1623) = (   0.9166667   0.2500000   0.1666667), wk =   0.0011574
        k( 1624) = (   0.9166667   0.2500000   0.2500000), wk =   0.0011574
        k( 1625) = (   0.9166667   0.2500000   0.3333333), wk =   0.0011574
        k( 1626) = (   0.9166667   0.2500000   0.4166667), wk =   0.0011574
        k( 1627) = (   0.9166667   0.2500000   0.5000000), wk =   0.0011574
        k( 1628) = (   0.9166667   0.2500000   0.5833333), wk =   0.0011574
        k( 1629) = (   0.9166667   0.2500000   0.6666667), wk =   0.0011574
        k( 1630) = (   0.9166667   0.2500000   0.7500000), wk =   0.0011574
        k( 1631) = (   0.9166667   0.2500000   0.8333333), wk =   0.0011574
        k( 1632) = (   0.9166667   0.2500000   0.9166667), wk =   0.0011574
        k( 1633) = (   0.9166667   0.3333333   0.0000000), wk =   0.0011574
        k( 1634) = (   0.9166667   0.3333333   0.0833333), wk =   0.0011574
        k( 1635) = (   0.9166667   0.3333333   0.1666667), wk =   0.0011574
        k( 1636) = (   0.9166667   0.3333333   0.2500000), wk =   0.0011574
        k( 1637) = (   0.9166667   0.3333333   0.3333333), wk =   0.0011574
        k( 1638) = (   0.9166667   0.3333333   0.4166667), wk =   0.0011574
        k( 1639) = (   0.9166667   0.3333333   0.5000000), wk =   0.0011574
        k( 1640) = (   0.9166667   0.3333333   0.5833333), wk =   0.0011574
        k( 1641) = (   0.9166667   0.3333333   0.6666667), wk =   0.0011574
        k( 1642) = (   0.9166667   0.3333333   0.7500000), wk =   0.0011574
        k( 1643) = (   0.9166667   0.3333333   0.8333333), wk =   0.0011574
        k( 1644) = (   0.9166667   0.3333333   0.9166667), wk =   0.0011574
        k( 1645) = (   0.9166667   0.4166667   0.0000000), wk =   0.0011574
        k( 1646) = (   0.9166667   0.4166667   0.0833333), wk =   0.0011574
        k( 1647) = (   0.9166667   0.4166667   0.1666667), wk =   0.0011574
        k( 1648) = (   0.9166667   0.4166667   0.2500000), wk =   0.0011574
        k( 1649) = (   0.9166667   0.4166667   0.3333333), wk =   0.0011574
        k( 1650) = (   0.9166667   0.4166667   0.4166667), wk =   0.0011574
        k( 1651) = (   0.9166667   0.4166667   0.5000000), wk =   0.0011574
        k( 1652) = (   0.9166667   0.4166667   0.5833333), wk =   0.0011574
        k( 1653) = (   0.9166667   0.4166667   0.6666667), wk =   0.0011574
        k( 1654) = (   0.9166667   0.4166667   0.7500000), wk =   0.0011574
        k( 1655) = (   0.9166667   0.4166667   0.8333333), wk =   0.0011574
        k( 1656) = (   0.9166667   0.4166667   0.9166667), wk =   0.0011574
        k( 1657) = (   0.9166667   0.5000000   0.0000000), wk =   0.0011574
        k( 1658) = (   0.9166667   0.5000000   0.0833333), wk =   0.0011574
        k( 1659) = (   0.9166667   0.5000000   0.1666667), wk =   0.0011574
        k( 1660) = (   0.9166667   0.5000000   0.2500000), wk =   0.0011574
        k( 1661) = (   0.9166667   0.5000000   0.3333333), wk =   0.0011574
        k( 1662) = (   0.9166667   0.5000000   0.4166667), wk =   0.0011574
        k( 1663) = (   0.9166667   0.5000000   0.5000000), wk =   0.0011574
        k( 1664) = (   0.9166667   0.5000000   0.5833333), wk =   0.0011574
        k( 1665) = (   0.9166667   0.5000000   0.6666667), wk =   0.0011574
        k( 1666) = (   0.9166667   0.5000000   0.7500000), wk =   0.0011574
        k( 1667) = (   0.9166667   0.5000000   0.8333333), wk =   0.0011574
        k( 1668) = (   0.9166667   0.5000000   0.9166667), wk =   0.0011574
        k( 1669) = (   0.9166667   0.5833333   0.0000000), wk =   0.0011574
        k( 1670) = (   0.9166667   0.5833333   0.0833333), wk =   0.0011574
        k( 1671) = (   0.9166667   0.5833333   0.1666667), wk =   0.0011574
        k( 1672) = (   0.9166667   0.5833333   0.2500000), wk =   0.0011574
        k( 1673) = (   0.9166667   0.5833333   0.3333333), wk =   0.0011574
        k( 1674) = (   0.9166667   0.5833333   0.4166667), wk =   0.0011574
        k( 1675) = (   0.9166667   0.5833333   0.5000000), wk =   0.0011574
        k( 1676) = (   0.9166667   0.5833333   0.5833333), wk =   0.0011574
        k( 1677) = (   0.9166667   0.5833333   0.6666667), wk =   0.0011574
        k( 1678) = (   0.9166667   0.5833333   0.7500000), wk =   0.0011574
        k( 1679) = (   0.9166667   0.5833333   0.8333333), wk =   0.0011574
        k( 1680) = (   0.9166667   0.5833333   0.9166667), wk =   0.0011574
        k( 1681) = (   0.9166667   0.6666667   0.0000000), wk =   0.0011574
        k( 1682) = (   0.9166667   0.6666667   0.0833333), wk =   0.0011574
        k( 1683) = (   0.9166667   0.6666667   0.1666667), wk =   0.0011574
        k( 1684) = (   0.9166667   0.6666667   0.2500000), wk =   0.0011574
        k( 1685) = (   0.9166667   0.6666667   0.3333333), wk =   0.0011574
        k( 1686) = (   0.9166667   0.6666667   0.4166667), wk =   0.0011574
        k( 1687) = (   0.9166667   0.6666667   0.5000000), wk =   0.0011574
        k( 1688) = (   0.9166667   0.6666667   0.5833333), wk =   0.0011574
        k( 1689) = (   0.9166667   0.6666667   0.6666667), wk =   0.0011574
        k( 1690) = (   0.9166667   0.6666667   0.7500000), wk =   0.0011574
        k( 1691) = (   0.9166667   0.6666667   0.8333333), wk =   0.0011574
        k( 1692) = (   0.9166667   0.6666667   0.9166667), wk =   0.0011574
        k( 1693) = (   0.9166667   0.7500000   0.0000000), wk =   0.0011574
        k( 1694) = (   0.9166667   0.7500000   0.0833333), wk =   0.0011574
        k( 1695) = (   0.9166667   0.7500000   0.1666667), wk =   0.0011574
        k( 1696) = (   0.9166667   0.7500000   0.2500000), wk =   0.0011574
        k( 1697) = (   0.9166667   0.7500000   0.3333333), wk =   0.0011574
        k( 1698) = (   0.9166667   0.7500000   0.4166667), wk =   0.0011574
        k( 1699) = (   0.9166667   0.7500000   0.5000000), wk =   0.0011574
        k( 1700) = (   0.9166667   0.7500000   0.5833333), wk =   0.0011574
        k( 1701) = (   0.9166667   0.7500000   0.6666667), wk =   0.0011574
        k( 1702) = (   0.9166667   0.7500000   0.7500000), wk =   0.0011574
        k( 1703) = (   0.9166667   0.7500000   0.8333333), wk =   0.0011574
        k( 1704) = (   0.9166667   0.7500000   0.9166667), wk =   0.0011574
        k( 1705) = (   0.9166667   0.8333333   0.0000000), wk =   0.0011574
        k( 1706) = (   0.9166667   0.8333333   0.0833333), wk =   0.0011574
        k( 1707) = (   0.9166667   0.8333333   0.1666667), wk =   0.0011574
        k( 1708) = (   0.9166667   0.8333333   0.2500000), wk =   0.0011574
        k( 1709) = (   0.9166667   0.8333333   0.3333333), wk =   0.0011574
        k( 1710) = (   0.9166667   0.8333333   0.4166667), wk =   0.0011574
        k( 1711) = (   0.9166667   0.8333333   0.5000000), wk =   0.0011574
        k( 1712) = (   0.9166667   0.8333333   0.5833333), wk =   0.0011574
        k( 1713) = (   0.9166667   0.8333333   0.6666667), wk =   0.0011574
        k( 1714) = (   0.9166667   0.8333333   0.7500000), wk =   0.0011574
        k( 1715) = (   0.9166667   0.8333333   0.8333333), wk =   0.0011574
        k( 1716) = (   0.9166667   0.8333333   0.9166667), wk =   0.0011574
        k( 1717) = (   0.9166667   0.9166667   0.0000000), wk =   0.0011574
        k( 1718) = (   0.9166667   0.9166667   0.0833333), wk =   0.0011574
        k( 1719) = (   0.9166667   0.9166667   0.1666667), wk =   0.0011574
        k( 1720) = (   0.9166667   0.9166667   0.2500000), wk =   0.0011574
        k( 1721) = (   0.9166667   0.9166667   0.3333333), wk =   0.0011574
        k( 1722) = (   0.9166667   0.9166667   0.4166667), wk =   0.0011574
        k( 1723) = (   0.9166667   0.9166667   0.5000000), wk =   0.0011574
        k( 1724) = (   0.9166667   0.9166667   0.5833333), wk =   0.0011574
        k( 1725) = (   0.9166667   0.9166667   0.6666667), wk =   0.0011574
        k( 1726) = (   0.9166667   0.9166667   0.7500000), wk =   0.0011574
        k( 1727) = (   0.9166667   0.9166667   0.8333333), wk =   0.0011574
        k( 1728) = (   0.9166667   0.9166667   0.9166667), wk =   0.0011574

     Dense  grid:     7727 G-vectors     FFT dimensions: (  27,  27,  27)

     Dynamical RAM for                 wfc:       0.00 MB

     Dynamical RAM for     wfc (w. buffer):       5.07 MB

     Dynamical RAM for           str. fact:       0.01 MB

     Dynamical RAM for           local pot:       0.00 MB

     Dynamical RAM for          nlocal pot:       0.01 MB

     Dynamical RAM for                qrad:       0.19 MB

     Dynamical RAM for          rho,v,vnew:       0.05 MB

     Dynamical RAM for               rhoin:       0.02 MB

     Dynamical RAM for            rho*nmix:       0.09 MB

     Dynamical RAM for           G-vectors:       0.03 MB

     Dynamical RAM for          h,s,v(r/c):       0.00 MB

     Dynamical RAM for          <psi|beta>:       0.00 MB

     Dynamical RAM for                 psi:       0.01 MB

     Dynamical RAM for                hpsi:       0.01 MB

     Dynamical RAM for      wfcinit/wfcrot:       0.01 MB

     Estimated static dynamical RAM per process >       5.52 MB

     Estimated max dynamical RAM per process >       5.55 MB

     Estimated total dynamical RAM >     110.98 MB

     Initial potential from superposition of free atoms

     starting charge    7.99889, renormalised to    8.00000
     Starting wfcs are    8 randomized atomic wfcs

     total cpu time spent up to now is      792.2 secs

     Self-consistent Calculation

     iteration #  1     ecut=    35.00 Ry     beta= 0.70
     Davidson diagonalization with overlap
     ethr =  1.00E-02,  avg # of iterations =  2.0

     Threshold (ethr) on eigenvalues was too large:
     Diagonalizing with lowered threshold

     Davidson diagonalization with overlap
     ethr =  6.95E-04,  avg # of iterations =  1.3
 
     Expectation value of exp(iGx): (0.633596485030639,-5.542165651686317E-002)
   1.00000000000000     
     Electronic Dipole per cell (Ry a.u.) -0.287010666458089     
     Ionic Dipole per cell (Ry a.u.)   47.7325330990227     
 
     Expectation value of exp(iGx): (0.635405929363128,-2.773310211404070E-002)
   1.00000012001816     
     Electronic Dipole per cell (Ry a.u.) -0.143485152569343     
     Ionic Dipole per cell (Ry a.u.)   33.7520076932614     
 
     Expectation value of exp(iGx): (0.633565917584508,-5.542079337374733E-002)
   1.00000019584229     
     Electronic Dipole per cell (Ry a.u.) -0.287020052306957     
     Ionic Dipole per cell (Ry a.u.)   82.6751824451763     
Electronic Dipole on Cartesian axes
           1 -0.289979112766625     
           2 -0.117155150340829     
           3 -0.502267939701772     
Ionic Dipole on Cartesian axes
           1   47.7325330990227     
           2   33.7520076932614     
           3   82.6751824451763     

     total cpu time spent up to now is     4622.9 secs

     total energy              =     -15.73947283 Ry
     Harris-Foulkes estimate   =     -15.75219736 Ry
     estimated scf accuracy    <       0.05563354 Ry

     iteration #  2     ecut=    35.00 Ry     beta= 0.70
     Davidson diagonalization with overlap
     ethr =  6.95E-04,  avg # of iterations =  1.0
 
     Expectation value of exp(iGx): (0.630086276898402,-2.753079111013225E-002)
   1.00000000000000     
     Electronic Dipole per cell (Ry a.u.) -0.143640793650185     
     Ionic Dipole per cell (Ry a.u.)   47.7325330990227     
 
     Expectation value of exp(iGx): (0.628283799692367,-5.494288991848589E-002)
   1.00000012001816     
     Electronic Dipole per cell (Ry a.u.) -0.286937656101349     
     Ionic Dipole per cell (Ry a.u.)   33.7520076932614     
 
     Expectation value of exp(iGx): (0.625262135337715,-8.231006108136946E-002)
   1.00000019584229     
     Electronic Dipole per cell (Ry a.u.) -0.430562416101616     
     Ionic Dipole per cell (Ry a.u.)   82.6751824451763     
Electronic Dipole on Cartesian axes
           1 -0.207228312475913     
           2 -0.234283642851149     
           3 -0.645851610247437     
Ionic Dipole on Cartesian axes
           1   47.7325330990227     
           2   33.7520076932614     
           3   82.6751824451763     

     total cpu time spent up to now is     6954.7 secs

     total energy              =     -15.74142440 Ry
     Harris-Foulkes estimate   =     -15.74144922 Ry
     estimated scf accuracy    <       0.00276051 Ry

     iteration #  3     ecut=    35.00 Ry     beta= 0.70
     Davidson diagonalization with overlap
     ethr =  3.45E-05,  avg # of iterations =  2.4
 
     Expectation value of exp(iGx): (0.593482067144815,0.187081135576546)
   1.00000000000000     
     Electronic Dipole per cell (Ry a.u.)   1.00451605187668     
     Ionic Dipole per cell (Ry a.u.)   47.7325330990227     
 
     Expectation value of exp(iGx): (0.616949135827216,-8.121324985476729E-002)
   1.00000012001816     
     Electronic Dipole per cell (Ry a.u.) -0.430549382258963     
     Ionic Dipole per cell (Ry a.u.)   33.7520076932614     
 
     Expectation value of exp(iGx): (0.621683138825110,-2.710571503450504E-002)
   1.00000019584229     
     Electronic Dipole per cell (Ry a.u.) -0.143334971886206     
     Ionic Dipole per cell (Ry a.u.)   82.6751824451763     
Electronic Dipole on Cartesian axes
           1  0.745647586189831     
           2 -0.351542140106259     
           3  0.143648370749070     
Ionic Dipole on Cartesian axes
           1   47.7325330990227     
           2   33.7520076932614     
           3   82.6751824451763     

     total cpu time spent up to now is    10000.7 secs

     total energy              =     -15.74183131 Ry
     Harris-Foulkes estimate   =     -15.74185502 Ry
     estimated scf accuracy    <       0.00006893 Ry

     iteration #  4     ecut=    35.00 Ry     beta= 0.70
     Davidson diagonalization with overlap
