
     Program PWSCF v.6.3MaX starts on 21Feb2019 at  4: 0:37 

     This program is part of the open-source Quantum ESPRESSO suite
     for quantum simulation of materials; please cite
         "P. Giannozzi et al., J. Phys.:Condens. Matter 21 395502 (2009);
         "P. Giannozzi et al., J. Phys.:Condens. Matter 29 465901 (2017);
          URL http://www.quantum-espresso.org", 
     in publications or presentations arising from this work. More details at
     http://www.quantum-espresso.org/quote

 *** WARNING: using old-style file format, will disappear from next version ***

     Parallel version (MPI & OpenMP), running on      20 processor cores
     Number of MPI processes:                 5
     Threads/MPI process:                     4

     MPI processes distributed on     1 nodes
     R & G space division:  proc/nbgrp/npool/nimage =       5
     Reading input from /home/azadoks/dftman/projects/GP01 Cu Kgrid/ConvergenceWorkflows/94873fcf11d9/23b81d5ec079/pwscf.in

     Current dimensions of program PWSCF are:
     Max number of different atomic species (ntypx) = 10
     Max number of k-points (npk) =  40000
     Max angular momentum in pseudopotentials (lmaxx) =  3
     Message from routine iosys:
     minimal I/O required, wf_collect reset to FALSE

     Subspace diagonalization in iterative solution of the eigenvalue problem:
     a serial algorithm will be used

 
     Parallelization info
     --------------------
     sticks:   dense  smooth     PW     G-vecs:    dense   smooth      PW
     Min          59      59     19                  657      657     128
     Max          59      59     20                  658      658     130
     Sum         295     295     97                 3287     3287     645
 


     bravais-lattice index     =            0
     lattice parameter (alat)  =       4.8305  a.u.
     unit-cell volume          =      79.7006 (a.u.)^3
     number of atoms/cell      =            1
     number of atomic types    =            1
     number of electrons       =        11.00
     number of Kohn-Sham states=           10
     kinetic-energy cutoff     =      45.0000  Ry
     charge density cutoff     =     180.0000  Ry
     convergence threshold     =      1.0E-08
     mixing beta               =       0.7000
     number of iterations used =            8  plain     mixing
     Exchange-correlation      =  SLA  PW   PBE  PBE ( 1  4  3  4 0 0)
     nstep                     =           50


     celldm(1)=   4.830501  celldm(2)=   0.000000  celldm(3)=   0.000000
     celldm(4)=   0.000000  celldm(5)=   0.000000  celldm(6)=   0.000000

     crystal axes: (cart. coord. in units of alat)
               a(1) = (  -0.707107   0.707107   0.000000 )  
               a(2) = (  -0.707107   0.000000   0.707107 )  
               a(3) = (   0.000000   0.707107   0.707107 )  

     reciprocal axes: (cart. coord. in units 2 pi/alat)
               b(1) = ( -0.707107  0.707107 -0.707107 )  
               b(2) = ( -0.707107 -0.707107  0.707107 )  
               b(3) = (  0.707107  0.707107  0.707107 )  


     PseudoPot. # 1 for Cu read from file:
     /home/azadoks/.local/share/pseudo/DFTQE_PBE/Cu_PBE.UPF
     MD5 check sum: f96b10b0f61dc418faf9c97f6ccca034
     Pseudo is Ultrasoft + core correction, Zval = 11.0
     Generated by new atomic code, or converted to UPF format
     Using radial grid of  867 points,  6 beta functions with: 
                l(1) =   0
                l(2) =   0
                l(3) =   1
                l(4) =   1
                l(5) =   2
                l(6) =   2
     Q(r) pseudized with  8 coefficients,  rinner =    1.400   1.400   1.400
                                                       1.400   1.400

     atomic species   valence    mass     pseudopotential
        Cu            11.00    63.54600     Cu( 1.00)

     Starting magnetic structure 
     atomic species   magnetization
        Cu           0.100

     48 Sym. Ops., with inversion, found


                                    s                        frac. trans.

      isym =  1     identity                                     

 cryst.   s( 1) = (     1          0          0      )
                  (     0          1          0      )
                  (     0          0          1      )

 cart.    s( 1) = (  1.0000000 -0.0000000  0.0000000 )
                  ( -0.0000000  1.0000000 -0.0000000 )
                  ( -0.0000000 -0.0000000  1.0000000 )


      isym =  2     180 deg rotation - cart. axis [0,0,1]        

 cryst.   s( 2) = (    -1          0          0      )
                  (    -1          0          1      )
                  (    -1          1          0      )

 cart.    s( 2) = ( -1.0000000  0.0000000  0.0000000 )
                  (  0.0000000 -1.0000000 -0.0000000 )
                  (  0.0000000  0.0000000  1.0000000 )


      isym =  3     180 deg rotation - cart. axis [0,1,0]        

 cryst.   s( 3) = (     0         -1          1      )
                  (     0         -1          0      )
                  (     1         -1          0      )

 cart.    s( 3) = ( -1.0000000 -0.0000000 -0.0000000 )
                  (  0.0000000  1.0000000  0.0000000 )
                  (  0.0000000 -0.0000000 -1.0000000 )


      isym =  4     180 deg rotation - cart. axis [1,0,0]        

 cryst.   s( 4) = (     0          1         -1      )
                  (     1          0         -1      )
                  (     0          0         -1      )

 cart.    s( 4) = (  1.0000000  0.0000000 -0.0000000 )
                  ( -0.0000000 -1.0000000  0.0000000 )
                  ( -0.0000000  0.0000000 -1.0000000 )


      isym =  5     180 deg rotation - cart. axis [1,1,0]        

 cryst.   s( 5) = (    -1          0          0      )
                  (     0          0         -1      )
                  (     0         -1          0      )

 cart.    s( 5) = ( -0.0000000  1.0000000 -0.0000000 )
                  (  1.0000000 -0.0000000  0.0000000 )
                  ( -0.0000000 -0.0000000 -1.0000000 )


      isym =  6     180 deg rotation - cart. axis [1,-1,0]       

 cryst.   s( 6) = (     1          0          0      )
                  (     1         -1          0      )
                  (     1          0         -1      )

 cart.    s( 6) = (  0.0000000 -1.0000000 -0.0000000 )
                  ( -1.0000000  0.0000000  0.0000000 )
                  (  0.0000000  0.0000000 -1.0000000 )


      isym =  7      90 deg rotation - cart. axis [0,0,-1]       

 cryst.   s( 7) = (     0         -1          1      )
                  (     0          0          1      )
                  (    -1          0          1      )

 cart.    s( 7) = (  0.0000000  1.0000000  0.0000000 )
                  ( -1.0000000 -0.0000000 -0.0000000 )
                  (  0.0000000 -0.0000000  1.0000000 )


      isym =  8      90 deg rotation - cart. axis [0,0,1]        

 cryst.   s( 8) = (     0          1         -1      )
                  (    -1          1          0      )
                  (     0          1          0      )

 cart.    s( 8) = ( -0.0000000 -1.0000000  0.0000000 )
                  (  1.0000000  0.0000000 -0.0000000 )
                  ( -0.0000000  0.0000000  1.0000000 )


      isym =  9     180 deg rotation - cart. axis [1,0,1]        

 cryst.   s( 9) = (     0          0         -1      )
                  (     0         -1          0      )
                  (    -1          0          0      )

 cart.    s( 9) = (  0.0000000  0.0000000  1.0000000 )
                  ( -0.0000000 -1.0000000 -0.0000000 )
                  (  1.0000000  0.0000000 -0.0000000 )


      isym = 10     180 deg rotation - cart. axis [-1,0,1]       

 cryst.   s(10) = (    -1          1          0      )
                  (     0          1          0      )
                  (     0          1         -1      )

 cart.    s(10) = ( -0.0000000  0.0000000 -1.0000000 )
                  (  0.0000000 -1.0000000  0.0000000 )
                  ( -1.0000000  0.0000000  0.0000000 )


      isym = 11      90 deg rotation - cart. axis [0,1,0]        

 cryst.   s(11) = (     0          0          1      )
                  (    -1          0          1      )
                  (     0         -1          1      )

 cart.    s(11) = ( -0.0000000 -0.0000000  1.0000000 )
                  (  0.0000000  1.0000000 -0.0000000 )
                  ( -1.0000000 -0.0000000 -0.0000000 )


      isym = 12      90 deg rotation - cart. axis [0,-1,0]       

 cryst.   s(12) = (     1         -1          0      )
                  (     1          0         -1      )
                  (     1          0          0      )

 cart.    s(12) = (  0.0000000 -0.0000000 -1.0000000 )
                  ( -0.0000000  1.0000000  0.0000000 )
                  (  1.0000000 -0.0000000  0.0000000 )


      isym = 13     180 deg rotation - cart. axis [0,1,1]        

 cryst.   s(13) = (    -1          0          1      )
                  (     0         -1          1      )
                  (     0          0          1      )

 cart.    s(13) = ( -1.0000000  0.0000000 -0.0000000 )
                  (  0.0000000 -0.0000000  1.0000000 )
                  (  0.0000000  1.0000000 -0.0000000 )


      isym = 14     180 deg rotation - cart. axis [0,1,-1]       

 cryst.   s(14) = (     0         -1          0      )
                  (    -1          0          0      )
                  (     0          0         -1      )

 cart.    s(14) = ( -1.0000000 -0.0000000  0.0000000 )
                  (  0.0000000  0.0000000 -1.0000000 )
                  (  0.0000000 -1.0000000  0.0000000 )


      isym = 15      90 deg rotation - cart. axis [-1,0,0]       

 cryst.   s(15) = (     1          0         -1      )
                  (     1          0          0      )
                  (     1         -1          0      )

 cart.    s(15) = (  1.0000000 -0.0000000 -0.0000000 )
                  ( -0.0000000  0.0000000  1.0000000 )
                  ( -0.0000000 -1.0000000 -0.0000000 )


      isym = 16      90 deg rotation - cart. axis [1,0,0]        

 cryst.   s(16) = (     0          1          0      )
                  (     0          1         -1      )
                  (    -1          1          0      )

 cart.    s(16) = (  1.0000000  0.0000000  0.0000000 )
                  ( -0.0000000 -0.0000000 -1.0000000 )
                  ( -0.0000000  1.0000000  0.0000000 )


      isym = 17     120 deg rotation - cart. axis [-1,-1,-1]     

 cryst.   s(17) = (     0         -1          0      )
                  (     1         -1          0      )
                  (     0         -1          1      )

 cart.    s(17) = (  0.0000000  1.0000000 -0.0000000 )
                  ( -0.0000000 -0.0000000  1.0000000 )
                  (  1.0000000 -0.0000000 -0.0000000 )


      isym = 18     120 deg rotation - cart. axis [-1,1,1]       

 cryst.   s(18) = (     0          1          0      )
                  (     0          0          1      )
                  (     1          0          0      )

 cart.    s(18) = ( -0.0000000 -1.0000000 -0.0000000 )
                  (  0.0000000  0.0000000  1.0000000 )
                  ( -1.0000000  0.0000000 -0.0000000 )


      isym = 19     120 deg rotation - cart. axis [1,1,-1]       

 cryst.   s(19) = (    -1          0          1      )
                  (    -1          1          0      )
                  (    -1          0          0      )

 cart.    s(19) = ( -0.0000000  1.0000000  0.0000000 )
                  (  0.0000000 -0.0000000 -1.0000000 )
                  ( -1.0000000 -0.0000000  0.0000000 )


      isym = 20     120 deg rotation - cart. axis [1,-1,1]       

 cryst.   s(20) = (     1          0         -1      )
                  (     0          0         -1      )
                  (     0          1         -1      )

 cart.    s(20) = (  0.0000000 -1.0000000  0.0000000 )
                  ( -0.0000000  0.0000000 -1.0000000 )
                  (  1.0000000  0.0000000  0.0000000 )


      isym = 21     120 deg rotation - cart. axis [1,1,1]        

 cryst.   s(21) = (    -1          1          0      )
                  (    -1          0          0      )
                  (    -1          0          1      )

 cart.    s(21) = ( -0.0000000  0.0000000  1.0000000 )
                  (  1.0000000 -0.0000000 -0.0000000 )
                  ( -0.0000000  1.0000000 -0.0000000 )


      isym = 22     120 deg rotation - cart. axis [-1,1,-1]      

 cryst.   s(22) = (     1         -1          0      )
                  (     0         -1          1      )
                  (     0         -1          0      )

 cart.    s(22) = (  0.0000000 -0.0000000  1.0000000 )
                  ( -1.0000000  0.0000000 -0.0000000 )
                  (  0.0000000 -1.0000000 -0.0000000 )


      isym = 23     120 deg rotation - cart. axis [1,-1,-1]      

 cryst.   s(23) = (     0          0          1      )
                  (     1          0          0      )
                  (     0          1          0      )

 cart.    s(23) = (  0.0000000  0.0000000 -1.0000000 )
                  ( -1.0000000 -0.0000000  0.0000000 )
                  (  0.0000000  1.0000000  0.0000000 )


      isym = 24     120 deg rotation - cart. axis [-1,-1,1]      

 cryst.   s(24) = (     0          0         -1      )
                  (     0          1         -1      )
                  (     1          0         -1      )

 cart.    s(24) = ( -0.0000000 -0.0000000 -1.0000000 )
                  (  1.0000000  0.0000000  0.0000000 )
                  ( -0.0000000 -1.0000000  0.0000000 )


      isym = 25     inversion                                    

 cryst.   s(25) = (    -1          0          0      )
                  (     0         -1          0      )
                  (     0          0         -1      )

 cart.    s(25) = ( -1.0000000  0.0000000 -0.0000000 )
                  (  0.0000000 -1.0000000  0.0000000 )
                  (  0.0000000  0.0000000 -1.0000000 )


      isym = 26     inv. 180 deg rotation - cart. axis [0,0,1]   

 cryst.   s(26) = (     1          0          0      )
                  (     1          0         -1      )
                  (     1         -1          0      )

 cart.    s(26) = (  1.0000000 -0.0000000 -0.0000000 )
                  ( -0.0000000  1.0000000  0.0000000 )
                  ( -0.0000000 -0.0000000 -1.0000000 )


      isym = 27     inv. 180 deg rotation - cart. axis [0,1,0]   

 cryst.   s(27) = (     0          1         -1      )
                  (     0          1          0      )
                  (    -1          1          0      )

 cart.    s(27) = (  1.0000000  0.0000000  0.0000000 )
                  ( -0.0000000 -1.0000000 -0.0000000 )
                  ( -0.0000000  0.0000000  1.0000000 )


      isym = 28     inv. 180 deg rotation - cart. axis [1,0,0]   

 cryst.   s(28) = (     0         -1          1      )
                  (    -1          0          1      )
                  (     0          0          1      )

 cart.    s(28) = ( -1.0000000 -0.0000000  0.0000000 )
                  (  0.0000000  1.0000000 -0.0000000 )
                  (  0.0000000 -0.0000000  1.0000000 )


      isym = 29     inv. 180 deg rotation - cart. axis [1,1,0]   

 cryst.   s(29) = (     1          0          0      )
                  (     0          0          1      )
                  (     0          1          0      )

 cart.    s(29) = (  0.0000000 -1.0000000  0.0000000 )
                  ( -1.0000000  0.0000000 -0.0000000 )
                  (  0.0000000  0.0000000  1.0000000 )


      isym = 30     inv. 180 deg rotation - cart. axis [1,-1,0]  

 cryst.   s(30) = (    -1          0          0      )
                  (    -1          1          0      )
                  (    -1          0          1      )

 cart.    s(30) = ( -0.0000000  1.0000000  0.0000000 )
                  (  1.0000000 -0.0000000 -0.0000000 )
                  ( -0.0000000 -0.0000000  1.0000000 )


      isym = 31     inv.  90 deg rotation - cart. axis [0,0,-1]  

 cryst.   s(31) = (     0          1         -1      )
                  (     0          0         -1      )
                  (     1          0         -1      )

 cart.    s(31) = ( -0.0000000 -1.0000000 -0.0000000 )
                  (  1.0000000  0.0000000  0.0000000 )
                  ( -0.0000000  0.0000000 -1.0000000 )


      isym = 32     inv.  90 deg rotation - cart. axis [0,0,1]   

 cryst.   s(32) = (     0         -1          1      )
                  (     1         -1          0      )
                  (     0         -1          0      )

 cart.    s(32) = (  0.0000000  1.0000000 -0.0000000 )
                  ( -1.0000000 -0.0000000  0.0000000 )
                  (  0.0000000 -0.0000000 -1.0000000 )


      isym = 33     inv. 180 deg rotation - cart. axis [1,0,1]   

 cryst.   s(33) = (     0          0          1      )
                  (     0          1          0      )
                  (     1          0          0      )

 cart.    s(33) = ( -0.0000000 -0.0000000 -1.0000000 )
                  (  0.0000000  1.0000000  0.0000000 )
                  ( -1.0000000 -0.0000000  0.0000000 )


      isym = 34     inv. 180 deg rotation - cart. axis [-1,0,1]  

 cryst.   s(34) = (     1         -1          0      )
                  (     0         -1          0      )
                  (     0         -1          1      )

 cart.    s(34) = (  0.0000000 -0.0000000  1.0000000 )
                  ( -0.0000000  1.0000000 -0.0000000 )
                  (  1.0000000 -0.0000000 -0.0000000 )


      isym = 35     inv.  90 deg rotation - cart. axis [0,1,0]   

 cryst.   s(35) = (     0          0         -1      )
                  (     1          0         -1      )
                  (     0          1         -1      )

 cart.    s(35) = (  0.0000000  0.0000000 -1.0000000 )
                  ( -0.0000000 -1.0000000  0.0000000 )
                  (  1.0000000  0.0000000  0.0000000 )


      isym = 36     inv.  90 deg rotation - cart. axis [0,-1,0]  

 cryst.   s(36) = (    -1          1          0      )
                  (    -1          0          1      )
                  (    -1          0          0      )

 cart.    s(36) = ( -0.0000000  0.0000000  1.0000000 )
                  (  0.0000000 -1.0000000 -0.0000000 )
                  ( -1.0000000  0.0000000 -0.0000000 )


      isym = 37     inv. 180 deg rotation - cart. axis [0,1,1]   

 cryst.   s(37) = (     1          0         -1      )
                  (     0          1         -1      )
                  (     0          0         -1      )

 cart.    s(37) = (  1.0000000 -0.0000000  0.0000000 )
                  ( -0.0000000  0.0000000 -1.0000000 )
                  ( -0.0000000 -1.0000000  0.0000000 )


      isym = 38     inv. 180 deg rotation - cart. axis [0,1,-1]  

 cryst.   s(38) = (     0          1          0      )
                  (     1          0          0      )
                  (     0          0          1      )

 cart.    s(38) = (  1.0000000  0.0000000 -0.0000000 )
                  ( -0.0000000 -0.0000000  1.0000000 )
                  ( -0.0000000  1.0000000 -0.0000000 )


      isym = 39     inv.  90 deg rotation - cart. axis [-1,0,0]  

 cryst.   s(39) = (    -1          0          1      )
                  (    -1          0          0      )
                  (    -1          1          0      )

 cart.    s(39) = ( -1.0000000  0.0000000  0.0000000 )
                  (  0.0000000 -0.0000000 -1.0000000 )
                  (  0.0000000  1.0000000  0.0000000 )


      isym = 40     inv.  90 deg rotation - cart. axis [1,0,0]   

 cryst.   s(40) = (     0         -1          0      )
                  (     0         -1          1      )
                  (     1         -1          0      )

 cart.    s(40) = ( -1.0000000 -0.0000000 -0.0000000 )
                  (  0.0000000  0.0000000  1.0000000 )
                  (  0.0000000 -1.0000000 -0.0000000 )


      isym = 41     inv. 120 deg rotation - cart. axis [-1,-1,-1]

 cryst.   s(41) = (     0          1          0      )
                  (    -1          1          0      )
                  (     0          1         -1      )

 cart.    s(41) = ( -0.0000000 -1.0000000  0.0000000 )
                  (  0.0000000  0.0000000 -1.0000000 )
                  ( -1.0000000  0.0000000  0.0000000 )


      isym = 42     inv. 120 deg rotation - cart. axis [-1,1,1]  

 cryst.   s(42) = (     0         -1          0      )
                  (     0          0         -1      )
                  (    -1          0          0      )

 cart.    s(42) = (  0.0000000  1.0000000  0.0000000 )
                  ( -0.0000000 -0.0000000 -1.0000000 )
                  (  1.0000000 -0.0000000  0.0000000 )


      isym = 43     inv. 120 deg rotation - cart. axis [1,1,-1]  

 cryst.   s(43) = (     1          0         -1      )
                  (     1         -1          0      )
                  (     1          0          0      )

 cart.    s(43) = (  0.0000000 -1.0000000 -0.0000000 )
                  ( -0.0000000  0.0000000  1.0000000 )
                  (  1.0000000  0.0000000 -0.0000000 )


      isym = 44     inv. 120 deg rotation - cart. axis [1,-1,1]  

 cryst.   s(44) = (    -1          0          1      )
                  (     0          0          1      )
                  (     0         -1          1      )

 cart.    s(44) = ( -0.0000000  1.0000000 -0.0000000 )
                  (  0.0000000 -0.0000000  1.0000000 )
                  ( -1.0000000 -0.0000000 -0.0000000 )


      isym = 45     inv. 120 deg rotation - cart. axis [1,1,1]   

 cryst.   s(45) = (     1         -1          0      )
                  (     1          0          0      )
                  (     1          0         -1      )

 cart.    s(45) = (  0.0000000 -0.0000000 -1.0000000 )
                  ( -1.0000000  0.0000000  0.0000000 )
                  (  0.0000000 -1.0000000  0.0000000 )


      isym = 46     inv. 120 deg rotation - cart. axis [-1,1,-1] 

 cryst.   s(46) = (    -1          1          0      )
                  (     0          1         -1      )
                  (     0          1          0      )

 cart.    s(46) = ( -0.0000000  0.0000000 -1.0000000 )
                  (  1.0000000 -0.0000000  0.0000000 )
                  ( -0.0000000  1.0000000  0.0000000 )


      isym = 47     inv. 120 deg rotation - cart. axis [1,-1,-1] 

 cryst.   s(47) = (     0          0         -1      )
                  (    -1          0          0      )
                  (     0         -1          0      )

 cart.    s(47) = ( -0.0000000 -0.0000000  1.0000000 )
                  (  1.0000000  0.0000000 -0.0000000 )
                  ( -0.0000000 -1.0000000 -0.0000000 )


      isym = 48     inv. 120 deg rotation - cart. axis [-1,-1,1] 

 cryst.   s(48) = (     0          0          1      )
                  (     0         -1          1      )
                  (    -1          0          1      )

 cart.    s(48) = (  0.0000000  0.0000000  1.0000000 )
                  ( -1.0000000 -0.0000000 -0.0000000 )
                  (  0.0000000  1.0000000 -0.0000000 )


   Cartesian axes

     site n.     atom                  positions (alat units)
         1           Cu  tau(   1) = (   0.0000000   0.0000000   0.0000000  )

   Crystallographic axes

     site n.     atom                  positions (cryst. coord.)
         1           Cu  tau(   1) = (  0.0000000  0.0000000  0.0000000  )

     number of k points=   328  Marzari-Vanderbilt smearing, width (Ry)=  0.0100
                       cart. coord. in units 2pi/alat
        k(    1) = (   0.0000000   0.0000000   0.0000000), wk =   0.0000939
        k(    2) = (   0.0321412   0.0321412   0.0321412), wk =   0.0007513
        k(    3) = (   0.0642824   0.0642824   0.0642824), wk =   0.0007513
        k(    4) = (   0.0964237   0.0964237   0.0964237), wk =   0.0007513
        k(    5) = (   0.1285649   0.1285649   0.1285649), wk =   0.0007513
        k(    6) = (   0.1607061   0.1607061   0.1607061), wk =   0.0007513
        k(    7) = (   0.1928473   0.1928473   0.1928473), wk =   0.0007513
        k(    8) = (   0.2249885   0.2249885   0.2249885), wk =   0.0007513
        k(    9) = (   0.2571297   0.2571297   0.2571297), wk =   0.0007513
        k(   10) = (   0.2892710   0.2892710   0.2892710), wk =   0.0007513
        k(   11) = (   0.3214122   0.3214122   0.3214122), wk =   0.0007513
        k(   12) = (  -0.3535534  -0.3535534  -0.3535534), wk =   0.0003757
        k(   13) = (   0.0000000   0.0000000   0.0642824), wk =   0.0005635
        k(   14) = (   0.0321412   0.0321412   0.0964237), wk =   0.0022539
        k(   15) = (   0.0642824   0.0642824   0.1285649), wk =   0.0022539
        k(   16) = (   0.0964237   0.0964237   0.1607061), wk =   0.0022539
        k(   17) = (   0.1285649   0.1285649   0.1928473), wk =   0.0022539
        k(   18) = (   0.1607061   0.1607061   0.2249885), wk =   0.0022539
        k(   19) = (   0.1928473   0.1928473   0.2571297), wk =   0.0022539
        k(   20) = (   0.2249885   0.2249885   0.2892710), wk =   0.0022539
        k(   21) = (   0.2571297   0.2571297   0.3214122), wk =   0.0022539
        k(   22) = (   0.2892710   0.2892710   0.3535534), wk =   0.0022539
        k(   23) = (  -0.3856946  -0.3856946  -0.3214122), wk =   0.0022539
        k(   24) = (  -0.3535534  -0.3535534  -0.2892710), wk =   0.0022539
        k(   25) = (  -0.3214122  -0.3214122  -0.2571297), wk =   0.0022539
        k(   26) = (  -0.2892710  -0.2892710  -0.2249885), wk =   0.0022539
        k(   27) = (  -0.2571297  -0.2571297  -0.1928473), wk =   0.0022539
        k(   28) = (  -0.2249885  -0.2249885  -0.1607061), wk =   0.0022539
        k(   29) = (  -0.1928473  -0.1928473  -0.1285649), wk =   0.0022539
        k(   30) = (  -0.1607061  -0.1607061  -0.0964237), wk =   0.0022539
        k(   31) = (  -0.1285649  -0.1285649  -0.0642824), wk =   0.0022539
        k(   32) = (  -0.0964237  -0.0964237  -0.0321412), wk =   0.0022539
        k(   33) = (  -0.0642824  -0.0642824   0.0000000), wk =   0.0011270
        k(   34) = (   0.0000000   0.0000000   0.1285649), wk =   0.0005635
        k(   35) = (   0.0321412   0.0321412   0.1607061), wk =   0.0022539
        k(   36) = (   0.0642824   0.0642824   0.1928473), wk =   0.0022539
        k(   37) = (   0.0964237   0.0964237   0.2249885), wk =   0.0022539
        k(   38) = (   0.1285649   0.1285649   0.2571297), wk =   0.0022539
        k(   39) = (   0.1607061   0.1607061   0.2892710), wk =   0.0022539
        k(   40) = (   0.1928473   0.1928473   0.3214122), wk =   0.0022539
        k(   41) = (   0.2249885   0.2249885   0.3535534), wk =   0.0022539
        k(   42) = (   0.2571297   0.2571297   0.3856946), wk =   0.0022539
        k(   43) = (  -0.4178358  -0.4178358  -0.2892710), wk =   0.0022539
        k(   44) = (  -0.3856946  -0.3856946  -0.2571297), wk =   0.0022539
        k(   45) = (  -0.3535534  -0.3535534  -0.2249885), wk =   0.0022539
        k(   46) = (  -0.3214122  -0.3214122  -0.1928473), wk =   0.0022539
        k(   47) = (  -0.2892710  -0.2892710  -0.1607061), wk =   0.0022539
        k(   48) = (  -0.2571297  -0.2571297  -0.1285649), wk =   0.0022539
        k(   49) = (  -0.2249885  -0.2249885  -0.0964237), wk =   0.0022539
        k(   50) = (  -0.1928473  -0.1928473  -0.0642824), wk =   0.0022539
        k(   51) = (  -0.1607061  -0.1607061  -0.0321412), wk =   0.0022539
        k(   52) = (  -0.1285649  -0.1285649  -0.0000000), wk =   0.0011270
        k(   53) = (   0.0000000   0.0000000   0.1928473), wk =   0.0005635
        k(   54) = (   0.0321412   0.0321412   0.2249885), wk =   0.0022539
        k(   55) = (   0.0642824   0.0642824   0.2571297), wk =   0.0022539
        k(   56) = (   0.0964237   0.0964237   0.2892710), wk =   0.0022539
        k(   57) = (   0.1285649   0.1285649   0.3214122), wk =   0.0022539
        k(   58) = (   0.1607061   0.1607061   0.3535534), wk =   0.0022539
        k(   59) = (   0.1928473   0.1928473   0.3856946), wk =   0.0022539
        k(   60) = (   0.2249885   0.2249885   0.4178358), wk =   0.0022539
        k(   61) = (  -0.4499770  -0.4499770  -0.2571297), wk =   0.0022539
        k(   62) = (  -0.4178358  -0.4178358  -0.2249885), wk =   0.0022539
        k(   63) = (  -0.3856946  -0.3856946  -0.1928473), wk =   0.0022539
        k(   64) = (  -0.3535534  -0.3535534  -0.1607061), wk =   0.0022539
        k(   65) = (  -0.3214122  -0.3214122  -0.1285649), wk =   0.0022539
        k(   66) = (  -0.2892710  -0.2892710  -0.0964237), wk =   0.0022539
        k(   67) = (  -0.2571297  -0.2571297  -0.0642824), wk =   0.0022539
        k(   68) = (  -0.2249885  -0.2249885  -0.0321412), wk =   0.0022539
        k(   69) = (  -0.1928473  -0.1928473  -0.0000000), wk =   0.0011270
        k(   70) = (   0.0000000   0.0000000   0.2571297), wk =   0.0005635
        k(   71) = (   0.0321412   0.0321412   0.2892710), wk =   0.0022539
        k(   72) = (   0.0642824   0.0642824   0.3214122), wk =   0.0022539
        k(   73) = (   0.0964237   0.0964237   0.3535534), wk =   0.0022539
        k(   74) = (   0.1285649   0.1285649   0.3856946), wk =   0.0022539
        k(   75) = (   0.1607061   0.1607061   0.4178358), wk =   0.0022539
        k(   76) = (   0.1928473   0.1928473   0.4499770), wk =   0.0022539
        k(   77) = (  -0.4821183  -0.4821183  -0.2249885), wk =   0.0022539
        k(   78) = (  -0.4499770  -0.4499770  -0.1928473), wk =   0.0022539
        k(   79) = (  -0.4178358  -0.4178358  -0.1607061), wk =   0.0022539
        k(   80) = (  -0.3856946  -0.3856946  -0.1285649), wk =   0.0022539
        k(   81) = (  -0.3535534  -0.3535534  -0.0964237), wk =   0.0022539
        k(   82) = (  -0.3214122  -0.3214122  -0.0642824), wk =   0.0022539
        k(   83) = (  -0.2892710  -0.2892710  -0.0321412), wk =   0.0022539
        k(   84) = (  -0.2571297  -0.2571297   0.0000000), wk =   0.0011270
        k(   85) = (  -0.0000000  -0.0000000   0.3214122), wk =   0.0005635
        k(   86) = (   0.0321412   0.0321412   0.3535534), wk =   0.0022539
        k(   87) = (   0.0642824   0.0642824   0.3856946), wk =   0.0022539
        k(   88) = (   0.0964237   0.0964237   0.4178358), wk =   0.0022539
        k(   89) = (   0.1285649   0.1285649   0.4499770), wk =   0.0022539
        k(   90) = (   0.1607061   0.1607061   0.4821183), wk =   0.0022539
        k(   91) = (  -0.5142595  -0.5142595  -0.1928473), wk =   0.0022539
        k(   92) = (  -0.4821183  -0.4821183  -0.1607061), wk =   0.0022539
        k(   93) = (  -0.4499770  -0.4499770  -0.1285649), wk =   0.0022539
        k(   94) = (  -0.4178358  -0.4178358  -0.0964237), wk =   0.0022539
        k(   95) = (  -0.3856946  -0.3856946  -0.0642824), wk =   0.0022539
        k(   96) = (  -0.3535534  -0.3535534  -0.0321412), wk =   0.0022539
        k(   97) = (  -0.3214122  -0.3214122  -0.0000000), wk =   0.0011270
        k(   98) = (   0.0000000   0.0000000   0.3856946), wk =   0.0005635
        k(   99) = (   0.0321412   0.0321412   0.4178358), wk =   0.0022539
        k(  100) = (   0.0642824   0.0642824   0.4499770), wk =   0.0022539
        k(  101) = (   0.0964237   0.0964237   0.4821183), wk =   0.0022539
        k(  102) = (   0.1285649   0.1285649   0.5142595), wk =   0.0022539
        k(  103) = (  -0.5464007  -0.5464007  -0.1607061), wk =   0.0022539
        k(  104) = (  -0.5142595  -0.5142595  -0.1285649), wk =   0.0022539
        k(  105) = (  -0.4821183  -0.4821183  -0.0964237), wk =   0.0022539
        k(  106) = (  -0.4499770  -0.4499770  -0.0642824), wk =   0.0022539
        k(  107) = (  -0.4178358  -0.4178358  -0.0321412), wk =   0.0022539
        k(  108) = (  -0.3856946  -0.3856946  -0.0000000), wk =   0.0011270
        k(  109) = (  -0.0000000  -0.0000000   0.4499770), wk =   0.0005635
        k(  110) = (   0.0321412   0.0321412   0.4821183), wk =   0.0022539
        k(  111) = (   0.0642824   0.0642824   0.5142595), wk =   0.0022539
        k(  112) = (   0.0964237   0.0964237   0.5464007), wk =   0.0022539
        k(  113) = (  -0.5785419  -0.5785419  -0.1285649), wk =   0.0022539
        k(  114) = (  -0.5464007  -0.5464007  -0.0964237), wk =   0.0022539
        k(  115) = (  -0.5142595  -0.5142595  -0.0642824), wk =   0.0022539
        k(  116) = (  -0.4821183  -0.4821183  -0.0321412), wk =   0.0022539
        k(  117) = (  -0.4499770  -0.4499770  -0.0000000), wk =   0.0011270
        k(  118) = (   0.0000000   0.0000000   0.5142595), wk =   0.0005635
        k(  119) = (   0.0321412   0.0321412   0.5464007), wk =   0.0022539
        k(  120) = (   0.0642824   0.0642824   0.5785419), wk =   0.0022539
        k(  121) = (  -0.6106831  -0.6106831  -0.0964237), wk =   0.0022539
        k(  122) = (  -0.5785419  -0.5785419  -0.0642824), wk =   0.0022539
        k(  123) = (  -0.5464007  -0.5464007  -0.0321412), wk =   0.0022539
        k(  124) = (  -0.5142595  -0.5142595  -0.0000000), wk =   0.0011270
        k(  125) = (   0.0000000   0.0000000   0.5785419), wk =   0.0005635
        k(  126) = (   0.0321412   0.0321412   0.6106831), wk =   0.0022539
        k(  127) = (  -0.6428243  -0.6428243  -0.0642824), wk =   0.0022539
        k(  128) = (  -0.6106831  -0.6106831  -0.0321412), wk =   0.0022539
        k(  129) = (  -0.5785419  -0.5785419   0.0000000), wk =   0.0011270
        k(  130) = (  -0.0000000  -0.0000000   0.6428243), wk =   0.0005635
        k(  131) = (  -0.6749656  -0.6749656  -0.0321412), wk =   0.0022539
        k(  132) = (  -0.6428243  -0.6428243  -0.0000000), wk =   0.0011270
        k(  133) = (   0.0000000   0.0000000  -0.7071068), wk =   0.0002817
        k(  134) = (  -0.0000000   0.0642824   0.1285649), wk =   0.0022539
        k(  135) = (   0.0321412   0.0964237   0.1607061), wk =   0.0045079
        k(  136) = (   0.0642824   0.1285649   0.1928473), wk =   0.0045079
        k(  137) = (   0.0964237   0.1607061   0.2249885), wk =   0.0045079
        k(  138) = (   0.1285649   0.1928473   0.2571297), wk =   0.0045079
        k(  139) = (   0.1607061   0.2249885   0.2892710), wk =   0.0045079
        k(  140) = (   0.1928473   0.2571297   0.3214122), wk =   0.0045079
        k(  141) = (   0.2249885   0.2892710   0.3535534), wk =   0.0045079
        k(  142) = (  -0.4499770  -0.3856946  -0.3214122), wk =   0.0045079
        k(  143) = (  -0.4178358  -0.3535534  -0.2892710), wk =   0.0022539
        k(  144) = (   0.0000000   0.0642824   0.1928473), wk =   0.0022539
        k(  145) = (   0.0321412   0.0964237   0.2249885), wk =   0.0045079
        k(  146) = (   0.0642824   0.1285649   0.2571297), wk =   0.0045079
        k(  147) = (   0.0964237   0.1607061   0.2892710), wk =   0.0045079
        k(  148) = (   0.1285649   0.1928473   0.3214122), wk =   0.0045079
        k(  149) = (   0.1607061   0.2249885   0.3535534), wk =   0.0045079
        k(  150) = (   0.1928473   0.2571297   0.3856946), wk =   0.0045079
        k(  151) = (  -0.4821183  -0.4178358  -0.2892710), wk =   0.0045079
        k(  152) = (  -0.4499770  -0.3856946  -0.2571297), wk =   0.0045079
        k(  153) = (  -0.4178358  -0.3535534  -0.2249885), wk =   0.0045079
        k(  154) = (  -0.3856946  -0.3214122  -0.1928473), wk =   0.0045079
        k(  155) = (  -0.3535534  -0.2892710  -0.1607061), wk =   0.0045079
        k(  156) = (  -0.3214122  -0.2571297  -0.1285649), wk =   0.0045079
        k(  157) = (  -0.2892710  -0.2249885  -0.0964237), wk =   0.0045079
        k(  158) = (  -0.2571297  -0.1928473  -0.0642824), wk =   0.0045079
        k(  159) = (  -0.2249885  -0.1607061  -0.0321412), wk =   0.0045079
        k(  160) = (  -0.1928473  -0.1285649  -0.0000000), wk =   0.0022539
        k(  161) = (  -0.0000000   0.0642824   0.2571297), wk =   0.0022539
        k(  162) = (   0.0321412   0.0964237   0.2892710), wk =   0.0045079
        k(  163) = (   0.0642824   0.1285649   0.3214122), wk =   0.0045079
        k(  164) = (   0.0964237   0.1607061   0.3535534), wk =   0.0045079
        k(  165) = (   0.1285649   0.1928473   0.3856946), wk =   0.0045079
        k(  166) = (   0.1607061   0.2249885   0.4178358), wk =   0.0045079
        k(  167) = (  -0.5142595  -0.4499770  -0.2571297), wk =   0.0045079
        k(  168) = (  -0.4821183  -0.4178358  -0.2249885), wk =   0.0045079
        k(  169) = (  -0.4499770  -0.3856946  -0.1928473), wk =   0.0045079
        k(  170) = (  -0.4178358  -0.3535534  -0.1607061), wk =   0.0045079
        k(  171) = (  -0.3856946  -0.3214122  -0.1285649), wk =   0.0045079
        k(  172) = (  -0.3535534  -0.2892710  -0.0964237), wk =   0.0045079
        k(  173) = (  -0.3214122  -0.2571297  -0.0642824), wk =   0.0045079
        k(  174) = (  -0.2892710  -0.2249885  -0.0321412), wk =   0.0045079
        k(  175) = (  -0.2571297  -0.1928473   0.0000000), wk =   0.0022539
        k(  176) = (  -0.0000000   0.0642824   0.3214122), wk =   0.0022539
        k(  177) = (   0.0321412   0.0964237   0.3535534), wk =   0.0045079
        k(  178) = (   0.0642824   0.1285649   0.3856946), wk =   0.0045079
        k(  179) = (   0.0964237   0.1607061   0.4178358), wk =   0.0045079
        k(  180) = (   0.1285649   0.1928473   0.4499770), wk =   0.0045079
        k(  181) = (  -0.5464007  -0.4821183  -0.2249885), wk =   0.0045079
        k(  182) = (  -0.5142595  -0.4499770  -0.1928473), wk =   0.0045079
        k(  183) = (  -0.4821183  -0.4178358  -0.1607061), wk =   0.0045079
        k(  184) = (  -0.4499770  -0.3856946  -0.1285649), wk =   0.0045079
        k(  185) = (  -0.4178358  -0.3535534  -0.0964237), wk =   0.0045079
        k(  186) = (  -0.3856946  -0.3214122  -0.0642824), wk =   0.0045079
        k(  187) = (  -0.3535534  -0.2892710  -0.0321412), wk =   0.0045079
        k(  188) = (  -0.3214122  -0.2571297   0.0000000), wk =   0.0022539
        k(  189) = (   0.0000000   0.0642824   0.3856946), wk =   0.0022539
        k(  190) = (   0.0321412   0.0964237   0.4178358), wk =   0.0045079
        k(  191) = (   0.0642824   0.1285649   0.4499770), wk =   0.0045079
        k(  192) = (   0.0964237   0.1607061   0.4821183), wk =   0.0045079
        k(  193) = (  -0.5785419  -0.5142595  -0.1928473), wk =   0.0045079
        k(  194) = (  -0.5464007  -0.4821183  -0.1607061), wk =   0.0045079
        k(  195) = (  -0.5142595  -0.4499770  -0.1285649), wk =   0.0045079
        k(  196) = (  -0.4821183  -0.4178358  -0.0964237), wk =   0.0045079
        k(  197) = (  -0.4499770  -0.3856946  -0.0642824), wk =   0.0045079
        k(  198) = (  -0.4178358  -0.3535534  -0.0321412), wk =   0.0045079
        k(  199) = (  -0.3856946  -0.3214122  -0.0000000), wk =   0.0022539
        k(  200) = (   0.0000000   0.0642824   0.4499770), wk =   0.0022539
        k(  201) = (   0.0321412   0.0964237   0.4821183), wk =   0.0045079
        k(  202) = (   0.0642824   0.1285649   0.5142595), wk =   0.0045079
        k(  203) = (  -0.6106831  -0.5464007  -0.1607061), wk =   0.0045079
        k(  204) = (  -0.5785419  -0.5142595  -0.1285649), wk =   0.0045079
        k(  205) = (  -0.5464007  -0.4821183  -0.0964237), wk =   0.0045079
        k(  206) = (  -0.5142595  -0.4499770  -0.0642824), wk =   0.0045079
        k(  207) = (  -0.4821183  -0.4178358  -0.0321412), wk =   0.0045079
        k(  208) = (  -0.4499770  -0.3856946   0.0000000), wk =   0.0022539
        k(  209) = (   0.0000000   0.0642824   0.5142595), wk =   0.0022539
        k(  210) = (   0.0321412   0.0964237   0.5464007), wk =   0.0045079
        k(  211) = (  -0.6428243  -0.5785419  -0.1285649), wk =   0.0045079
        k(  212) = (  -0.6106831  -0.5464007  -0.0964237), wk =   0.0045079
        k(  213) = (  -0.5785419  -0.5142595  -0.0642824), wk =   0.0045079
        k(  214) = (  -0.5464007  -0.4821183  -0.0321412), wk =   0.0045079
        k(  215) = (  -0.5142595  -0.4499770  -0.0000000), wk =   0.0022539
        k(  216) = (  -0.0000000   0.0642824   0.5785419), wk =   0.0022539
        k(  217) = (  -0.6749656  -0.6106831  -0.0964237), wk =   0.0045079
        k(  218) = (  -0.6428243  -0.5785419  -0.0642824), wk =   0.0045079
        k(  219) = (  -0.6106831  -0.5464007  -0.0321412), wk =   0.0045079
        k(  220) = (  -0.5785419  -0.5142595  -0.0000000), wk =   0.0022539
        k(  221) = (  -0.7071068  -0.6428243  -0.0642824), wk =   0.0022539
        k(  222) = (  -0.6749656  -0.6106831  -0.0321412), wk =   0.0045079
        k(  223) = (  -0.6428243  -0.5785419   0.0000000), wk =   0.0022539
        k(  224) = (  -0.0000000   0.0642824  -0.7071068), wk =   0.0011270
        k(  225) = (  -0.0000000   0.1285649   0.2571297), wk =   0.0022539
        k(  226) = (   0.0321412   0.1607061   0.2892710), wk =   0.0045079
        k(  227) = (   0.0642824   0.1928473   0.3214122), wk =   0.0045079
        k(  228) = (   0.0964237   0.2249885   0.3535534), wk =   0.0045079
        k(  229) = (   0.1285649   0.2571297   0.3856946), wk =   0.0045079
        k(  230) = (  -0.5464007  -0.4178358  -0.2892710), wk =   0.0045079
        k(  231) = (  -0.5142595  -0.3856946  -0.2571297), wk =   0.0045079
        k(  232) = (  -0.4821183  -0.3535534  -0.2249885), wk =   0.0022539
        k(  233) = (  -0.0000000   0.1285649   0.3214122), wk =   0.0022539
        k(  234) = (   0.0321412   0.1607061   0.3535534), wk =   0.0045079
        k(  235) = (   0.0642824   0.1928473   0.3856946), wk =   0.0045079
        k(  236) = (   0.0964237   0.2249885   0.4178358), wk =   0.0045079
        k(  237) = (  -0.5785419  -0.4499770  -0.2571297), wk =   0.0045079
        k(  238) = (  -0.5464007  -0.4178358  -0.2249885), wk =   0.0045079
        k(  239) = (  -0.5142595  -0.3856946  -0.1928473), wk =   0.0045079
        k(  240) = (  -0.4821183  -0.3535534  -0.1607061), wk =   0.0045079
        k(  241) = (  -0.4499770  -0.3214122  -0.1285649), wk =   0.0045079
        k(  242) = (  -0.4178358  -0.2892710  -0.0964237), wk =   0.0045079
        k(  243) = (  -0.3856946  -0.2571297  -0.0642824), wk =   0.0045079
        k(  244) = (  -0.3535534  -0.2249885  -0.0321412), wk =   0.0045079
        k(  245) = (  -0.3214122  -0.1928473   0.0000000), wk =   0.0022539
        k(  246) = (   0.0000000   0.1285649   0.3856946), wk =   0.0022539
        k(  247) = (   0.0321412   0.1607061   0.4178358), wk =   0.0045079
        k(  248) = (   0.0642824   0.1928473   0.4499770), wk =   0.0045079
        k(  249) = (  -0.6106831  -0.4821183  -0.2249885), wk =   0.0045079
        k(  250) = (  -0.5785419  -0.4499770  -0.1928473), wk =   0.0045079
        k(  251) = (  -0.5464007  -0.4178358  -0.1607061), wk =   0.0045079
        k(  252) = (  -0.5142595  -0.3856946  -0.1285649), wk =   0.0045079
        k(  253) = (  -0.4821183  -0.3535534  -0.0964237), wk =   0.0045079
        k(  254) = (  -0.4499770  -0.3214122  -0.0642824), wk =   0.0045079
        k(  255) = (  -0.4178358  -0.2892710  -0.0321412), wk =   0.0045079
        k(  256) = (  -0.3856946  -0.2571297   0.0000000), wk =   0.0022539
        k(  257) = (   0.0000000   0.1285649   0.4499770), wk =   0.0022539
        k(  258) = (   0.0321412   0.1607061   0.4821183), wk =   0.0045079
        k(  259) = (  -0.6428243  -0.5142595  -0.1928473), wk =   0.0045079
        k(  260) = (  -0.6106831  -0.4821183  -0.1607061), wk =   0.0045079
        k(  261) = (  -0.5785419  -0.4499770  -0.1285649), wk =   0.0045079
        k(  262) = (  -0.5464007  -0.4178358  -0.0964237), wk =   0.0045079
        k(  263) = (  -0.5142595  -0.3856946  -0.0642824), wk =   0.0045079
        k(  264) = (  -0.4821183  -0.3535534  -0.0321412), wk =   0.0045079
        k(  265) = (  -0.4499770  -0.3214122  -0.0000000), wk =   0.0022539
        k(  266) = (  -0.0000000   0.1285649   0.5142595), wk =   0.0022539
        k(  267) = (  -0.6749656  -0.5464007  -0.1607061), wk =   0.0045079
        k(  268) = (  -0.6428243  -0.5142595  -0.1285649), wk =   0.0045079
        k(  269) = (  -0.6106831  -0.4821183  -0.0964237), wk =   0.0045079
        k(  270) = (  -0.5785419  -0.4499770  -0.0642824), wk =   0.0045079
        k(  271) = (  -0.5464007  -0.4178358  -0.0321412), wk =   0.0045079
        k(  272) = (  -0.5142595  -0.3856946   0.0000000), wk =   0.0022539
        k(  273) = (  -0.7071068  -0.5785419  -0.1285649), wk =   0.0022539
        k(  274) = (  -0.6749656  -0.5464007  -0.0964237), wk =   0.0045079
        k(  275) = (  -0.6428243  -0.5142595  -0.0642824), wk =   0.0045079
        k(  276) = (  -0.6106831  -0.4821183  -0.0321412), wk =   0.0045079
        k(  277) = (  -0.5785419  -0.4499770  -0.0000000), wk =   0.0022539
        k(  278) = (  -0.7071068  -0.5785419  -0.0642824), wk =   0.0022539
        k(  279) = (  -0.6749656  -0.5464007  -0.0321412), wk =   0.0045079
        k(  280) = (  -0.6428243  -0.5142595  -0.0000000), wk =   0.0022539
        k(  281) = (   0.0000000   0.1285649  -0.7071068), wk =   0.0011270
        k(  282) = (   0.0000000   0.1928473   0.3856946), wk =   0.0022539
        k(  283) = (   0.0321412   0.2249885   0.4178358), wk =   0.0045079
        k(  284) = (  -0.6428243  -0.4499770  -0.2571297), wk =   0.0045079
        k(  285) = (  -0.6106831  -0.4178358  -0.2249885), wk =   0.0045079
        k(  286) = (  -0.5785419  -0.3856946  -0.1928473), wk =   0.0045079
        k(  287) = (  -0.5464007  -0.3535534  -0.1607061), wk =   0.0022539
        k(  288) = (  -0.0000000   0.1928473   0.4499770), wk =   0.0022539
        k(  289) = (  -0.6749656  -0.4821183  -0.2249885), wk =   0.0045079
        k(  290) = (  -0.6428243  -0.4499770  -0.1928473), wk =   0.0045079
        k(  291) = (  -0.6106831  -0.4178358  -0.1607061), wk =   0.0045079
        k(  292) = (  -0.5785419  -0.3856946  -0.1285649), wk =   0.0045079
        k(  293) = (  -0.5464007  -0.3535534  -0.0964237), wk =   0.0045079
        k(  294) = (  -0.5142595  -0.3214122  -0.0642824), wk =   0.0045079
        k(  295) = (  -0.4821183  -0.2892710  -0.0321412), wk =   0.0045079
        k(  296) = (  -0.4499770  -0.2571297   0.0000000), wk =   0.0022539
        k(  297) = (  -0.7071068  -0.5142595  -0.1928473), wk =   0.0022539
        k(  298) = (  -0.6749656  -0.4821183  -0.1607061), wk =   0.0045079
        k(  299) = (  -0.6428243  -0.4499770  -0.1285649), wk =   0.0045079
        k(  300) = (  -0.6106831  -0.4178358  -0.0964237), wk =   0.0045079
        k(  301) = (  -0.5785419  -0.3856946  -0.0642824), wk =   0.0045079
        k(  302) = (  -0.5464007  -0.3535534  -0.0321412), wk =   0.0045079
        k(  303) = (  -0.5142595  -0.3214122  -0.0000000), wk =   0.0022539
        k(  304) = (  -0.7071068  -0.5142595  -0.1285649), wk =   0.0022539
        k(  305) = (  -0.6749656  -0.4821183  -0.0964237), wk =   0.0045079
        k(  306) = (  -0.6428243  -0.4499770  -0.0642824), wk =   0.0045079
        k(  307) = (  -0.6106831  -0.4178358  -0.0321412), wk =   0.0045079
        k(  308) = (  -0.5785419  -0.3856946   0.0000000), wk =   0.0022539
        k(  309) = (  -0.7071068  -0.5142595  -0.0642824), wk =   0.0022539
        k(  310) = (  -0.6749656  -0.4821183  -0.0321412), wk =   0.0045079
        k(  311) = (  -0.6428243  -0.4499770  -0.0000000), wk =   0.0022539
        k(  312) = (  -0.0000000   0.1928473  -0.7071068), wk =   0.0011270
        k(  313) = (  -0.7071068  -0.4499770  -0.1928473), wk =   0.0022539
        k(  314) = (  -0.6749656  -0.4178358  -0.1607061), wk =   0.0045079
        k(  315) = (  -0.6428243  -0.3856946  -0.1285649), wk =   0.0045079
        k(  316) = (  -0.6106831  -0.3535534  -0.0964237), wk =   0.0022539
        k(  317) = (  -0.7071068  -0.4499770  -0.1285649), wk =   0.0022539
        k(  318) = (  -0.6749656  -0.4178358  -0.0964237), wk =   0.0045079
        k(  319) = (  -0.6428243  -0.3856946  -0.0642824), wk =   0.0045079
        k(  320) = (  -0.6106831  -0.3535534  -0.0321412), wk =   0.0045079
        k(  321) = (  -0.5785419  -0.3214122  -0.0000000), wk =   0.0022539
        k(  322) = (  -0.7071068  -0.4499770  -0.0642824), wk =   0.0022539
        k(  323) = (  -0.6749656  -0.4178358  -0.0321412), wk =   0.0045079
        k(  324) = (  -0.6428243  -0.3856946   0.0000000), wk =   0.0022539
        k(  325) = (  -0.0000000   0.2571297  -0.7071068), wk =   0.0011270
        k(  326) = (  -0.7071068  -0.3856946  -0.0642824), wk =   0.0022539
        k(  327) = (  -0.6749656  -0.3535534  -0.0321412), wk =   0.0022539
        k(  328) = (   0.0000000   0.3214122  -0.7071068), wk =   0.0011270

                       cryst. coord.
        k(    1) = (   0.0000000   0.0000000   0.0000000), wk =   0.0000939
        k(    2) = (   0.0000000  -0.0000000   0.0454545), wk =   0.0007513
        k(    3) = (   0.0000000  -0.0000000   0.0909091), wk =   0.0007513
        k(    4) = (  -0.0000000   0.0000000   0.1363636), wk =   0.0007513
        k(    5) = (   0.0000000  -0.0000000   0.1818182), wk =   0.0007513
        k(    6) = (  -0.0000000   0.0000000   0.2272727), wk =   0.0007513
        k(    7) = (  -0.0000000   0.0000000   0.2727273), wk =   0.0007513
        k(    8) = (   0.0000000  -0.0000000   0.3181818), wk =   0.0007513
        k(    9) = (   0.0000000  -0.0000000   0.3636364), wk =   0.0007513
        k(   10) = (   0.0000000  -0.0000000   0.4090909), wk =   0.0007513
        k(   11) = (  -0.0000000   0.0000000   0.4545455), wk =   0.0007513
        k(   12) = (  -0.0000000   0.0000000  -0.5000000), wk =   0.0003757
        k(   13) = (   0.0000000   0.0454545   0.0454545), wk =   0.0005635
        k(   14) = (   0.0000000   0.0454545   0.0909091), wk =   0.0022539
        k(   15) = (  -0.0000000   0.0454545   0.1363636), wk =   0.0022539
        k(   16) = (  -0.0000000   0.0454545   0.1818182), wk =   0.0022539
        k(   17) = (   0.0000000   0.0454545   0.2272727), wk =   0.0022539
        k(   18) = (   0.0000000   0.0454545   0.2727273), wk =   0.0022539
        k(   19) = (  -0.0000000   0.0454545   0.3181818), wk =   0.0022539
        k(   20) = (   0.0000000   0.0454545   0.3636364), wk =   0.0022539
        k(   21) = (   0.0000000   0.0454545   0.4090909), wk =   0.0022539
        k(   22) = (   0.0000000   0.0454545   0.4545455), wk =   0.0022539
        k(   23) = (   0.0000000   0.0454545  -0.5000000), wk =   0.0022539
        k(   24) = (   0.0000000   0.0454545  -0.4545455), wk =   0.0022539
        k(   25) = (   0.0000000   0.0454545  -0.4090909), wk =   0.0022539
        k(   26) = (  -0.0000000   0.0454545  -0.3636364), wk =   0.0022539
        k(   27) = (   0.0000000   0.0454545  -0.3181818), wk =   0.0022539
        k(   28) = (   0.0000000   0.0454545  -0.2727273), wk =   0.0022539
        k(   29) = (  -0.0000000   0.0454545  -0.2272727), wk =   0.0022539
        k(   30) = (  -0.0000000   0.0454545  -0.1818182), wk =   0.0022539
        k(   31) = (  -0.0000000   0.0454545  -0.1363636), wk =   0.0022539
        k(   32) = (   0.0000000   0.0454545  -0.0909091), wk =   0.0022539
        k(   33) = (  -0.0000000   0.0454545  -0.0454545), wk =   0.0011270
        k(   34) = (   0.0000000   0.0909091   0.0909091), wk =   0.0005635
        k(   35) = (  -0.0000000   0.0909091   0.1363636), wk =   0.0022539
        k(   36) = (   0.0000000   0.0909091   0.1818182), wk =   0.0022539
        k(   37) = (  -0.0000000   0.0909091   0.2272727), wk =   0.0022539
        k(   38) = (  -0.0000000   0.0909091   0.2727273), wk =   0.0022539
        k(   39) = (  -0.0000000   0.0909091   0.3181818), wk =   0.0022539
        k(   40) = (  -0.0000000   0.0909091   0.3636364), wk =   0.0022539
        k(   41) = (   0.0000000   0.0909091   0.4090909), wk =   0.0022539
        k(   42) = (   0.0000000   0.0909091   0.4545455), wk =   0.0022539
        k(   43) = (   0.0000000   0.0909091  -0.5000000), wk =   0.0022539
        k(   44) = (  -0.0000000   0.0909091  -0.4545455), wk =   0.0022539
        k(   45) = (  -0.0000000   0.0909091  -0.4090909), wk =   0.0022539
        k(   46) = (   0.0000000   0.0909091  -0.3636364), wk =   0.0022539
        k(   47) = (  -0.0000000   0.0909091  -0.3181818), wk =   0.0022539
        k(   48) = (  -0.0000000   0.0909091  -0.2727273), wk =   0.0022539
        k(   49) = (  -0.0000000   0.0909091  -0.2272727), wk =   0.0022539
        k(   50) = (   0.0000000   0.0909091  -0.1818182), wk =   0.0022539
        k(   51) = (   0.0000000   0.0909091  -0.1363636), wk =   0.0022539
        k(   52) = (   0.0000000   0.0909091  -0.0909091), wk =   0.0011270
        k(   53) = (  -0.0000000   0.1363636   0.1363636), wk =   0.0005635
        k(   54) = (   0.0000000   0.1363636   0.1818182), wk =   0.0022539
        k(   55) = (  -0.0000000   0.1363636   0.2272727), wk =   0.0022539
        k(   56) = (  -0.0000000   0.1363636   0.2727273), wk =   0.0022539
        k(   57) = (   0.0000000   0.1363636   0.3181818), wk =   0.0022539
        k(   58) = (   0.0000000   0.1363636   0.3636364), wk =   0.0022539
        k(   59) = (   0.0000000   0.1363636   0.4090909), wk =   0.0022539
        k(   60) = (   0.0000000   0.1363636   0.4545455), wk =   0.0022539
        k(   61) = (  -0.0000000   0.1363636  -0.5000000), wk =   0.0022539
        k(   62) = (   0.0000000   0.1363636  -0.4545455), wk =   0.0022539
        k(   63) = (   0.0000000   0.1363636  -0.4090909), wk =   0.0022539
        k(   64) = (  -0.0000000   0.1363636  -0.3636364), wk =   0.0022539
        k(   65) = (   0.0000000   0.1363636  -0.3181818), wk =   0.0022539
        k(   66) = (   0.0000000   0.1363636  -0.2727273), wk =   0.0022539
        k(   67) = (  -0.0000000   0.1363636  -0.2272727), wk =   0.0022539
        k(   68) = (   0.0000000   0.1363636  -0.1818182), wk =   0.0022539
        k(   69) = (   0.0000000   0.1363636  -0.1363636), wk =   0.0011270
        k(   70) = (   0.0000000   0.1818182   0.1818182), wk =   0.0005635
        k(   71) = (  -0.0000000   0.1818182   0.2272727), wk =   0.0022539
        k(   72) = (  -0.0000000   0.1818182   0.2727273), wk =   0.0022539
        k(   73) = (  -0.0000000   0.1818182   0.3181818), wk =   0.0022539
        k(   74) = (   0.0000000   0.1818182   0.3636364), wk =   0.0022539
        k(   75) = (   0.0000000   0.1818182   0.4090909), wk =   0.0022539
        k(   76) = (  -0.0000000   0.1818182   0.4545455), wk =   0.0022539
        k(   77) = (   0.0000000   0.1818182  -0.5000000), wk =   0.0022539
        k(   78) = (  -0.0000000   0.1818182  -0.4545455), wk =   0.0022539
        k(   79) = (   0.0000000   0.1818182  -0.4090909), wk =   0.0022539
        k(   80) = (   0.0000000   0.1818182  -0.3636364), wk =   0.0022539
        k(   81) = (   0.0000000   0.1818182  -0.3181818), wk =   0.0022539
        k(   82) = (   0.0000000   0.1818182  -0.2727273), wk =   0.0022539
        k(   83) = (  -0.0000000   0.1818182  -0.2272727), wk =   0.0022539
        k(   84) = (   0.0000000   0.1818182  -0.1818182), wk =   0.0011270
        k(   85) = (   0.0000000   0.2272727   0.2272727), wk =   0.0005635
        k(   86) = (   0.0000000   0.2272727   0.2727273), wk =   0.0022539
        k(   87) = (   0.0000000   0.2272727   0.3181818), wk =   0.0022539
        k(   88) = (   0.0000000   0.2272727   0.3636364), wk =   0.0022539
        k(   89) = (  -0.0000000   0.2272727   0.4090909), wk =   0.0022539
        k(   90) = (  -0.0000000   0.2272727   0.4545455), wk =   0.0022539
        k(   91) = (  -0.0000000   0.2272727  -0.5000000), wk =   0.0022539
        k(   92) = (   0.0000000   0.2272727  -0.4545455), wk =   0.0022539
        k(   93) = (  -0.0000000   0.2272727  -0.4090909), wk =   0.0022539
        k(   94) = (   0.0000000   0.2272727  -0.3636364), wk =   0.0022539
        k(   95) = (  -0.0000000   0.2272727  -0.3181818), wk =   0.0022539
        k(   96) = (  -0.0000000   0.2272727  -0.2727273), wk =   0.0022539
        k(   97) = (   0.0000000   0.2272727  -0.2272727), wk =   0.0011270
        k(   98) = (  -0.0000000   0.2727273   0.2727273), wk =   0.0005635
        k(   99) = (   0.0000000   0.2727273   0.3181818), wk =   0.0022539
        k(  100) = (   0.0000000   0.2727273   0.3636364), wk =   0.0022539
        k(  101) = (  -0.0000000   0.2727273   0.4090909), wk =   0.0022539
        k(  102) = (  -0.0000000   0.2727273   0.4545455), wk =   0.0022539
        k(  103) = (   0.0000000   0.2727273  -0.5000000), wk =   0.0022539
        k(  104) = (  -0.0000000   0.2727273  -0.4545455), wk =   0.0022539
        k(  105) = (  -0.0000000   0.2727273  -0.4090909), wk =   0.0022539
        k(  106) = (  -0.0000000   0.2727273  -0.3636364), wk =   0.0022539
        k(  107) = (   0.0000000   0.2727273  -0.3181818), wk =   0.0022539
        k(  108) = (   0.0000000   0.2727273  -0.2727273), wk =   0.0011270
        k(  109) = (  -0.0000000   0.3181818   0.3181818), wk =   0.0005635
        k(  110) = (  -0.0000000   0.3181818   0.3636364), wk =   0.0022539
        k(  111) = (  -0.0000000   0.3181818   0.4090909), wk =   0.0022539
        k(  112) = (  -0.0000000   0.3181818   0.4545455), wk =   0.0022539
        k(  113) = (  -0.0000000   0.3181818  -0.5000000), wk =   0.0022539
        k(  114) = (  -0.0000000   0.3181818  -0.4545455), wk =   0.0022539
        k(  115) = (  -0.0000000   0.3181818  -0.4090909), wk =   0.0022539
        k(  116) = (   0.0000000   0.3181818  -0.3636364), wk =   0.0022539
        k(  117) = (  -0.0000000   0.3181818  -0.3181818), wk =   0.0011270
        k(  118) = (   0.0000000   0.3636364   0.3636364), wk =   0.0005635
        k(  119) = (   0.0000000   0.3636364   0.4090909), wk =   0.0022539
        k(  120) = (  -0.0000000   0.3636364   0.4545455), wk =   0.0022539
        k(  121) = (   0.0000000   0.3636364  -0.5000000), wk =   0.0022539
        k(  122) = (  -0.0000000   0.3636364  -0.4545455), wk =   0.0022539
        k(  123) = (   0.0000000   0.3636364  -0.4090909), wk =   0.0022539
        k(  124) = (  -0.0000000   0.3636364  -0.3636364), wk =   0.0011270
        k(  125) = (  -0.0000000   0.4090909   0.4090909), wk =   0.0005635
        k(  126) = (   0.0000000   0.4090909   0.4545455), wk =   0.0022539
        k(  127) = (   0.0000000   0.4090909  -0.5000000), wk =   0.0022539
        k(  128) = (  -0.0000000   0.4090909  -0.4545455), wk =   0.0022539
        k(  129) = (  -0.0000000   0.4090909  -0.4090909), wk =   0.0011270
        k(  130) = (   0.0000000   0.4545455   0.4545455), wk =   0.0005635
        k(  131) = (  -0.0000000   0.4545455  -0.5000000), wk =   0.0022539
        k(  132) = (   0.0000000   0.4545455  -0.4545455), wk =   0.0011270
        k(  133) = (   0.0000000  -0.5000000  -0.5000000), wk =   0.0002817
        k(  134) = (   0.0454545   0.0909091   0.1363636), wk =   0.0022539
        k(  135) = (   0.0454545   0.0909091   0.1818182), wk =   0.0045079
        k(  136) = (   0.0454545   0.0909091   0.2272727), wk =   0.0045079
        k(  137) = (   0.0454545   0.0909091   0.2727273), wk =   0.0045079
        k(  138) = (   0.0454545   0.0909091   0.3181818), wk =   0.0045079
        k(  139) = (   0.0454545   0.0909091   0.3636364), wk =   0.0045079
        k(  140) = (   0.0454545   0.0909091   0.4090909), wk =   0.0045079
        k(  141) = (   0.0454545   0.0909091   0.4545455), wk =   0.0045079
        k(  142) = (   0.0454545   0.0909091  -0.5000000), wk =   0.0045079
        k(  143) = (   0.0454545   0.0909091  -0.4545455), wk =   0.0022539
        k(  144) = (   0.0454545   0.1363636   0.1818182), wk =   0.0022539
        k(  145) = (   0.0454545   0.1363636   0.2272727), wk =   0.0045079
        k(  146) = (   0.0454545   0.1363636   0.2727273), wk =   0.0045079
        k(  147) = (   0.0454545   0.1363636   0.3181818), wk =   0.0045079
        k(  148) = (   0.0454545   0.1363636   0.3636364), wk =   0.0045079
        k(  149) = (   0.0454545   0.1363636   0.4090909), wk =   0.0045079
        k(  150) = (   0.0454545   0.1363636   0.4545455), wk =   0.0045079
        k(  151) = (   0.0454545   0.1363636  -0.5000000), wk =   0.0045079
        k(  152) = (   0.0454545   0.1363636  -0.4545455), wk =   0.0045079
        k(  153) = (   0.0454545   0.1363636  -0.4090909), wk =   0.0045079
        k(  154) = (   0.0454545   0.1363636  -0.3636364), wk =   0.0045079
        k(  155) = (   0.0454545   0.1363636  -0.3181818), wk =   0.0045079
        k(  156) = (   0.0454545   0.1363636  -0.2727273), wk =   0.0045079
        k(  157) = (   0.0454545   0.1363636  -0.2272727), wk =   0.0045079
        k(  158) = (   0.0454545   0.1363636  -0.1818182), wk =   0.0045079
        k(  159) = (   0.0454545   0.1363636  -0.1363636), wk =   0.0045079
        k(  160) = (   0.0454545   0.1363636  -0.0909091), wk =   0.0022539
        k(  161) = (   0.0454545   0.1818182   0.2272727), wk =   0.0022539
        k(  162) = (   0.0454545   0.1818182   0.2727273), wk =   0.0045079
        k(  163) = (   0.0454545   0.1818182   0.3181818), wk =   0.0045079
        k(  164) = (   0.0454545   0.1818182   0.3636364), wk =   0.0045079
        k(  165) = (   0.0454545   0.1818182   0.4090909), wk =   0.0045079
        k(  166) = (   0.0454545   0.1818182   0.4545455), wk =   0.0045079
        k(  167) = (   0.0454545   0.1818182  -0.5000000), wk =   0.0045079
        k(  168) = (   0.0454545   0.1818182  -0.4545455), wk =   0.0045079
        k(  169) = (   0.0454545   0.1818182  -0.4090909), wk =   0.0045079
        k(  170) = (   0.0454545   0.1818182  -0.3636364), wk =   0.0045079
        k(  171) = (   0.0454545   0.1818182  -0.3181818), wk =   0.0045079
        k(  172) = (   0.0454545   0.1818182  -0.2727273), wk =   0.0045079
        k(  173) = (   0.0454545   0.1818182  -0.2272727), wk =   0.0045079
        k(  174) = (   0.0454545   0.1818182  -0.1818182), wk =   0.0045079
        k(  175) = (   0.0454545   0.1818182  -0.1363636), wk =   0.0022539
        k(  176) = (   0.0454545   0.2272727   0.2727273), wk =   0.0022539
        k(  177) = (   0.0454545   0.2272727   0.3181818), wk =   0.0045079
        k(  178) = (   0.0454545   0.2272727   0.3636364), wk =   0.0045079
        k(  179) = (   0.0454545   0.2272727   0.4090909), wk =   0.0045079
        k(  180) = (   0.0454545   0.2272727   0.4545455), wk =   0.0045079
        k(  181) = (   0.0454545   0.2272727  -0.5000000), wk =   0.0045079
        k(  182) = (   0.0454545   0.2272727  -0.4545455), wk =   0.0045079
        k(  183) = (   0.0454545   0.2272727  -0.4090909), wk =   0.0045079
        k(  184) = (   0.0454545   0.2272727  -0.3636364), wk =   0.0045079
        k(  185) = (   0.0454545   0.2272727  -0.3181818), wk =   0.0045079
        k(  186) = (   0.0454545   0.2272727  -0.2727273), wk =   0.0045079
        k(  187) = (   0.0454545   0.2272727  -0.2272727), wk =   0.0045079
        k(  188) = (   0.0454545   0.2272727  -0.1818182), wk =   0.0022539
        k(  189) = (   0.0454545   0.2727273   0.3181818), wk =   0.0022539
        k(  190) = (   0.0454545   0.2727273   0.3636364), wk =   0.0045079
        k(  191) = (   0.0454545   0.2727273   0.4090909), wk =   0.0045079
        k(  192) = (   0.0454545   0.2727273   0.4545455), wk =   0.0045079
        k(  193) = (   0.0454545   0.2727273  -0.5000000), wk =   0.0045079
        k(  194) = (   0.0454545   0.2727273  -0.4545455), wk =   0.0045079
        k(  195) = (   0.0454545   0.2727273  -0.4090909), wk =   0.0045079
        k(  196) = (   0.0454545   0.2727273  -0.3636364), wk =   0.0045079
        k(  197) = (   0.0454545   0.2727273  -0.3181818), wk =   0.0045079
        k(  198) = (   0.0454545   0.2727273  -0.2727273), wk =   0.0045079
        k(  199) = (   0.0454545   0.2727273  -0.2272727), wk =   0.0022539
        k(  200) = (   0.0454545   0.3181818   0.3636364), wk =   0.0022539
        k(  201) = (   0.0454545   0.3181818   0.4090909), wk =   0.0045079
        k(  202) = (   0.0454545   0.3181818   0.4545455), wk =   0.0045079
        k(  203) = (   0.0454545   0.3181818  -0.5000000), wk =   0.0045079
        k(  204) = (   0.0454545   0.3181818  -0.4545455), wk =   0.0045079
        k(  205) = (   0.0454545   0.3181818  -0.4090909), wk =   0.0045079
        k(  206) = (   0.0454545   0.3181818  -0.3636364), wk =   0.0045079
        k(  207) = (   0.0454545   0.3181818  -0.3181818), wk =   0.0045079
        k(  208) = (   0.0454545   0.3181818  -0.2727273), wk =   0.0022539
        k(  209) = (   0.0454545   0.3636364   0.4090909), wk =   0.0022539
        k(  210) = (   0.0454545   0.3636364   0.4545455), wk =   0.0045079
        k(  211) = (   0.0454545   0.3636364  -0.5000000), wk =   0.0045079
        k(  212) = (   0.0454545   0.3636364  -0.4545455), wk =   0.0045079
        k(  213) = (   0.0454545   0.3636364  -0.4090909), wk =   0.0045079
        k(  214) = (   0.0454545   0.3636364  -0.3636364), wk =   0.0045079
        k(  215) = (   0.0454545   0.3636364  -0.3181818), wk =   0.0022539
        k(  216) = (   0.0454545   0.4090909   0.4545455), wk =   0.0022539
        k(  217) = (   0.0454545   0.4090909  -0.5000000), wk =   0.0045079
        k(  218) = (   0.0454545   0.4090909  -0.4545455), wk =   0.0045079
        k(  219) = (   0.0454545   0.4090909  -0.4090909), wk =   0.0045079
        k(  220) = (   0.0454545   0.4090909  -0.3636364), wk =   0.0022539
        k(  221) = (   0.0454545   0.4545455  -0.5000000), wk =   0.0022539
        k(  222) = (   0.0454545   0.4545455  -0.4545455), wk =   0.0045079
        k(  223) = (   0.0454545   0.4545455  -0.4090909), wk =   0.0022539
        k(  224) = (   0.0454545  -0.5000000  -0.4545455), wk =   0.0011270
        k(  225) = (   0.0909091   0.1818182   0.2727273), wk =   0.0022539
        k(  226) = (   0.0909091   0.1818182   0.3181818), wk =   0.0045079
        k(  227) = (   0.0909091   0.1818182   0.3636364), wk =   0.0045079
        k(  228) = (   0.0909091   0.1818182   0.4090909), wk =   0.0045079
        k(  229) = (   0.0909091   0.1818182   0.4545455), wk =   0.0045079
        k(  230) = (   0.0909091   0.1818182  -0.5000000), wk =   0.0045079
        k(  231) = (   0.0909091   0.1818182  -0.4545455), wk =   0.0045079
        k(  232) = (   0.0909091   0.1818182  -0.4090909), wk =   0.0022539
        k(  233) = (   0.0909091   0.2272727   0.3181818), wk =   0.0022539
        k(  234) = (   0.0909091   0.2272727   0.3636364), wk =   0.0045079
        k(  235) = (   0.0909091   0.2272727   0.4090909), wk =   0.0045079
        k(  236) = (   0.0909091   0.2272727   0.4545455), wk =   0.0045079
        k(  237) = (   0.0909091   0.2272727  -0.5000000), wk =   0.0045079
        k(  238) = (   0.0909091   0.2272727  -0.4545455), wk =   0.0045079
        k(  239) = (   0.0909091   0.2272727  -0.4090909), wk =   0.0045079
        k(  240) = (   0.0909091   0.2272727  -0.3636364), wk =   0.0045079
        k(  241) = (   0.0909091   0.2272727  -0.3181818), wk =   0.0045079
        k(  242) = (   0.0909091   0.2272727  -0.2727273), wk =   0.0045079
        k(  243) = (   0.0909091   0.2272727  -0.2272727), wk =   0.0045079
        k(  244) = (   0.0909091   0.2272727  -0.1818182), wk =   0.0045079
        k(  245) = (   0.0909091   0.2272727  -0.1363636), wk =   0.0022539
        k(  246) = (   0.0909091   0.2727273   0.3636364), wk =   0.0022539
        k(  247) = (   0.0909091   0.2727273   0.4090909), wk =   0.0045079
        k(  248) = (   0.0909091   0.2727273   0.4545455), wk =   0.0045079
        k(  249) = (   0.0909091   0.2727273  -0.5000000), wk =   0.0045079
        k(  250) = (   0.0909091   0.2727273  -0.4545455), wk =   0.0045079
        k(  251) = (   0.0909091   0.2727273  -0.4090909), wk =   0.0045079
        k(  252) = (   0.0909091   0.2727273  -0.3636364), wk =   0.0045079
        k(  253) = (   0.0909091   0.2727273  -0.3181818), wk =   0.0045079
        k(  254) = (   0.0909091   0.2727273  -0.2727273), wk =   0.0045079
        k(  255) = (   0.0909091   0.2727273  -0.2272727), wk =   0.0045079
        k(  256) = (   0.0909091   0.2727273  -0.1818182), wk =   0.0022539
        k(  257) = (   0.0909091   0.3181818   0.4090909), wk =   0.0022539
        k(  258) = (   0.0909091   0.3181818   0.4545455), wk =   0.0045079
        k(  259) = (   0.0909091   0.3181818  -0.5000000), wk =   0.0045079
        k(  260) = (   0.0909091   0.3181818  -0.4545455), wk =   0.0045079
        k(  261) = (   0.0909091   0.3181818  -0.4090909), wk =   0.0045079
        k(  262) = (   0.0909091   0.3181818  -0.3636364), wk =   0.0045079
        k(  263) = (   0.0909091   0.3181818  -0.3181818), wk =   0.0045079
        k(  264) = (   0.0909091   0.3181818  -0.2727273), wk =   0.0045079
        k(  265) = (   0.0909091   0.3181818  -0.2272727), wk =   0.0022539
        k(  266) = (   0.0909091   0.3636364   0.4545455), wk =   0.0022539
        k(  267) = (   0.0909091   0.3636364  -0.5000000), wk =   0.0045079
        k(  268) = (   0.0909091   0.3636364  -0.4545455), wk =   0.0045079
        k(  269) = (   0.0909091   0.3636364  -0.4090909), wk =   0.0045079
        k(  270) = (   0.0909091   0.3636364  -0.3636364), wk =   0.0045079
        k(  271) = (   0.0909091   0.3636364  -0.3181818), wk =   0.0045079
        k(  272) = (   0.0909091   0.3636364  -0.2727273), wk =   0.0022539
        k(  273) = (   0.0909091   0.4090909  -0.5000000), wk =   0.0022539
        k(  274) = (   0.0909091   0.4090909  -0.4545455), wk =   0.0045079
        k(  275) = (   0.0909091   0.4090909  -0.4090909), wk =   0.0045079
        k(  276) = (   0.0909091   0.4090909  -0.3636364), wk =   0.0045079
        k(  277) = (   0.0909091   0.4090909  -0.3181818), wk =   0.0022539
        k(  278) = (   0.0909091   0.4545455  -0.4545455), wk =   0.0022539
        k(  279) = (   0.0909091   0.4545455  -0.4090909), wk =   0.0045079
        k(  280) = (   0.0909091   0.4545455  -0.3636364), wk =   0.0022539
        k(  281) = (   0.0909091  -0.5000000  -0.4090909), wk =   0.0011270
        k(  282) = (   0.1363636   0.2727273   0.4090909), wk =   0.0022539
        k(  283) = (   0.1363636   0.2727273   0.4545455), wk =   0.0045079
        k(  284) = (   0.1363636   0.2727273  -0.5000000), wk =   0.0045079
        k(  285) = (   0.1363636   0.2727273  -0.4545455), wk =   0.0045079
        k(  286) = (   0.1363636   0.2727273  -0.4090909), wk =   0.0045079
        k(  287) = (   0.1363636   0.2727273  -0.3636364), wk =   0.0022539
        k(  288) = (   0.1363636   0.3181818   0.4545455), wk =   0.0022539
        k(  289) = (   0.1363636   0.3181818  -0.5000000), wk =   0.0045079
        k(  290) = (   0.1363636   0.3181818  -0.4545455), wk =   0.0045079
        k(  291) = (   0.1363636   0.3181818  -0.4090909), wk =   0.0045079
        k(  292) = (   0.1363636   0.3181818  -0.3636364), wk =   0.0045079
        k(  293) = (   0.1363636   0.3181818  -0.3181818), wk =   0.0045079
        k(  294) = (   0.1363636   0.3181818  -0.2727273), wk =   0.0045079
        k(  295) = (   0.1363636   0.3181818  -0.2272727), wk =   0.0045079
        k(  296) = (   0.1363636   0.3181818  -0.1818182), wk =   0.0022539
        k(  297) = (   0.1363636   0.3636364  -0.5000000), wk =   0.0022539
        k(  298) = (   0.1363636   0.3636364  -0.4545455), wk =   0.0045079
        k(  299) = (   0.1363636   0.3636364  -0.4090909), wk =   0.0045079
        k(  300) = (   0.1363636   0.3636364  -0.3636364), wk =   0.0045079
        k(  301) = (   0.1363636   0.3636364  -0.3181818), wk =   0.0045079
        k(  302) = (   0.1363636   0.3636364  -0.2727273), wk =   0.0045079
        k(  303) = (   0.1363636   0.3636364  -0.2272727), wk =   0.0022539
        k(  304) = (   0.1363636   0.4090909  -0.4545455), wk =   0.0022539
        k(  305) = (   0.1363636   0.4090909  -0.4090909), wk =   0.0045079
        k(  306) = (   0.1363636   0.4090909  -0.3636364), wk =   0.0045079
        k(  307) = (   0.1363636   0.4090909  -0.3181818), wk =   0.0045079
        k(  308) = (   0.1363636   0.4090909  -0.2727273), wk =   0.0022539
        k(  309) = (   0.1363636   0.4545455  -0.4090909), wk =   0.0022539
        k(  310) = (   0.1363636   0.4545455  -0.3636364), wk =   0.0045079
        k(  311) = (   0.1363636   0.4545455  -0.3181818), wk =   0.0022539
        k(  312) = (   0.1363636  -0.5000000  -0.3636364), wk =   0.0011270
        k(  313) = (   0.1818182   0.3636364  -0.4545455), wk =   0.0022539
        k(  314) = (   0.1818182   0.3636364  -0.4090909), wk =   0.0045079
        k(  315) = (   0.1818182   0.3636364  -0.3636364), wk =   0.0045079
        k(  316) = (   0.1818182   0.3636364  -0.3181818), wk =   0.0022539
        k(  317) = (   0.1818182   0.4090909  -0.4090909), wk =   0.0022539
        k(  318) = (   0.1818182   0.4090909  -0.3636364), wk =   0.0045079
        k(  319) = (   0.1818182   0.4090909  -0.3181818), wk =   0.0045079
        k(  320) = (   0.1818182   0.4090909  -0.2727273), wk =   0.0045079
        k(  321) = (   0.1818182   0.4090909  -0.2272727), wk =   0.0022539
        k(  322) = (   0.1818182   0.4545455  -0.3636364), wk =   0.0022539
        k(  323) = (   0.1818182   0.4545455  -0.3181818), wk =   0.0045079
        k(  324) = (   0.1818182   0.4545455  -0.2727273), wk =   0.0022539
        k(  325) = (   0.1818182  -0.5000000  -0.3181818), wk =   0.0011270
        k(  326) = (   0.2272727   0.4545455  -0.3181818), wk =   0.0022539
        k(  327) = (   0.2272727   0.4545455  -0.2727273), wk =   0.0022539
        k(  328) = (   0.2272727  -0.5000000  -0.2727273), wk =   0.0011270

     Dense  grid:     3287 G-vectors     FFT dimensions: (  24,  24,  24)

     Dynamical RAM for                 wfc:       0.01 MB

     Dynamical RAM for     wfc (w. buffer):       8.12 MB

     Dynamical RAM for           str. fact:       0.01 MB

     Dynamical RAM for           local pot:       0.00 MB

     Dynamical RAM for          nlocal pot:       0.02 MB

     Dynamical RAM for                qrad:       1.66 MB

     Dynamical RAM for          rho,v,vnew:       0.19 MB

     Dynamical RAM for               rhoin:       0.06 MB

     Dynamical RAM for            rho*nmix:       0.32 MB

     Dynamical RAM for           G-vectors:       0.04 MB

     Dynamical RAM for          h,s,v(r/c):       0.07 MB

     Dynamical RAM for          <psi|beta>:       0.00 MB

     Dynamical RAM for                 psi:       0.05 MB

     Dynamical RAM for                hpsi:       0.05 MB

     Dynamical RAM for                spsi:       0.05 MB

     Dynamical RAM for      wfcinit/wfcrot:       0.03 MB

     Dynamical RAM for           addusdens:       1.88 MB

     Dynamical RAM for          addusforce:       1.89 MB

     Dynamical RAM for         addusstress:       2.03 MB

     Estimated static dynamical RAM per process >      10.58 MB

     Estimated max dynamical RAM per process >      12.61 MB

     Estimated total dynamical RAM >      63.06 MB
     Generating pointlists ...
     new r_m :   0.4125 (alat units)  1.9926 (a.u.) for type    1

     Initial potential from superposition of free atoms

     starting charge   10.98818, renormalised to   11.00000
     Starting wfcs are    9 randomized atomic wfcs +    1 random wfcs

     total cpu time spent up to now is       20.6 secs

     Self-consistent Calculation

     iteration #  1     ecut=    45.00 Ry     beta= 0.70
     Davidson diagonalization with overlap
     ethr =  1.00E-02,  avg # of iterations =  3.9

     total cpu time spent up to now is      100.4 secs

     total energy              =    -121.39893993 Ry
     Harris-Foulkes estimate   =    -121.50161612 Ry
     estimated scf accuracy    <       0.16899443 Ry

     total magnetization       =     0.15 Bohr mag/cell
     absolute magnetization    =     0.16 Bohr mag/cell

     iteration #  2     ecut=    45.00 Ry     beta= 0.70
     Davidson diagonalization with overlap
     ethr =  1.54E-03,  avg # of iterations =  2.0

     total cpu time spent up to now is      164.3 secs

     total energy              =    -121.42071681 Ry
     Harris-Foulkes estimate   =    -121.59417215 Ry
     estimated scf accuracy    <       0.42816886 Ry

     total magnetization       =     0.02 Bohr mag/cell
     absolute magnetization    =     0.03 Bohr mag/cell

     iteration #  3     ecut=    45.00 Ry     beta= 0.70
     Davidson diagonalization with overlap
     ethr =  1.54E-03,  avg # of iterations =  2.0

     total cpu time spent up to now is      225.9 secs

     total energy              =    -121.48893893 Ry
     Harris-Foulkes estimate   =    -121.48787942 Ry
     estimated scf accuracy    <       0.00360073 Ry

     total magnetization       =     0.03 Bohr mag/cell
     absolute magnetization    =     0.04 Bohr mag/cell

     iteration #  4     ecut=    45.00 Ry     beta= 0.70
     Davidson diagonalization with overlap
     ethr =  3.27E-05,  avg # of iterations =  2.2

     total cpu time spent up to now is      289.5 secs

     total energy              =    -121.48924015 Ry
     Harris-Foulkes estimate   =    -121.48962849 Ry
     estimated scf accuracy    <       0.00096359 Ry

     total magnetization       =    -0.00 Bohr mag/cell
     absolute magnetization    =     0.00 Bohr mag/cell

     iteration #  5     ecut=    45.00 Ry     beta= 0.70
     Davidson diagonalization with overlap
     ethr =  8.76E-06,  avg # of iterations =  1.4

     total cpu time spent up to now is      346.2 secs

     total energy              =    -121.48943935 Ry
     Harris-Foulkes estimate   =    -121.48944419 Ry
     estimated scf accuracy    <       0.00001348 Ry

     total magnetization       =    -0.00 Bohr mag/cell
     absolute magnetization    =     0.00 Bohr mag/cell

     iteration #  6     ecut=    45.00 Ry     beta= 0.70
     Davidson diagonalization with overlap
     ethr =  1.23E-07,  avg # of iterations =  2.6

     total cpu time spent up to now is      421.8 secs

     total energy              =    -121.48944506 Ry
     Harris-Foulkes estimate   =    -121.48944542 Ry
     estimated scf accuracy    <       0.00000150 Ry

     total magnetization       =     0.00 Bohr mag/cell
     absolute magnetization    =     0.00 Bohr mag/cell

     iteration #  7     ecut=    45.00 Ry     beta= 0.70
     Davidson diagonalization with overlap
     ethr =  1.37E-08,  avg # of iterations =  1.3

     total cpu time spent up to now is      476.4 secs

     total energy              =    -121.48944525 Ry
     Harris-Foulkes estimate   =    -121.48944526 Ry
     estimated scf accuracy    <       0.00000003 Ry

     total magnetization       =    -0.00 Bohr mag/cell
     absolute magnetization    =     0.00 Bohr mag/cell

     iteration #  8     ecut=    45.00 Ry     beta= 0.70
     Davidson diagonalization with overlap
     ethr =  2.97E-10,  avg # of iterations =  2.3
 
     Magnetic moment per site:
     atom:    1    charge:    9.8323    magn:    0.0000    constr:    0.0000

     total cpu time spent up to now is      542.4 secs

     End of self-consistent calculation

 ------ SPIN UP ------------


          k = 0.0000 0.0000 0.0000 (   411 PWs)   bands (ev):

     3.2374   9.6197   9.6197   9.6197  10.4388  10.4388  35.2857  37.8641
    37.8641  37.8641

     occupation numbers 
     1.0000   1.0000   1.0000   1.0000   1.0000   1.0000   0.0000   0.0000
     0.0000   0.0000

          k = 0.0321 0.0321 0.0321 (   411 PWs)   bands (ev):

     3.3128   9.6034   9.6343   9.6343  10.4329  10.4329  34.8832  36.7614
    37.6051  37.6051

     occupation numbers 
     1.0000   1.0000   1.0000   1.0000   1.0000   1.0000   0.0000   0.0000
     0.0000   0.0000

          k = 0.0643 0.0643 0.0643 (   405 PWs)   bands (ev):

     3.5374   9.5575   9.6741   9.6741  10.4189  10.4189  33.1570  36.0662
    37.0758  37.0758

     occupation numbers 
     1.0000   1.0000   1.0000   1.0000   1.0000   1.0000   0.0000   0.0000
     0.0000   0.0000

[...]
     0.0000   0.0000

          k =-0.6401-0.4481-0.2561 (   411 PWs)   bands (ev):

     7.8796   8.7835   9.1395  10.0718  10.5463  12.2784  20.9971  25.0064
    28.1530  36.4756

     occupation numbers 
     1.0000   1.0000   1.0000   1.0000   1.0000   0.9645   0.0000   0.0000
     0.0000   0.0000

          k =-0.6081-0.4161-0.2240 (   411 PWs)   bands (ev):

     8.1251   8.8172   9.1463  10.0132  10.6651  13.1390  19.1988  25.1571
    27.2914  36.3278

     occupation numbers 
     1.0000   1.0000   1.0000   1.0000   1.0000   0.0000   0.0000   0.0000
     0.0000   0.0000

          k =-0.5761-0.3841-0.1920 (   411 PWs)   bands (ev):

     8.2381   8.7874   9.2452   9.9651  10.7348  14.1638  17.6141  25.4576
    26.5636  36.2202

     occupation numbers 
     1.0000   1.0000   1.0000   1.0000   1.0000   0.0000   0.0000   0.0000
     0.0000   0.0000

          k =-0.5441-0.3521-0.1600 (   414 PWs)   bands (ev):

     8.2715   8.7665   9.2966   9.9448  10.7574  14.8734  16.7195  25.7883
    26.0902  36.1816

     occupation numbers 
     1.0000   1.0000   1.0000   1.0000   1.0000   0.0000   0.0000   0.0000
     0.0000   0.0000

          k =-0.0000 0.1920 0.4481 (   413 PWs)   bands (ev):

     7.5598   8.6165   9.3124  10.3420  10.4181  11.6927  23.7927  24.5615
    27.5365  35.5785

     occupation numbers 
     1.0000   1.0000   1.0000   1.0000   1.0000   1.0000   0.0000   0.0000
     0.0000   0.0000

          k =-0.6721-0.4801-0.2240 (   410 PWs)   bands (ev):

     7.9267   8.6257   9.2182  10.2841  10.5686  12.3887  22.0975  24.2440
    26.5140  36.0446

     occupation numbers 
     1.0000   1.0000   1.0000   1.0000   1.0000   0.4175   0.0000   0.0000
     0.0000   0.0000

          k =-0.6401-0.4481-0.1920 (   410 PWs)   bands (ev):

     8.1768   8.6614   9.1605  10.2065  10.6898  13.2990  20.2705  24.3265
    25.6154  36.1702

     occupation numbers 
     1.0000   1.0000   1.0000   1.0000   1.0000   0.0000   0.0000   0.0000
     0.0000   0.0000

          k =-0.6081-0.4161-0.1600 (   411 PWs)   bands (ev):

     8.3336   8.6648   9.1664  10.1334  10.7584  14.3994  18.5757  24.5515
    24.8777  36.2826

     occupation numbers 
     1.0000   1.0000   1.0000   1.0000   1.0000   0.0000   0.0000   0.0000
     0.0000   0.0000

          k =-0.5761-0.3841-0.1280 (   411 PWs)   bands (ev):

     8.4441   8.6263   9.1874  10.0827  10.7753  15.5163  17.1981  24.1664
    25.0397  36.4650

     occupation numbers 
     1.0000   1.0000   1.0000   1.0000   1.0000   0.0000   0.0000   0.0000
     0.0000   0.0000

          k =-0.5441-0.3521-0.0960 (   411 PWs)   bands (ev):

     8.4722   8.6410   9.1461  10.0747  10.7443  15.2161  17.5687  23.6726
    25.5977  36.7428

     occupation numbers 
     1.0000   1.0000   1.0000   1.0000   1.0000   0.0000   0.0000   0.0000
     0.0000   0.0000

          k =-0.5121-0.3201-0.0640 (   412 PWs)   bands (ev):

     8.3886   8.7382   9.0386  10.1086  10.6680  14.0822  19.1016  23.3269
    26.2977  37.1214

     occupation numbers 
     1.0000   1.0000   1.0000   1.0000   1.0000   0.0000   0.0000   0.0000
     0.0000   0.0000

          k =-0.4801-0.2881-0.0320 (   411 PWs)   bands (ev):

     8.2154   8.7774   8.9947  10.1621  10.5524  13.0699  20.8216  23.1651
    27.1258  37.5895

     occupation numbers 
     1.0000   1.0000   1.0000   1.0000   1.0000   0.0000   0.0000   0.0000
     0.0000   0.0000

          k =-0.4481-0.2561 0.0000 (   414 PWs)   bands (ev):

     7.8999   8.7387   9.0989  10.1996  10.4246  12.2565  22.3961  23.4397
    28.0741  37.9382

     occupation numbers 
     1.0000   1.0000   1.0000   1.0000   1.0000   1.0257   0.0000   0.0000
     0.0000   0.0000

          k =-0.7042-0.5121-0.1920 (   412 PWs)   bands (ev):

     7.9010   8.4951   9.4400  10.4585  10.6231  12.5346  23.0271  23.8550
    25.0083  35.0573

     occupation numbers 
     1.0000   1.0000   1.0000   1.0000   1.0000   0.0249   0.0000   0.0000
     0.0000   0.0000

          k =-0.6721-0.4801-0.1600 (   412 PWs)   bands (ev):

     8.1022   8.5253   9.3616  10.3852  10.7312  13.4777  21.4455  23.6203
    24.0898  35.6339

     occupation numbers 
     1.0000   1.0000   1.0000   1.0000   1.0000   0.0000   0.0000   0.0000
     0.0000   0.0000

          k =-0.6401-0.4481-0.1280 (   413 PWs)   bands (ev):

     8.2517   8.5729   9.2893  10.2917  10.8027  14.6063  19.7226  23.2370
    23.8644  35.9108

     occupation numbers 
     1.0000   1.0000   1.0000   1.0000   1.0000   0.0000   0.0000   0.0000
     0.0000   0.0000

          k =-0.6081-0.4161-0.0960 (   409 PWs)   bands (ev):

     8.3784   8.6058   9.2202  10.2107  10.8217  15.8689  18.1381  22.5824
    24.2278  36.1832

     occupation numbers 
     1.0000   1.0000   1.0000   1.0000   1.0000   0.0000   0.0000   0.0000
     0.0000   0.0000

          k =-0.5761-0.3841-0.0640 (   408 PWs)   bands (ev):

     8.4919   8.6224   9.1286  10.1644  10.7917  16.3825  17.5811  22.0724
    24.7537  36.5314

     occupation numbers 
     1.0000   1.0000   1.0000   1.0000   1.0000   0.0000   0.0000   0.0000
     0.0000   0.0000

          k =-0.5441-0.3521-0.0320 (   408 PWs)   bands (ev):

     8.5216   8.7011   8.9936  10.1601  10.7210  15.1788  18.9813  21.7644
    25.4195  36.9718

     occupation numbers 
     1.0000   1.0000   1.0000   1.0000   1.0000   0.0000   0.0000   0.0000
     0.0000   0.0000

          k =-0.5121-0.3201 0.0000 (   409 PWs)   bands (ev):

     8.4364   8.8420   8.8496  10.1763  10.6271  14.0388  20.3091  21.9168
    26.2129  37.4635

     occupation numbers 
     1.0000   1.0000   1.0000   1.0000   1.0000   0.0000   0.0000   0.0000
     0.0000   0.0000

          k =-0.7042-0.5121-0.1280 (   414 PWs)   bands (ev):

     7.9881   8.4006   9.6640  10.5104  10.7975  13.7013  22.4500  22.6431
    23.3866  34.6867

     occupation numbers 
     1.0000   1.0000   1.0000   1.0000   1.0000   0.0000   0.0000   0.0000
     0.0000   0.0000

          k =-0.6721-0.4801-0.0960 (   412 PWs)   bands (ev):

     8.1112   8.4549   9.5544  10.4199  10.8618  14.8062  20.9840  21.8633
    23.2505  35.3576

     occupation numbers 
     1.0000   1.0000   1.0000   1.0000   1.0000   0.0000   0.0000   0.0000
     0.0000   0.0000

          k =-0.6401-0.4481-0.0640 (   411 PWs)   bands (ev):

     8.2288   8.5307   9.4223  10.3212  10.8831  16.0387  19.3657  21.2292
    23.5506  35.7450

     occupation numbers 
     1.0000   1.0000   1.0000   1.0000   1.0000   0.0000   0.0000   0.0000
     0.0000   0.0000

          k =-0.6081-0.4161-0.0320 (   410 PWs)   bands (ev):

     8.3471   8.6104   9.2672  10.2425  10.8575  17.2885  17.8827  20.8184
    24.0326  36.1177

     occupation numbers 
     1.0000   1.0000   1.0000   1.0000   1.0000   0.0000   0.0000   0.0000
     0.0000   0.0000

          k =-0.5761-0.3841-0.0000 (   407 PWs)   bands (ev):

     8.4597   8.6781   9.0995  10.1933  10.7960  16.4227  18.4712  20.8565
    24.6611  36.5399

     occupation numbers 
     1.0000   1.0000   1.0000   1.0000   1.0000   0.0000   0.0000   0.0000
     0.0000   0.0000

          k =-0.7042-0.5121-0.0640 (   413 PWs)   bands (ev):

     7.9824   8.3406   9.8533  10.5124  10.9157  14.9879  20.7155  22.0890
    23.0544  34.4656

     occupation numbers 
     1.0000   1.0000   1.0000   1.0000   1.0000   0.0000   0.0000   0.0000
     0.0000   0.0000

          k =-0.6721-0.4801-0.0320 (   412 PWs)   bands (ev):

     8.0895   8.4191   9.6814  10.4167  10.9364  16.0269  20.1986  20.7787
    23.0383  35.2193

     occupation numbers 
     1.0000   1.0000   1.0000   1.0000   1.0000   0.0000   0.0000   0.0000
     0.0000   0.0000

          k =-0.6401-0.4481-0.0000 (   415 PWs)   bands (ev):

     8.2116   8.5183   9.4768  10.3242  10.9133  16.9133  19.2016  20.2052
    23.4487  35.6885

     occupation numbers 
     1.0000   1.0000   1.0000   1.0000   1.0000   0.0000   0.0000   0.0000
     0.0000   0.0000

          k =-0.0000 0.1920-0.7042 (   416 PWs)   bands (ev):

     7.9728   8.3201   9.9281  10.5034  10.9577  15.7096  19.7820  21.9659
    22.9465  34.3921

     occupation numbers 
     1.0000   1.0000   1.0000   1.0000   1.0000   0.0000   0.0000   0.0000
     0.0000   0.0000

          k =-0.7042-0.4481-0.1920 (   410 PWs)   bands (ev):

     8.1890   8.6515   9.1130  10.3046  10.6230  13.2374  21.6218  22.8070
    25.5288  37.4002

     occupation numbers 
     1.0000   1.0000   1.0000   1.0000   1.0000   0.0000   0.0000   0.0000
     0.0000   0.0000

          k =-0.6721-0.4161-0.1600 (   409 PWs)   bands (ev):

     8.3524   8.7019   9.0427  10.2441  10.7216  14.2753  20.1641  22.6162
    24.6675  37.8381

     occupation numbers 
     1.0000   1.0000   1.0000   1.0000   1.0000   0.0000   0.0000   0.0000
     0.0000   0.0000

          k =-0.6401-0.3841-0.1280 (   409 PWs)   bands (ev):

     8.4503   8.6946   9.0499  10.1816  10.7917  15.4759  18.5570  22.8713
    23.9361  37.8470

     occupation numbers 
     1.0000   1.0000   1.0000   1.0000   1.0000   0.0000   0.0000   0.0000
     0.0000   0.0000

          k =-0.6081-0.3521-0.0960 (   410 PWs)   bands (ev):

     8.4952   8.6642   9.0713  10.1555  10.8159  16.4901  17.3999  23.2343
    23.4221  37.8349

     occupation numbers 
     1.0000   1.0000   1.0000   1.0000   1.0000   0.0000   0.0000   0.0000
     0.0000   0.0000

          k =-0.7042-0.4481-0.1280 (   408 PWs)   bands (ev):

     8.2304   8.5814   9.2707  10.3478  10.7959  14.5132  21.0378  22.3386
    23.1915  37.0135

     occupation numbers 
     1.0000   1.0000   1.0000   1.0000   1.0000   0.0000   0.0000   0.0000
     0.0000   0.0000

          k =-0.6721-0.4161-0.0960 (   411 PWs)   bands (ev):

     8.3186   8.6622   9.1790  10.2700  10.8584  15.7068  19.6998  22.2015
    22.4794  37.7101

     occupation numbers 
     1.0000   1.0000   1.0000   1.0000   1.0000   0.0000   0.0000   0.0000
     0.0000   0.0000

          k =-0.6401-0.3841-0.0640 (   407 PWs)   bands (ev):

     8.3832   8.7399   9.0855  10.2100  10.8806  17.0037  18.2139  21.8178
    22.6218  38.0789

     occupation numbers 
     1.0000   1.0000   1.0000   1.0000   1.0000   0.0000   0.0000   0.0000
     0.0000   0.0000

          k =-0.6081-0.3521-0.0320 (   408 PWs)   bands (ev):

     8.4214   8.8148   8.9768  10.1947  10.8568  16.6903  18.5025  21.4367
    23.1587  38.4312

     occupation numbers 
     1.0000   1.0000   1.0000   1.0000   1.0000   0.0000   0.0000   0.0000
     0.0000   0.0000

          k =-0.5761-0.3201 0.0000 (   408 PWs)   bands (ev):

     8.4206   8.8152   8.9358  10.2193  10.7950  15.4135  19.7053  21.5122
    23.8471  38.7818

     occupation numbers 
     1.0000   1.0000   1.0000   1.0000   1.0000   0.0000   0.0000   0.0000
     0.0000   0.0000

          k =-0.7042-0.4481-0.0640 (   411 PWs)   bands (ev):

     8.1944   8.5362   9.4293  10.3459  10.9152  15.9168  20.6719  21.1294
    22.1000  36.7814

     occupation numbers 
     1.0000   1.0000   1.0000   1.0000   1.0000   0.0000   0.0000   0.0000
     0.0000   0.0000

          k =-0.6721-0.4161-0.0320 (   408 PWs)   bands (ev):

     8.2742   8.6427   9.2776  10.2669  10.9363  17.0787  19.4444  20.6643
    22.0827  37.6034

     occupation numbers 
     1.0000   1.0000   1.0000   1.0000   1.0000   0.0000   0.0000   0.0000
     0.0000   0.0000

          k =-0.6401-0.3841-0.0000 (   406 PWs)   bands (ev):

     8.3522   8.7554   9.1063  10.2152  10.9138  18.0277  18.0673  20.6415
    22.5253  38.1053

     occupation numbers 
     1.0000   1.0000   1.0000   1.0000   1.0000   0.0000   0.0000   0.0000
     0.0000   0.0000

          k =-0.0000 0.2561-0.7042 (   412 PWs)   bands (ev):

     8.1752   8.5206   9.4931  10.3374  10.9579  16.7604  20.0906  20.5470
    21.9997  36.7040

     occupation numbers 
     1.0000   1.0000   1.0000   1.0000   1.0000   0.0000   0.0000   0.0000
     0.0000   0.0000

          k =-0.7042-0.3841-0.0640 (   404 PWs)   bands (ev):

     8.3451   8.7914   9.0593  10.2236  10.9145  16.9314  19.3250  21.2329
    21.7875  39.2915

     occupation numbers 
     1.0000   1.0000   1.0000   1.0000   1.0000   0.0000   0.0000   0.0000
     0.0000   0.0000

          k =-0.6721-0.3521-0.0320 (   406 PWs)   bands (ev):

     8.3525   8.9047   8.9529  10.2024  10.9363  18.1319  18.3183  21.1231
    21.4329  39.7968

     occupation numbers 
     1.0000   1.0000   1.0000   1.0000   1.0000   0.0000   0.0000   0.0000
     0.0000   0.0000

          k =-0.0000 0.3201-0.7042 (   412 PWs)   bands (ev):

     8.3145   8.7829   9.1079  10.2197  10.9580  17.9280  19.1947  20.5044
    21.2485  39.2116

     occupation numbers 
     1.0000   1.0000   1.0000   1.0000   1.0000   0.0000   0.0000   0.0000
     0.0000   0.0000

     the Fermi energy is    12.3921 ev

!    total energy              =    -121.48951395 Ry
     Harris-Foulkes estimate   =    -121.48951395 Ry
     estimated scf accuracy    <          1.2E-11 Ry

     The total energy is the sum of the following terms:

     one-electron contribution =     -29.03709421 Ry
     hartree contribution      =      31.22026728 Ry
     xc contribution           =     -42.80307723 Ry
     ewald contribution        =     -80.86966926 Ry
     smearing contrib. (-TS)   =       0.00005946 Ry

     total magnetization       =     0.00 Bohr mag/cell
     absolute magnetization    =     0.00 Bohr mag/cell

     convergence has been achieved in   8 iterations

     Forces acting on atoms (cartesian axes, Ry/au):

     atom    1 type  1   force =     0.00000000    0.00000000    0.00000000
     The non-local contrib.  to forces
     atom    1 type  1   force =     0.00000000   -0.00000000    0.00000000
     The ionic contribution  to forces
     atom    1 type  1   force =     0.00000000    0.00000000    0.00000000
     The local contribution  to forces
     atom    1 type  1   force =    -0.00000000    0.00000000   -0.00000000
     The core correction contribution to forces
     atom    1 type  1   force =     0.00000000    0.00000000   -0.00000000
     The Hubbard contrib.    to forces
     atom    1 type  1   force =     0.00000000    0.00000000    0.00000000
     The SCF correction term to forces
     atom    1 type  1   force =    -0.00000000   -0.00000000    0.00000000

     Total force =     0.000000     Total SCF correction =     0.000000


     Computing stress (Cartesian axis) and pressure

          total   stress  (Ry/bohr**3)                   (kbar)     P=    0.20
   0.00000134   0.00000000  -0.00000000          0.20      0.00     -0.00
   0.00000000   0.00000134  -0.00000000          0.00      0.20     -0.00
   0.00000000  -0.00000000   0.00000134          0.00     -0.00      0.20

     kinetic stress (kbar)  13214.06      0.00      0.00
                                0.00  13214.06      0.00
                                0.00      0.00  13214.06

     local   stress (kbar)  23144.22     -0.00      0.00
                               -0.00  23144.22     -0.00
                                0.00     -0.00  23144.22

     nonloc. stress (kbar)   6850.98      0.00      0.00
                                0.00   6850.98     -0.00
                                0.00     -0.00   6850.98

     hartree stress (kbar)  18968.15      0.00     -0.00
                                0.00  18968.15      0.00
                               -0.00      0.00  18968.15

     exc-cor stress (kbar)  30038.91     -0.00     -0.00
                               -0.00  30038.91     -0.00
                               -0.00     -0.00  30038.91

     corecor stress (kbar) -43083.03     -0.00      0.00
                               -0.00 -43083.03      0.00
                                0.00      0.00 -43083.03

     ewald   stress (kbar) -49133.09     -0.00     -0.00
                               -0.00 -49133.09      0.00
                               -0.00      0.00 -49133.09

     hubbard stress (kbar)      0.00      0.00      0.00
                                0.00      0.00      0.00
                                0.00      0.00      0.00

     london  stress (kbar)      0.00      0.00      0.00
                                0.00      0.00      0.00
                                0.00      0.00      0.00

     DFT-D3  stress (kbar)      0.00      0.00      0.00
                                0.00      0.00      0.00
                                0.00      0.00      0.00

     XDM     stress (kbar)      0.00      0.00      0.00
                                0.00      0.00      0.00
                                0.00      0.00      0.00

     dft-nl  stress (kbar)      0.00      0.00      0.00
                                0.00      0.00      0.00
                                0.00      0.00      0.00

     TS-vdW  stress (kbar)      0.00      0.00      0.00
                                0.00      0.00      0.00
                                0.00      0.00      0.00


 
     init_run     :     34.74s CPU     34.03s WALL (       2 calls)
     electrons    :   4837.41s CPU   4479.80s WALL (       7 calls)
     update_pot   :      0.62s CPU      0.60s WALL (       4 calls)
     forces       :     38.89s CPU     35.57s WALL (       7 calls)
     stress       :     62.53s CPU     56.59s WALL (       7 calls)

     Called by init_run:
     wfcinit      :     33.80s CPU     32.82s WALL (       2 calls)
     wfcinit:atom :      0.20s CPU      0.21s WALL (    1312 calls)
     wfcinit:wfcr :     33.37s CPU     32.43s WALL (    1312 calls)
     potinit      :      0.16s CPU      0.16s WALL (       3 calls)
     hinit0       :      0.72s CPU      0.96s WALL (       2 calls)

     Called by electrons:
     c_bands      :   4022.89s CPU   3728.02s WALL (      91 calls)
     sum_band     :    808.08s CPU    745.74s WALL (      91 calls)
     v_of_rho     :      2.20s CPU      2.02s WALL (      98 calls)
     v_h          :      0.24s CPU      0.22s WALL (      98 calls)
     v_xc         :      2.23s CPU      2.04s WALL (     112 calls)
     newd         :      3.30s CPU      3.02s WALL (      98 calls)
     mix_rho      :      0.57s CPU      0.54s WALL (      91 calls)

     Called by c_bands:
     init_us_2    :     17.43s CPU     13.86s WALL (  129888 calls)
     cegterg      :   3890.48s CPU   3606.07s WALL (   59696 calls)

     Called by sum_band:
     sum_band:bec :      7.71s CPU      7.09s WALL (   59696 calls)
     addusdens    :      4.19s CPU      3.61s WALL (      91 calls)

     Called by *egterg:
     h_psi        :   3219.24s CPU   2975.88s WALL (  158968 calls)
     s_psi        :     13.62s CPU     11.63s WALL (  158968 calls)
     g_psi        :      7.43s CPU      6.69s WALL (   97960 calls)
     cdiaghg      :    210.21s CPU    197.16s WALL (  154376 calls)
     cegterg:over :    178.44s CPU    168.14s WALL (   97960 calls)
     cegterg:upda :     27.04s CPU     24.81s WALL (   97960 calls)
     cegterg:last :      9.59s CPU      8.92s WALL (   60482 calls)

     Called by h_psi:
     h_psi:pot    :   3205.80s CPU   2963.48s WALL (  158968 calls)
     h_psi:calbec :    139.82s CPU    132.18s WALL (  158968 calls)
     vloc_psi     :   3043.66s CPU   2811.60s WALL (  158968 calls)
     add_vuspsi   :     20.39s CPU     18.92s WALL (  158968 calls)

     General routines
     calbec       :    259.91s CPU    245.19s WALL (  241624 calls)
     fft          :      2.91s CPU      2.79s WALL (    2364 calls)
     ffts         :      0.19s CPU      0.17s WALL (     182 calls)
     fftw         :   3376.28s CPU   3131.62s WALL ( 3372398 calls)
 
     Parallel routines
     fft_scatt_xy :    205.58s CPU    176.27s WALL ( 3374944 calls)
     fft_scatt_yz :   2338.93s CPU   2242.32s WALL ( 3374944 calls)
 
     PWSCF        :     1h22m CPU       22h 1m WALL

      16h
 
   This run was terminated on:   5:17:24  21Feb2019            

=------------------------------------------------------------------------------=
   JOB DONE.
=------------------------------------------------------------------------------=
