
     Program PWSCF v.6.3MaX starts on 21Feb2019 at  1:27:45 

     This program is part of the open-source Quantum ESPRESSO suite
     for quantum simulation of materials; please cite
         "P. Giannozzi et al., J. Phys.:Condens. Matter 21 395502 (2009);
         "P. Giannozzi et al., J. Phys.:Condens. Matter 29 465901 (2017);
          URL http://www.quantum-espresso.org", 
     in publications or presentations arising from this work. More details at
     http://www.quantum-espresso.org/quote

 *** WARNING: using old-style file format, will disappear from next version ***

     Parallel version (MPI & OpenMP), running on      20 processor cores
     Number of MPI processes:                 5
     Threads/MPI process:                     4

     MPI processes distributed on     1 nodes
     R & G space division:  proc/nbgrp/npool/nimage =       5
     Reading input from /home/azadoks/dftman/projects/GP01 Cu Kgrid/ConvergenceWorkflows/94873fcf11d9/fe0cbb753711/pwscf.in

     Current dimensions of program PWSCF are:
     Max number of different atomic species (ntypx) = 10
     Max number of k-points (npk) =  40000
     Max angular momentum in pseudopotentials (lmaxx) =  3
     Message from routine iosys:
     minimal I/O required, wf_collect reset to FALSE

     Subspace diagonalization in iterative solution of the eigenvalue problem:
     a serial algorithm will be used

 
     Parallelization info
     --------------------
     sticks:   dense  smooth     PW     G-vecs:    dense   smooth      PW
     Min          59      59     19                  657      657     128
     Max          59      59     20                  658      658     130
     Sum         295     295     97                 3287     3287     645
 


     bravais-lattice index     =            0
     lattice parameter (alat)  =       4.8305  a.u.
     unit-cell volume          =      79.7006 (a.u.)^3
     number of atoms/cell      =            1
     number of atomic types    =            1
     number of electrons       =        11.00
     number of Kohn-Sham states=           10
     kinetic-energy cutoff     =      45.0000  Ry
     charge density cutoff     =     180.0000  Ry
     convergence threshold     =      1.0E-08
     mixing beta               =       0.7000
     number of iterations used =            8  plain     mixing
     Exchange-correlation      =  SLA  PW   PBE  PBE ( 1  4  3  4 0 0)
     nstep                     =           50


     celldm(1)=   4.830501  celldm(2)=   0.000000  celldm(3)=   0.000000
     celldm(4)=   0.000000  celldm(5)=   0.000000  celldm(6)=   0.000000

     crystal axes: (cart. coord. in units of alat)
               a(1) = (  -0.707107   0.707107   0.000000 )  
               a(2) = (  -0.707107   0.000000   0.707107 )  
               a(3) = (   0.000000   0.707107   0.707107 )  

     reciprocal axes: (cart. coord. in units 2 pi/alat)
               b(1) = ( -0.707107  0.707107 -0.707107 )  
               b(2) = ( -0.707107 -0.707107  0.707107 )  
               b(3) = (  0.707107  0.707107  0.707107 )  


     PseudoPot. # 1 for Cu read from file:
     /home/azadoks/.local/share/pseudo/DFTQE_PBE/Cu_PBE.UPF
     MD5 check sum: f96b10b0f61dc418faf9c97f6ccca034
     Pseudo is Ultrasoft + core correction, Zval = 11.0
     Generated by new atomic code, or converted to UPF format
     Using radial grid of  867 points,  6 beta functions with: 
                l(1) =   0
                l(2) =   0
                l(3) =   1
                l(4) =   1
                l(5) =   2
                l(6) =   2
     Q(r) pseudized with  8 coefficients,  rinner =    1.400   1.400   1.400
                                                       1.400   1.400

     atomic species   valence    mass     pseudopotential
        Cu            11.00    63.54600     Cu( 1.00)

     Starting magnetic structure 
     atomic species   magnetization
        Cu           0.100

     48 Sym. Ops., with inversion, found


                                    s                        frac. trans.

      isym =  1     identity                                     

 cryst.   s( 1) = (     1          0          0      )
                  (     0          1          0      )
                  (     0          0          1      )

 cart.    s( 1) = (  1.0000000 -0.0000000  0.0000000 )
                  ( -0.0000000  1.0000000 -0.0000000 )
                  ( -0.0000000 -0.0000000  1.0000000 )


      isym =  2     180 deg rotation - cart. axis [0,0,1]        

 cryst.   s( 2) = (    -1          0          0      )
                  (    -1          0          1      )
                  (    -1          1          0      )

 cart.    s( 2) = ( -1.0000000  0.0000000  0.0000000 )
                  (  0.0000000 -1.0000000 -0.0000000 )
                  (  0.0000000  0.0000000  1.0000000 )


      isym =  3     180 deg rotation - cart. axis [0,1,0]        

 cryst.   s( 3) = (     0         -1          1      )
                  (     0         -1          0      )
                  (     1         -1          0      )

 cart.    s( 3) = ( -1.0000000 -0.0000000 -0.0000000 )
                  (  0.0000000  1.0000000  0.0000000 )
                  (  0.0000000 -0.0000000 -1.0000000 )


      isym =  4     180 deg rotation - cart. axis [1,0,0]        

 cryst.   s( 4) = (     0          1         -1      )
                  (     1          0         -1      )
                  (     0          0         -1      )

 cart.    s( 4) = (  1.0000000  0.0000000 -0.0000000 )
                  ( -0.0000000 -1.0000000  0.0000000 )
                  ( -0.0000000  0.0000000 -1.0000000 )


      isym =  5     180 deg rotation - cart. axis [1,1,0]        

 cryst.   s( 5) = (    -1          0          0      )
                  (     0          0         -1      )
                  (     0         -1          0      )

 cart.    s( 5) = ( -0.0000000  1.0000000 -0.0000000 )
                  (  1.0000000 -0.0000000  0.0000000 )
                  ( -0.0000000 -0.0000000 -1.0000000 )


      isym =  6     180 deg rotation - cart. axis [1,-1,0]       

 cryst.   s( 6) = (     1          0          0      )
                  (     1         -1          0      )
                  (     1          0         -1      )

 cart.    s( 6) = (  0.0000000 -1.0000000 -0.0000000 )
                  ( -1.0000000  0.0000000  0.0000000 )
                  (  0.0000000  0.0000000 -1.0000000 )


      isym =  7      90 deg rotation - cart. axis [0,0,-1]       

 cryst.   s( 7) = (     0         -1          1      )
                  (     0          0          1      )
                  (    -1          0          1      )

 cart.    s( 7) = (  0.0000000  1.0000000  0.0000000 )
                  ( -1.0000000 -0.0000000 -0.0000000 )
                  (  0.0000000 -0.0000000  1.0000000 )


      isym =  8      90 deg rotation - cart. axis [0,0,1]        

 cryst.   s( 8) = (     0          1         -1      )
                  (    -1          1          0      )
                  (     0          1          0      )

 cart.    s( 8) = ( -0.0000000 -1.0000000  0.0000000 )
                  (  1.0000000  0.0000000 -0.0000000 )
                  ( -0.0000000  0.0000000  1.0000000 )


      isym =  9     180 deg rotation - cart. axis [1,0,1]        

 cryst.   s( 9) = (     0          0         -1      )
                  (     0         -1          0      )
                  (    -1          0          0      )

 cart.    s( 9) = (  0.0000000  0.0000000  1.0000000 )
                  ( -0.0000000 -1.0000000 -0.0000000 )
                  (  1.0000000  0.0000000 -0.0000000 )


      isym = 10     180 deg rotation - cart. axis [-1,0,1]       

 cryst.   s(10) = (    -1          1          0      )
                  (     0          1          0      )
                  (     0          1         -1      )

 cart.    s(10) = ( -0.0000000  0.0000000 -1.0000000 )
                  (  0.0000000 -1.0000000  0.0000000 )
                  ( -1.0000000  0.0000000  0.0000000 )


      isym = 11      90 deg rotation - cart. axis [0,1,0]        

 cryst.   s(11) = (     0          0          1      )
                  (    -1          0          1      )
                  (     0         -1          1      )

 cart.    s(11) = ( -0.0000000 -0.0000000  1.0000000 )
                  (  0.0000000  1.0000000 -0.0000000 )
                  ( -1.0000000 -0.0000000 -0.0000000 )


      isym = 12      90 deg rotation - cart. axis [0,-1,0]       

 cryst.   s(12) = (     1         -1          0      )
                  (     1          0         -1      )
                  (     1          0          0      )

 cart.    s(12) = (  0.0000000 -0.0000000 -1.0000000 )
                  ( -0.0000000  1.0000000  0.0000000 )
                  (  1.0000000 -0.0000000  0.0000000 )


      isym = 13     180 deg rotation - cart. axis [0,1,1]        

 cryst.   s(13) = (    -1          0          1      )
                  (     0         -1          1      )
                  (     0          0          1      )

 cart.    s(13) = ( -1.0000000  0.0000000 -0.0000000 )
                  (  0.0000000 -0.0000000  1.0000000 )
                  (  0.0000000  1.0000000 -0.0000000 )


      isym = 14     180 deg rotation - cart. axis [0,1,-1]       

 cryst.   s(14) = (     0         -1          0      )
                  (    -1          0          0      )
                  (     0          0         -1      )

 cart.    s(14) = ( -1.0000000 -0.0000000  0.0000000 )
                  (  0.0000000  0.0000000 -1.0000000 )
                  (  0.0000000 -1.0000000  0.0000000 )


      isym = 15      90 deg rotation - cart. axis [-1,0,0]       

 cryst.   s(15) = (     1          0         -1      )
                  (     1          0          0      )
                  (     1         -1          0      )

 cart.    s(15) = (  1.0000000 -0.0000000 -0.0000000 )
                  ( -0.0000000  0.0000000  1.0000000 )
                  ( -0.0000000 -1.0000000 -0.0000000 )


      isym = 16      90 deg rotation - cart. axis [1,0,0]        

 cryst.   s(16) = (     0          1          0      )
                  (     0          1         -1      )
                  (    -1          1          0      )

 cart.    s(16) = (  1.0000000  0.0000000  0.0000000 )
                  ( -0.0000000 -0.0000000 -1.0000000 )
                  ( -0.0000000  1.0000000  0.0000000 )


      isym = 17     120 deg rotation - cart. axis [-1,-1,-1]     

 cryst.   s(17) = (     0         -1          0      )
                  (     1         -1          0      )
                  (     0         -1          1      )

 cart.    s(17) = (  0.0000000  1.0000000 -0.0000000 )
                  ( -0.0000000 -0.0000000  1.0000000 )
                  (  1.0000000 -0.0000000 -0.0000000 )


      isym = 18     120 deg rotation - cart. axis [-1,1,1]       

 cryst.   s(18) = (     0          1          0      )
                  (     0          0          1      )
                  (     1          0          0      )

 cart.    s(18) = ( -0.0000000 -1.0000000 -0.0000000 )
                  (  0.0000000  0.0000000  1.0000000 )
                  ( -1.0000000  0.0000000 -0.0000000 )


      isym = 19     120 deg rotation - cart. axis [1,1,-1]       

 cryst.   s(19) = (    -1          0          1      )
                  (    -1          1          0      )
                  (    -1          0          0      )

 cart.    s(19) = ( -0.0000000  1.0000000  0.0000000 )
                  (  0.0000000 -0.0000000 -1.0000000 )
                  ( -1.0000000 -0.0000000  0.0000000 )


      isym = 20     120 deg rotation - cart. axis [1,-1,1]       

 cryst.   s(20) = (     1          0         -1      )
                  (     0          0         -1      )
                  (     0          1         -1      )

 cart.    s(20) = (  0.0000000 -1.0000000  0.0000000 )
                  ( -0.0000000  0.0000000 -1.0000000 )
                  (  1.0000000  0.0000000  0.0000000 )


      isym = 21     120 deg rotation - cart. axis [1,1,1]        

 cryst.   s(21) = (    -1          1          0      )
                  (    -1          0          0      )
                  (    -1          0          1      )

 cart.    s(21) = ( -0.0000000  0.0000000  1.0000000 )
                  (  1.0000000 -0.0000000 -0.0000000 )
                  ( -0.0000000  1.0000000 -0.0000000 )


      isym = 22     120 deg rotation - cart. axis [-1,1,-1]      

 cryst.   s(22) = (     1         -1          0      )
                  (     0         -1          1      )
                  (     0         -1          0      )

 cart.    s(22) = (  0.0000000 -0.0000000  1.0000000 )
                  ( -1.0000000  0.0000000 -0.0000000 )
                  (  0.0000000 -1.0000000 -0.0000000 )


      isym = 23     120 deg rotation - cart. axis [1,-1,-1]      

 cryst.   s(23) = (     0          0          1      )
                  (     1          0          0      )
                  (     0          1          0      )

 cart.    s(23) = (  0.0000000  0.0000000 -1.0000000 )
                  ( -1.0000000 -0.0000000  0.0000000 )
                  (  0.0000000  1.0000000  0.0000000 )


      isym = 24     120 deg rotation - cart. axis [-1,-1,1]      

 cryst.   s(24) = (     0          0         -1      )
                  (     0          1         -1      )
                  (     1          0         -1      )

 cart.    s(24) = ( -0.0000000 -0.0000000 -1.0000000 )
                  (  1.0000000  0.0000000  0.0000000 )
                  ( -0.0000000 -1.0000000  0.0000000 )


      isym = 25     inversion                                    

 cryst.   s(25) = (    -1          0          0      )
                  (     0         -1          0      )
                  (     0          0         -1      )

 cart.    s(25) = ( -1.0000000  0.0000000 -0.0000000 )
                  (  0.0000000 -1.0000000  0.0000000 )
                  (  0.0000000  0.0000000 -1.0000000 )


      isym = 26     inv. 180 deg rotation - cart. axis [0,0,1]   

 cryst.   s(26) = (     1          0          0      )
                  (     1          0         -1      )
                  (     1         -1          0      )

 cart.    s(26) = (  1.0000000 -0.0000000 -0.0000000 )
                  ( -0.0000000  1.0000000  0.0000000 )
                  ( -0.0000000 -0.0000000 -1.0000000 )


      isym = 27     inv. 180 deg rotation - cart. axis [0,1,0]   

 cryst.   s(27) = (     0          1         -1      )
                  (     0          1          0      )
                  (    -1          1          0      )

 cart.    s(27) = (  1.0000000  0.0000000  0.0000000 )
                  ( -0.0000000 -1.0000000 -0.0000000 )
                  ( -0.0000000  0.0000000  1.0000000 )


      isym = 28     inv. 180 deg rotation - cart. axis [1,0,0]   

 cryst.   s(28) = (     0         -1          1      )
                  (    -1          0          1      )
                  (     0          0          1      )

 cart.    s(28) = ( -1.0000000 -0.0000000  0.0000000 )
                  (  0.0000000  1.0000000 -0.0000000 )
                  (  0.0000000 -0.0000000  1.0000000 )


      isym = 29     inv. 180 deg rotation - cart. axis [1,1,0]   

 cryst.   s(29) = (     1          0          0      )
                  (     0          0          1      )
                  (     0          1          0      )

 cart.    s(29) = (  0.0000000 -1.0000000  0.0000000 )
                  ( -1.0000000  0.0000000 -0.0000000 )
                  (  0.0000000  0.0000000  1.0000000 )


      isym = 30     inv. 180 deg rotation - cart. axis [1,-1,0]  

 cryst.   s(30) = (    -1          0          0      )
                  (    -1          1          0      )
                  (    -1          0          1      )

 cart.    s(30) = ( -0.0000000  1.0000000  0.0000000 )
                  (  1.0000000 -0.0000000 -0.0000000 )
                  ( -0.0000000 -0.0000000  1.0000000 )


      isym = 31     inv.  90 deg rotation - cart. axis [0,0,-1]  

 cryst.   s(31) = (     0          1         -1      )
                  (     0          0         -1      )
                  (     1          0         -1      )

 cart.    s(31) = ( -0.0000000 -1.0000000 -0.0000000 )
                  (  1.0000000  0.0000000  0.0000000 )
                  ( -0.0000000  0.0000000 -1.0000000 )


      isym = 32     inv.  90 deg rotation - cart. axis [0,0,1]   

 cryst.   s(32) = (     0         -1          1      )
                  (     1         -1          0      )
                  (     0         -1          0      )

 cart.    s(32) = (  0.0000000  1.0000000 -0.0000000 )
                  ( -1.0000000 -0.0000000  0.0000000 )
                  (  0.0000000 -0.0000000 -1.0000000 )


      isym = 33     inv. 180 deg rotation - cart. axis [1,0,1]   

 cryst.   s(33) = (     0          0          1      )
                  (     0          1          0      )
                  (     1          0          0      )

 cart.    s(33) = ( -0.0000000 -0.0000000 -1.0000000 )
                  (  0.0000000  1.0000000  0.0000000 )
                  ( -1.0000000 -0.0000000  0.0000000 )


      isym = 34     inv. 180 deg rotation - cart. axis [-1,0,1]  

 cryst.   s(34) = (     1         -1          0      )
                  (     0         -1          0      )
                  (     0         -1          1      )

 cart.    s(34) = (  0.0000000 -0.0000000  1.0000000 )
                  ( -0.0000000  1.0000000 -0.0000000 )
                  (  1.0000000 -0.0000000 -0.0000000 )


      isym = 35     inv.  90 deg rotation - cart. axis [0,1,0]   

 cryst.   s(35) = (     0          0         -1      )
                  (     1          0         -1      )
                  (     0          1         -1      )

 cart.    s(35) = (  0.0000000  0.0000000 -1.0000000 )
                  ( -0.0000000 -1.0000000  0.0000000 )
                  (  1.0000000  0.0000000  0.0000000 )


      isym = 36     inv.  90 deg rotation - cart. axis [0,-1,0]  

 cryst.   s(36) = (    -1          1          0      )
                  (    -1          0          1      )
                  (    -1          0          0      )

 cart.    s(36) = ( -0.0000000  0.0000000  1.0000000 )
                  (  0.0000000 -1.0000000 -0.0000000 )
                  ( -1.0000000  0.0000000 -0.0000000 )


      isym = 37     inv. 180 deg rotation - cart. axis [0,1,1]   

 cryst.   s(37) = (     1          0         -1      )
                  (     0          1         -1      )
                  (     0          0         -1      )

 cart.    s(37) = (  1.0000000 -0.0000000  0.0000000 )
                  ( -0.0000000  0.0000000 -1.0000000 )
                  ( -0.0000000 -1.0000000  0.0000000 )


      isym = 38     inv. 180 deg rotation - cart. axis [0,1,-1]  

 cryst.   s(38) = (     0          1          0      )
                  (     1          0          0      )
                  (     0          0          1      )

 cart.    s(38) = (  1.0000000  0.0000000 -0.0000000 )
                  ( -0.0000000 -0.0000000  1.0000000 )
                  ( -0.0000000  1.0000000 -0.0000000 )


      isym = 39     inv.  90 deg rotation - cart. axis [-1,0,0]  

 cryst.   s(39) = (    -1          0          1      )
                  (    -1          0          0      )
                  (    -1          1          0      )

 cart.    s(39) = ( -1.0000000  0.0000000  0.0000000 )
                  (  0.0000000 -0.0000000 -1.0000000 )
                  (  0.0000000  1.0000000  0.0000000 )


      isym = 40     inv.  90 deg rotation - cart. axis [1,0,0]   

 cryst.   s(40) = (     0         -1          0      )
                  (     0         -1          1      )
                  (     1         -1          0      )

 cart.    s(40) = ( -1.0000000 -0.0000000 -0.0000000 )
                  (  0.0000000  0.0000000  1.0000000 )
                  (  0.0000000 -1.0000000 -0.0000000 )


      isym = 41     inv. 120 deg rotation - cart. axis [-1,-1,-1]

 cryst.   s(41) = (     0          1          0      )
                  (    -1          1          0      )
                  (     0          1         -1      )

 cart.    s(41) = ( -0.0000000 -1.0000000  0.0000000 )
                  (  0.0000000  0.0000000 -1.0000000 )
                  ( -1.0000000  0.0000000  0.0000000 )


      isym = 42     inv. 120 deg rotation - cart. axis [-1,1,1]  

 cryst.   s(42) = (     0         -1          0      )
                  (     0          0         -1      )
                  (    -1          0          0      )

 cart.    s(42) = (  0.0000000  1.0000000  0.0000000 )
                  ( -0.0000000 -0.0000000 -1.0000000 )
                  (  1.0000000 -0.0000000  0.0000000 )


      isym = 43     inv. 120 deg rotation - cart. axis [1,1,-1]  

 cryst.   s(43) = (     1          0         -1      )
                  (     1         -1          0      )
                  (     1          0          0      )

 cart.    s(43) = (  0.0000000 -1.0000000 -0.0000000 )
                  ( -0.0000000  0.0000000  1.0000000 )
                  (  1.0000000  0.0000000 -0.0000000 )


      isym = 44     inv. 120 deg rotation - cart. axis [1,-1,1]  

 cryst.   s(44) = (    -1          0          1      )
                  (     0          0          1      )
                  (     0         -1          1      )

 cart.    s(44) = ( -0.0000000  1.0000000 -0.0000000 )
                  (  0.0000000 -0.0000000  1.0000000 )
                  ( -1.0000000 -0.0000000 -0.0000000 )


      isym = 45     inv. 120 deg rotation - cart. axis [1,1,1]   

 cryst.   s(45) = (     1         -1          0      )
                  (     1          0          0      )
                  (     1          0         -1      )

 cart.    s(45) = (  0.0000000 -0.0000000 -1.0000000 )
                  ( -1.0000000  0.0000000  0.0000000 )
                  (  0.0000000 -1.0000000  0.0000000 )


      isym = 46     inv. 120 deg rotation - cart. axis [-1,1,-1] 

 cryst.   s(46) = (    -1          1          0      )
                  (     0          1         -1      )
                  (     0          1          0      )

 cart.    s(46) = ( -0.0000000  0.0000000 -1.0000000 )
                  (  1.0000000 -0.0000000  0.0000000 )
                  ( -0.0000000  1.0000000  0.0000000 )


      isym = 47     inv. 120 deg rotation - cart. axis [1,-1,-1] 

 cryst.   s(47) = (     0          0         -1      )
                  (    -1          0          0      )
                  (     0         -1          0      )

 cart.    s(47) = ( -0.0000000 -0.0000000  1.0000000 )
                  (  1.0000000  0.0000000 -0.0000000 )
                  ( -0.0000000 -1.0000000 -0.0000000 )


      isym = 48     inv. 120 deg rotation - cart. axis [-1,-1,1] 

 cryst.   s(48) = (     0          0          1      )
                  (     0         -1          1      )
                  (    -1          0          1      )

 cart.    s(48) = (  0.0000000  0.0000000  1.0000000 )
                  ( -1.0000000 -0.0000000 -0.0000000 )
                  (  0.0000000  1.0000000 -0.0000000 )


   Cartesian axes

     site n.     atom                  positions (alat units)
         1           Cu  tau(   1) = (   0.0000000   0.0000000   0.0000000  )

   Crystallographic axes

     site n.     atom                  positions (cryst. coord.)
         1           Cu  tau(   1) = (  0.0000000  0.0000000  0.0000000  )

     number of k points=   145  Marzari-Vanderbilt smearing, width (Ry)=  0.0100
                       cart. coord. in units 2pi/alat
        k(    1) = (   0.0000000   0.0000000   0.0000000), wk =   0.0002441
        k(    2) = (   0.0441942   0.0441942   0.0441942), wk =   0.0019531
        k(    3) = (   0.0883883   0.0883883   0.0883883), wk =   0.0019531
        k(    4) = (   0.1325825   0.1325825   0.1325825), wk =   0.0019531
        k(    5) = (   0.1767767   0.1767767   0.1767767), wk =   0.0019531
        k(    6) = (   0.2209709   0.2209709   0.2209709), wk =   0.0019531
        k(    7) = (   0.2651650   0.2651650   0.2651650), wk =   0.0019531
        k(    8) = (   0.3093592   0.3093592   0.3093592), wk =   0.0019531
        k(    9) = (  -0.3535534  -0.3535534  -0.3535534), wk =   0.0009766
        k(   10) = (   0.0000000   0.0000000   0.0883883), wk =   0.0014648
        k(   11) = (   0.0441942   0.0441942   0.1325825), wk =   0.0058594
        k(   12) = (   0.0883883   0.0883883   0.1767767), wk =   0.0058594
        k(   13) = (   0.1325825   0.1325825   0.2209709), wk =   0.0058594
        k(   14) = (   0.1767767   0.1767767   0.2651650), wk =   0.0058594
        k(   15) = (   0.2209709   0.2209709   0.3093592), wk =   0.0058594
        k(   16) = (   0.2651650   0.2651650   0.3535534), wk =   0.0058594
        k(   17) = (  -0.3977476  -0.3977476  -0.3093592), wk =   0.0058594
        k(   18) = (  -0.3535534  -0.3535534  -0.2651650), wk =   0.0058594
        k(   19) = (  -0.3093592  -0.3093592  -0.2209709), wk =   0.0058594
        k(   20) = (  -0.2651650  -0.2651650  -0.1767767), wk =   0.0058594
        k(   21) = (  -0.2209709  -0.2209709  -0.1325825), wk =   0.0058594
        k(   22) = (  -0.1767767  -0.1767767  -0.0883883), wk =   0.0058594
        k(   23) = (  -0.1325825  -0.1325825  -0.0441942), wk =   0.0058594
        k(   24) = (  -0.0883883  -0.0883883   0.0000000), wk =   0.0029297
        k(   25) = (   0.0000000   0.0000000   0.1767767), wk =   0.0014648
        k(   26) = (   0.0441942   0.0441942   0.2209709), wk =   0.0058594
        k(   27) = (   0.0883883   0.0883883   0.2651650), wk =   0.0058594
        k(   28) = (   0.1325825   0.1325825   0.3093592), wk =   0.0058594
        k(   29) = (   0.1767767   0.1767767   0.3535534), wk =   0.0058594
        k(   30) = (   0.2209709   0.2209709   0.3977476), wk =   0.0058594
        k(   31) = (  -0.4419417  -0.4419417  -0.2651650), wk =   0.0058594
        k(   32) = (  -0.3977476  -0.3977476  -0.2209709), wk =   0.0058594
        k(   33) = (  -0.3535534  -0.3535534  -0.1767767), wk =   0.0058594
        k(   34) = (  -0.3093592  -0.3093592  -0.1325825), wk =   0.0058594
        k(   35) = (  -0.2651650  -0.2651650  -0.0883883), wk =   0.0058594
        k(   36) = (  -0.2209709  -0.2209709  -0.0441942), wk =   0.0058594
        k(   37) = (  -0.1767767  -0.1767767   0.0000000), wk =   0.0029297
        k(   38) = (  -0.0000000  -0.0000000   0.2651650), wk =   0.0014648
        k(   39) = (   0.0441942   0.0441942   0.3093592), wk =   0.0058594
        k(   40) = (   0.0883883   0.0883883   0.3535534), wk =   0.0058594
        k(   41) = (   0.1325825   0.1325825   0.3977476), wk =   0.0058594
        k(   42) = (   0.1767767   0.1767767   0.4419417), wk =   0.0058594
        k(   43) = (  -0.4861359  -0.4861359  -0.2209709), wk =   0.0058594
        k(   44) = (  -0.4419417  -0.4419417  -0.1767767), wk =   0.0058594
        k(   45) = (  -0.3977476  -0.3977476  -0.1325825), wk =   0.0058594
        k(   46) = (  -0.3535534  -0.3535534  -0.0883883), wk =   0.0058594
        k(   47) = (  -0.3093592  -0.3093592  -0.0441942), wk =   0.0058594
        k(   48) = (  -0.2651650  -0.2651650   0.0000000), wk =   0.0029297
        k(   49) = (   0.0000000   0.0000000   0.3535534), wk =   0.0014648
        k(   50) = (   0.0441942   0.0441942   0.3977476), wk =   0.0058594
        k(   51) = (   0.0883883   0.0883883   0.4419417), wk =   0.0058594
        k(   52) = (   0.1325825   0.1325825   0.4861359), wk =   0.0058594
        k(   53) = (  -0.5303301  -0.5303301  -0.1767767), wk =   0.0058594
        k(   54) = (  -0.4861359  -0.4861359  -0.1325825), wk =   0.0058594
        k(   55) = (  -0.4419417  -0.4419417  -0.0883883), wk =   0.0058594
        k(   56) = (  -0.3977476  -0.3977476  -0.0441942), wk =   0.0058594
        k(   57) = (  -0.3535534  -0.3535534   0.0000000), wk =   0.0029297
        k(   58) = (   0.0000000   0.0000000   0.4419417), wk =   0.0014648
        k(   59) = (   0.0441942   0.0441942   0.4861359), wk =   0.0058594
        k(   60) = (   0.0883883   0.0883883   0.5303301), wk =   0.0058594
        k(   61) = (  -0.5745243  -0.5745243  -0.1325825), wk =   0.0058594
        k(   62) = (  -0.5303301  -0.5303301  -0.0883883), wk =   0.0058594
        k(   63) = (  -0.4861359  -0.4861359  -0.0441942), wk =   0.0058594
        k(   64) = (  -0.4419417  -0.4419417  -0.0000000), wk =   0.0029297
        k(   65) = (  -0.0000000  -0.0000000   0.5303301), wk =   0.0014648
        k(   66) = (   0.0441942   0.0441942   0.5745243), wk =   0.0058594
        k(   67) = (  -0.6187184  -0.6187184  -0.0883883), wk =   0.0058594
        k(   68) = (  -0.5745243  -0.5745243  -0.0441942), wk =   0.0058594
        k(   69) = (  -0.5303301  -0.5303301   0.0000000), wk =   0.0029297
        k(   70) = (   0.0000000   0.0000000   0.6187184), wk =   0.0014648
        k(   71) = (  -0.6629126  -0.6629126  -0.0441942), wk =   0.0058594
        k(   72) = (  -0.6187184  -0.6187184  -0.0000000), wk =   0.0029297
        k(   73) = (   0.0000000   0.0000000  -0.7071068), wk =   0.0007324
        k(   74) = (  -0.0000000   0.0883883   0.1767767), wk =   0.0058594
        k(   75) = (   0.0441942   0.1325825   0.2209709), wk =   0.0117188
        k(   76) = (   0.0883883   0.1767767   0.2651650), wk =   0.0117188
        k(   77) = (   0.1325825   0.2209709   0.3093592), wk =   0.0117188
        k(   78) = (   0.1767767   0.2651650   0.3535534), wk =   0.0117188
        k(   79) = (  -0.4861359  -0.3977476  -0.3093592), wk =   0.0117188
        k(   80) = (  -0.4419417  -0.3535534  -0.2651650), wk =   0.0058594
        k(   81) = (   0.0000000   0.0883883   0.2651650), wk =   0.0058594
        k(   82) = (   0.0441942   0.1325825   0.3093592), wk =   0.0117188
        k(   83) = (   0.0883883   0.1767767   0.3535534), wk =   0.0117188
        k(   84) = (   0.1325825   0.2209709   0.3977476), wk =   0.0117188
        k(   85) = (  -0.5303301  -0.4419417  -0.2651650), wk =   0.0117188
        k(   86) = (  -0.4861359  -0.3977476  -0.2209709), wk =   0.0117188
        k(   87) = (  -0.4419417  -0.3535534  -0.1767767), wk =   0.0117188
        k(   88) = (  -0.3977476  -0.3093592  -0.1325825), wk =   0.0117188
        k(   89) = (  -0.3535534  -0.2651650  -0.0883883), wk =   0.0117188
        k(   90) = (  -0.3093592  -0.2209709  -0.0441942), wk =   0.0117188
        k(   91) = (  -0.2651650  -0.1767767   0.0000000), wk =   0.0058594
        k(   92) = (   0.0000000   0.0883883   0.3535534), wk =   0.0058594
        k(   93) = (   0.0441942   0.1325825   0.3977476), wk =   0.0117188
        k(   94) = (   0.0883883   0.1767767   0.4419417), wk =   0.0117188
        k(   95) = (  -0.5745243  -0.4861359  -0.2209709), wk =   0.0117188
        k(   96) = (  -0.5303301  -0.4419417  -0.1767767), wk =   0.0117188
        k(   97) = (  -0.4861359  -0.3977476  -0.1325825), wk =   0.0117188
        k(   98) = (  -0.4419417  -0.3535534  -0.0883883), wk =   0.0117188
        k(   99) = (  -0.3977476  -0.3093592  -0.0441942), wk =   0.0117188
        k(  100) = (  -0.3535534  -0.2651650   0.0000000), wk =   0.0058594
        k(  101) = (  -0.0000000   0.0883883   0.4419417), wk =   0.0058594
        k(  102) = (   0.0441942   0.1325825   0.4861359), wk =   0.0117188
        k(  103) = (  -0.6187184  -0.5303301  -0.1767767), wk =   0.0117188
        k(  104) = (  -0.5745243  -0.4861359  -0.1325825), wk =   0.0117188
        k(  105) = (  -0.5303301  -0.4419417  -0.0883883), wk =   0.0117188
        k(  106) = (  -0.4861359  -0.3977476  -0.0441942), wk =   0.0117188
        k(  107) = (  -0.4419417  -0.3535534   0.0000000), wk =   0.0058594
        k(  108) = (  -0.0000000   0.0883883   0.5303301), wk =   0.0058594
        k(  109) = (  -0.6629126  -0.5745243  -0.1325825), wk =   0.0117188
        k(  110) = (  -0.6187184  -0.5303301  -0.0883883), wk =   0.0117188
        k(  111) = (  -0.5745243  -0.4861359  -0.0441942), wk =   0.0117188
        k(  112) = (  -0.5303301  -0.4419417   0.0000000), wk =   0.0058594
        k(  113) = (  -0.7071068  -0.6187184  -0.0883883), wk =   0.0058594
        k(  114) = (  -0.6629126  -0.5745243  -0.0441942), wk =   0.0117188
        k(  115) = (  -0.6187184  -0.5303301  -0.0000000), wk =   0.0058594
        k(  116) = (  -0.0000000   0.0883883  -0.7071068), wk =   0.0029297
        k(  117) = (  -0.0000000   0.1767767   0.3535534), wk =   0.0058594
        k(  118) = (   0.0441942   0.2209709   0.3977476), wk =   0.0117188
        k(  119) = (  -0.6187184  -0.4419417  -0.2651650), wk =   0.0117188
        k(  120) = (  -0.5745243  -0.3977476  -0.2209709), wk =   0.0117188
        k(  121) = (  -0.5303301  -0.3535534  -0.1767767), wk =   0.0058594
        k(  122) = (   0.0000000   0.1767767   0.4419417), wk =   0.0058594
        k(  123) = (  -0.6629126  -0.4861359  -0.2209709), wk =   0.0117188
        k(  124) = (  -0.6187184  -0.4419417  -0.1767767), wk =   0.0117188
        k(  125) = (  -0.5745243  -0.3977476  -0.1325825), wk =   0.0117188
        k(  126) = (  -0.5303301  -0.3535534  -0.0883883), wk =   0.0117188
        k(  127) = (  -0.4861359  -0.3093592  -0.0441942), wk =   0.0117188
        k(  128) = (  -0.4419417  -0.2651650   0.0000000), wk =   0.0058594
        k(  129) = (  -0.7071068  -0.5303301  -0.1767767), wk =   0.0058594
        k(  130) = (  -0.6629126  -0.4861359  -0.1325825), wk =   0.0117188
        k(  131) = (  -0.6187184  -0.4419417  -0.0883883), wk =   0.0117188
        k(  132) = (  -0.5745243  -0.3977476  -0.0441942), wk =   0.0117188
        k(  133) = (  -0.5303301  -0.3535534   0.0000000), wk =   0.0058594
        k(  134) = (  -0.7071068  -0.5303301  -0.0883883), wk =   0.0058594
        k(  135) = (  -0.6629126  -0.4861359  -0.0441942), wk =   0.0117188
        k(  136) = (  -0.6187184  -0.4419417  -0.0000000), wk =   0.0058594
        k(  137) = (   0.0000000   0.1767767  -0.7071068), wk =   0.0029297
        k(  138) = (  -0.7071068  -0.4419417  -0.1767767), wk =   0.0058594
        k(  139) = (  -0.6629126  -0.3977476  -0.1325825), wk =   0.0117188
        k(  140) = (  -0.6187184  -0.3535534  -0.0883883), wk =   0.0058594
        k(  141) = (  -0.7071068  -0.4419417  -0.0883883), wk =   0.0058594
        k(  142) = (  -0.6629126  -0.3977476  -0.0441942), wk =   0.0117188
        k(  143) = (  -0.6187184  -0.3535534  -0.0000000), wk =   0.0058594
        k(  144) = (  -0.0000000   0.2651650  -0.7071068), wk =   0.0029297
        k(  145) = (   0.0000000   0.3535534  -0.7071068), wk =   0.0014648

                       cryst. coord.
        k(    1) = (   0.0000000   0.0000000   0.0000000), wk =   0.0002441
        k(    2) = (   0.0000000  -0.0000000   0.0625000), wk =   0.0019531
        k(    3) = (   0.0000000  -0.0000000   0.1250000), wk =   0.0019531
        k(    4) = (  -0.0000000   0.0000000   0.1875000), wk =   0.0019531
        k(    5) = (   0.0000000  -0.0000000   0.2500000), wk =   0.0019531
        k(    6) = (   0.0000000  -0.0000000   0.3125000), wk =   0.0019531
        k(    7) = (  -0.0000000   0.0000000   0.3750000), wk =   0.0019531
        k(    8) = (   0.0000000  -0.0000000   0.4375000), wk =   0.0019531
        k(    9) = (  -0.0000000   0.0000000  -0.5000000), wk =   0.0009766
        k(   10) = (   0.0000000   0.0625000   0.0625000), wk =   0.0014648
        k(   11) = (   0.0000000   0.0625000   0.1250000), wk =   0.0058594
        k(   12) = (   0.0000000   0.0625000   0.1875000), wk =   0.0058594
        k(   13) = (  -0.0000000   0.0625000   0.2500000), wk =   0.0058594
        k(   14) = (   0.0000000   0.0625000   0.3125000), wk =   0.0058594
        k(   15) = (   0.0000000   0.0625000   0.3750000), wk =   0.0058594
        k(   16) = (  -0.0000000   0.0625000   0.4375000), wk =   0.0058594
        k(   17) = (  -0.0000000   0.0625000  -0.5000000), wk =   0.0058594
        k(   18) = (  -0.0000000   0.0625000  -0.4375000), wk =   0.0058594
        k(   19) = (  -0.0000000   0.0625000  -0.3750000), wk =   0.0058594
        k(   20) = (   0.0000000   0.0625000  -0.3125000), wk =   0.0058594
        k(   21) = (  -0.0000000   0.0625000  -0.2500000), wk =   0.0058594
        k(   22) = (  -0.0000000   0.0625000  -0.1875000), wk =   0.0058594
        k(   23) = (   0.0000000   0.0625000  -0.1250000), wk =   0.0058594
        k(   24) = (  -0.0000000   0.0625000  -0.0625000), wk =   0.0029297
        k(   25) = (   0.0000000   0.1250000   0.1250000), wk =   0.0014648
        k(   26) = (   0.0000000   0.1250000   0.1875000), wk =   0.0058594
        k(   27) = (   0.0000000   0.1250000   0.2500000), wk =   0.0058594
        k(   28) = (  -0.0000000   0.1250000   0.3125000), wk =   0.0058594
        k(   29) = (   0.0000000   0.1250000   0.3750000), wk =   0.0058594
        k(   30) = (   0.0000000   0.1250000   0.4375000), wk =   0.0058594
        k(   31) = (  -0.0000000   0.1250000  -0.5000000), wk =   0.0058594
        k(   32) = (  -0.0000000   0.1250000  -0.4375000), wk =   0.0058594
        k(   33) = (  -0.0000000   0.1250000  -0.3750000), wk =   0.0058594
        k(   34) = (  -0.0000000   0.1250000  -0.3125000), wk =   0.0058594
        k(   35) = (   0.0000000   0.1250000  -0.2500000), wk =   0.0058594
        k(   36) = (  -0.0000000   0.1250000  -0.1875000), wk =   0.0058594
        k(   37) = (  -0.0000000   0.1250000  -0.1250000), wk =   0.0029297
        k(   38) = (   0.0000000   0.1875000   0.1875000), wk =   0.0014648
        k(   39) = (   0.0000000   0.1875000   0.2500000), wk =   0.0058594
        k(   40) = (   0.0000000   0.1875000   0.3125000), wk =   0.0058594
        k(   41) = (  -0.0000000   0.1875000   0.3750000), wk =   0.0058594
        k(   42) = (   0.0000000   0.1875000   0.4375000), wk =   0.0058594
        k(   43) = (  -0.0000000   0.1875000  -0.5000000), wk =   0.0058594
        k(   44) = (  -0.0000000   0.1875000  -0.4375000), wk =   0.0058594
        k(   45) = (  -0.0000000   0.1875000  -0.3750000), wk =   0.0058594
        k(   46) = (  -0.0000000   0.1875000  -0.3125000), wk =   0.0058594
        k(   47) = (  -0.0000000   0.1875000  -0.2500000), wk =   0.0058594
        k(   48) = (   0.0000000   0.1875000  -0.1875000), wk =   0.0029297
        k(   49) = (   0.0000000   0.2500000   0.2500000), wk =   0.0014648
        k(   50) = (   0.0000000   0.2500000   0.3125000), wk =   0.0058594
        k(   51) = (   0.0000000   0.2500000   0.3750000), wk =   0.0058594
        k(   52) = (  -0.0000000   0.2500000   0.4375000), wk =   0.0058594
        k(   53) = (   0.0000000   0.2500000  -0.5000000), wk =   0.0058594
        k(   54) = (  -0.0000000   0.2500000  -0.4375000), wk =   0.0058594
        k(   55) = (  -0.0000000   0.2500000  -0.3750000), wk =   0.0058594
        k(   56) = (  -0.0000000   0.2500000  -0.3125000), wk =   0.0058594
        k(   57) = (  -0.0000000   0.2500000  -0.2500000), wk =   0.0029297
        k(   58) = (   0.0000000   0.3125000   0.3125000), wk =   0.0014648
        k(   59) = (  -0.0000000   0.3125000   0.3750000), wk =   0.0058594
        k(   60) = (  -0.0000000   0.3125000   0.4375000), wk =   0.0058594
        k(   61) = (   0.0000000   0.3125000  -0.5000000), wk =   0.0058594
        k(   62) = (   0.0000000   0.3125000  -0.4375000), wk =   0.0058594
        k(   63) = (  -0.0000000   0.3125000  -0.3750000), wk =   0.0058594
        k(   64) = (  -0.0000000   0.3125000  -0.3125000), wk =   0.0029297
        k(   65) = (   0.0000000   0.3750000   0.3750000), wk =   0.0014648
        k(   66) = (  -0.0000000   0.3750000   0.4375000), wk =   0.0058594
        k(   67) = (  -0.0000000   0.3750000  -0.5000000), wk =   0.0058594
        k(   68) = (  -0.0000000   0.3750000  -0.4375000), wk =   0.0058594
        k(   69) = (   0.0000000   0.3750000  -0.3750000), wk =   0.0029297
        k(   70) = (   0.0000000   0.4375000   0.4375000), wk =   0.0014648
        k(   71) = (  -0.0000000   0.4375000  -0.5000000), wk =   0.0058594
        k(   72) = (  -0.0000000   0.4375000  -0.4375000), wk =   0.0029297
        k(   73) = (   0.0000000  -0.5000000  -0.5000000), wk =   0.0007324
        k(   74) = (   0.0625000   0.1250000   0.1875000), wk =   0.0058594
        k(   75) = (   0.0625000   0.1250000   0.2500000), wk =   0.0117188
        k(   76) = (   0.0625000   0.1250000   0.3125000), wk =   0.0117188
        k(   77) = (   0.0625000   0.1250000   0.3750000), wk =   0.0117188
        k(   78) = (   0.0625000   0.1250000   0.4375000), wk =   0.0117188
        k(   79) = (   0.0625000   0.1250000  -0.5000000), wk =   0.0117188
        k(   80) = (   0.0625000   0.1250000  -0.4375000), wk =   0.0058594
        k(   81) = (   0.0625000   0.1875000   0.2500000), wk =   0.0058594
        k(   82) = (   0.0625000   0.1875000   0.3125000), wk =   0.0117188
        k(   83) = (   0.0625000   0.1875000   0.3750000), wk =   0.0117188
        k(   84) = (   0.0625000   0.1875000   0.4375000), wk =   0.0117188
        k(   85) = (   0.0625000   0.1875000  -0.5000000), wk =   0.0117188
        k(   86) = (   0.0625000   0.1875000  -0.4375000), wk =   0.0117188
        k(   87) = (   0.0625000   0.1875000  -0.3750000), wk =   0.0117188
        k(   88) = (   0.0625000   0.1875000  -0.3125000), wk =   0.0117188
        k(   89) = (   0.0625000   0.1875000  -0.2500000), wk =   0.0117188
        k(   90) = (   0.0625000   0.1875000  -0.1875000), wk =   0.0117188
        k(   91) = (   0.0625000   0.1875000  -0.1250000), wk =   0.0058594
        k(   92) = (   0.0625000   0.2500000   0.3125000), wk =   0.0058594
        k(   93) = (   0.0625000   0.2500000   0.3750000), wk =   0.0117188
        k(   94) = (   0.0625000   0.2500000   0.4375000), wk =   0.0117188
        k(   95) = (   0.0625000   0.2500000  -0.5000000), wk =   0.0117188
        k(   96) = (   0.0625000   0.2500000  -0.4375000), wk =   0.0117188
        k(   97) = (   0.0625000   0.2500000  -0.3750000), wk =   0.0117188
        k(   98) = (   0.0625000   0.2500000  -0.3125000), wk =   0.0117188
        k(   99) = (   0.0625000   0.2500000  -0.2500000), wk =   0.0117188
        k(  100) = (   0.0625000   0.2500000  -0.1875000), wk =   0.0058594
        k(  101) = (   0.0625000   0.3125000   0.3750000), wk =   0.0058594
        k(  102) = (   0.0625000   0.3125000   0.4375000), wk =   0.0117188
        k(  103) = (   0.0625000   0.3125000  -0.5000000), wk =   0.0117188
        k(  104) = (   0.0625000   0.3125000  -0.4375000), wk =   0.0117188
        k(  105) = (   0.0625000   0.3125000  -0.3750000), wk =   0.0117188
        k(  106) = (   0.0625000   0.3125000  -0.3125000), wk =   0.0117188
        k(  107) = (   0.0625000   0.3125000  -0.2500000), wk =   0.0058594
        k(  108) = (   0.0625000   0.3750000   0.4375000), wk =   0.0058594
        k(  109) = (   0.0625000   0.3750000  -0.5000000), wk =   0.0117188
        k(  110) = (   0.0625000   0.3750000  -0.4375000), wk =   0.0117188
        k(  111) = (   0.0625000   0.3750000  -0.3750000), wk =   0.0117188
        k(  112) = (   0.0625000   0.3750000  -0.3125000), wk =   0.0058594
        k(  113) = (   0.0625000   0.4375000  -0.5000000), wk =   0.0058594
        k(  114) = (   0.0625000   0.4375000  -0.4375000), wk =   0.0117188
        k(  115) = (   0.0625000   0.4375000  -0.3750000), wk =   0.0058594
        k(  116) = (   0.0625000  -0.5000000  -0.4375000), wk =   0.0029297
        k(  117) = (   0.1250000   0.2500000   0.3750000), wk =   0.0058594
        k(  118) = (   0.1250000   0.2500000   0.4375000), wk =   0.0117188
        k(  119) = (   0.1250000   0.2500000  -0.5000000), wk =   0.0117188
        k(  120) = (   0.1250000   0.2500000  -0.4375000), wk =   0.0117188
        k(  121) = (   0.1250000   0.2500000  -0.3750000), wk =   0.0058594
        k(  122) = (   0.1250000   0.3125000   0.4375000), wk =   0.0058594
        k(  123) = (   0.1250000   0.3125000  -0.5000000), wk =   0.0117188
        k(  124) = (   0.1250000   0.3125000  -0.4375000), wk =   0.0117188
        k(  125) = (   0.1250000   0.3125000  -0.3750000), wk =   0.0117188
        k(  126) = (   0.1250000   0.3125000  -0.3125000), wk =   0.0117188
        k(  127) = (   0.1250000   0.3125000  -0.2500000), wk =   0.0117188
        k(  128) = (   0.1250000   0.3125000  -0.1875000), wk =   0.0058594
        k(  129) = (   0.1250000   0.3750000  -0.5000000), wk =   0.0058594
        k(  130) = (   0.1250000   0.3750000  -0.4375000), wk =   0.0117188
        k(  131) = (   0.1250000   0.3750000  -0.3750000), wk =   0.0117188
        k(  132) = (   0.1250000   0.3750000  -0.3125000), wk =   0.0117188
        k(  133) = (   0.1250000   0.3750000  -0.2500000), wk =   0.0058594
        k(  134) = (   0.1250000   0.4375000  -0.4375000), wk =   0.0058594
        k(  135) = (   0.1250000   0.4375000  -0.3750000), wk =   0.0117188
        k(  136) = (   0.1250000   0.4375000  -0.3125000), wk =   0.0058594
        k(  137) = (   0.1250000  -0.5000000  -0.3750000), wk =   0.0029297
        k(  138) = (   0.1875000   0.3750000  -0.4375000), wk =   0.0058594
        k(  139) = (   0.1875000   0.3750000  -0.3750000), wk =   0.0117188
        k(  140) = (   0.1875000   0.3750000  -0.3125000), wk =   0.0058594
        k(  141) = (   0.1875000   0.4375000  -0.3750000), wk =   0.0058594
        k(  142) = (   0.1875000   0.4375000  -0.3125000), wk =   0.0117188
        k(  143) = (   0.1875000   0.4375000  -0.2500000), wk =   0.0058594
        k(  144) = (   0.1875000  -0.5000000  -0.3125000), wk =   0.0029297
        k(  145) = (   0.2500000  -0.5000000  -0.2500000), wk =   0.0014648

     Dense  grid:     3287 G-vectors     FFT dimensions: (  24,  24,  24)

     Dynamical RAM for                 wfc:       0.01 MB

     Dynamical RAM for     wfc (w. buffer):       3.60 MB

     Dynamical RAM for           str. fact:       0.01 MB

     Dynamical RAM for           local pot:       0.00 MB

     Dynamical RAM for          nlocal pot:       0.02 MB

     Dynamical RAM for                qrad:       1.66 MB

     Dynamical RAM for          rho,v,vnew:       0.19 MB

     Dynamical RAM for               rhoin:       0.06 MB

     Dynamical RAM for            rho*nmix:       0.32 MB

     Dynamical RAM for           G-vectors:       0.04 MB

     Dynamical RAM for          h,s,v(r/c):       0.07 MB

     Dynamical RAM for          <psi|beta>:       0.00 MB

     Dynamical RAM for                 psi:       0.05 MB

     Dynamical RAM for                hpsi:       0.05 MB

     Dynamical RAM for                spsi:       0.05 MB

     Dynamical RAM for      wfcinit/wfcrot:       0.03 MB

     Dynamical RAM for           addusdens:       1.88 MB

     Dynamical RAM for          addusforce:       1.89 MB

     Dynamical RAM for         addusstress:       2.03 MB

     Estimated static dynamical RAM per process >       6.06 MB

     Estimated max dynamical RAM per process >       8.09 MB

     Estimated total dynamical RAM >      40.44 MB
     Generating pointlists ...
     new r_m :   0.4125 (alat units)  1.9926 (a.u.) for type    1

     Initial potential from superposition of free atoms

     starting charge   10.98818, renormalised to   11.00000
     Starting wfcs are    9 randomized atomic wfcs +    1 random wfcs

     total cpu time spent up to now is       10.4 secs

     Self-consistent Calculation

     iteration #  1     ecut=    45.00 Ry     beta= 0.70
     Davidson diagonalization with overlap
     ethr =  1.00E-02,  avg # of iterations =  3.9

     total cpu time spent up to now is       46.0 secs

     total energy              =    -121.39940300 Ry
     Harris-Foulkes estimate   =    -121.50182087 Ry
     estimated scf accuracy    <       0.16889875 Ry

     total magnetization       =     0.15 Bohr mag/cell
     absolute magnetization    =     0.16 Bohr mag/cell

     iteration #  2     ecut=    45.00 Ry     beta= 0.70
     Davidson diagonalization with overlap
     ethr =  1.54E-03,  avg # of iterations =  2.0

     total cpu time spent up to now is       74.8 secs

     total energy              =    -121.42065098 Ry
     Harris-Foulkes estimate   =    -121.59411267 Ry
     estimated scf accuracy    <       0.42828669 Ry

     total magnetization       =     0.02 Bohr mag/cell
     absolute magnetization    =     0.03 Bohr mag/cell

     iteration #  3     ecut=    45.00 Ry     beta= 0.70
     Davidson diagonalization with overlap
     ethr =  1.54E-03,  avg # of iterations =  2.0

     total cpu time spent up to now is      104.2 secs

     total energy              =    -121.48886051 Ry
     Harris-Foulkes estimate   =    -121.48785532 Ry
     estimated scf accuracy    <       0.00342647 Ry

     total magnetization       =     0.03 Bohr mag/cell
     absolute magnetization    =     0.04 Bohr mag/cell

     iteration #  4     ecut=    45.00 Ry     beta= 0.70
     Davidson diagonalization with overlap
     ethr =  3.11E-05,  avg # of iterations =  2.4

     total cpu time spent up to now is      130.5 secs

     total energy              =    -121.48917294 Ry
     Harris-Foulkes estimate   =    -121.48953854 Ry
     estimated scf accuracy    <       0.00087123 Ry

     total magnetization       =    -0.00 Bohr mag/cell
     absolute magnetization    =     0.01 Bohr mag/cell

     iteration #  5     ecut=    45.00 Ry     beta= 0.70
     Davidson diagonalization with overlap
     ethr =  7.92E-06,  avg # of iterations =  1.5

     total cpu time spent up to now is      155.5 secs

     total energy              =    -121.48935940 Ry
     Harris-Foulkes estimate   =    -121.48936641 Ry
     estimated scf accuracy    <       0.00001834 Ry

     total magnetization       =    -0.00 Bohr mag/cell
     absolute magnetization    =     0.00 Bohr mag/cell

     iteration #  6     ecut=    45.00 Ry     beta= 0.70
     Davidson diagonalization with overlap
     ethr =  1.67E-07,  avg # of iterations =  2.5

     total cpu time spent up to now is      191.2 secs

     total energy              =    -121.48936584 Ry
     Harris-Foulkes estimate   =    -121.48936619 Ry
     estimated scf accuracy    <       0.00000140 Ry

     total magnetization       =     0.00 Bohr mag/cell
     absolute magnetization    =     0.00 Bohr mag/cell

     iteration #  7     ecut=    45.00 Ry     beta= 0.70
     Davidson diagonalization with overlap
     ethr =  1.28E-08,  avg # of iterations =  1.5

     total cpu time spent up to now is      219.5 secs

     total energy              =    -121.48936605 Ry
     Harris-Foulkes estimate   =    -121.48936605 Ry
     estimated scf accuracy    <       0.00000003 Ry

     total magnetization       =    -0.00 Bohr mag/cell
     absolute magnetization    =     0.00 Bohr mag/cell

     iteration #  8     ecut=    45.00 Ry     beta= 0.70
     Davidson diagonalization with overlap
     ethr =  3.13E-10,  avg # of iterations =  2.5
 
     Magnetic moment per site:
     atom:    1    charge:    9.8326    magn:    0.0000    constr:    0.0000

     total cpu time spent up to now is      246.9 secs

     End of self-consistent calculation

 ------ SPIN UP ------------


          k = 0.0000 0.0000 0.0000 (   411 PWs)   bands (ev):

     3.2377   9.6223   9.6223   9.6223  10.4415  10.4415  35.2859  37.8644
    37.8644  37.8644

     occupation numbers 
     1.0000   1.0000   1.0000   1.0000   1.0000   1.0000   0.0000   0.0000
     0.0000   0.0000

          k = 0.0442 0.0442 0.0442 (   405 PWs)   bands (ev):

     3.3800   9.5918   9.6493   9.6493  10.4308  10.4308  34.3870  36.3795
    37.4202  37.4202

     occupation numbers 
     1.0000   1.0000   1.0000   1.0000   1.0000   1.0000   0.0000   0.0000
     0.0000   0.0000

          k = 0.0884 0.0884 0.0884 (   402 PWs)   bands (ev):

     3.8010   9.5113   9.7159   9.7159  10.4124  10.4124  31.4304  35.8889
    36.6577  36.6577

     occupation numbers 
     1.0000   1.0000   1.0000   1.0000   1.0000   1.0000   0.0000   0.0000
     0.0000   0.0000

          k = 0.1326 0.1326 0.1326 (   402 PWs)   bands (ev):

     4.4793   9.4141   9.7761   9.7761  10.4292  10.4292  28.1825  35.5800
    35.9700  35.9700

     occupation numbers 
     1.0000   1.0000   1.0000   1.0000   1.0000   1.0000   0.0000   0.0000
     0.0000   0.0000

          k = 0.1768 0.1768 0.1768 (   401 PWs)   bands (ev):

     5.3629   9.3633   9.7762   9.7762  10.5275  10.5275  25.0554  35.1398
    35.4328  35.4328

     occupation numbers 
     1.0000   1.0000   1.0000   1.0000   1.0000   1.0000   0.0000   0.0000
     0.0000   0.0000

          k = 0.2210 0.2210 0.2210 (   401 PWs)   bands (ev):

     6.3237   9.4856   9.7215   9.7215  10.6893  10.6893  22.1371  34.6294
    35.0545  35.0545

     occupation numbers 
     1.0000   1.0000   1.0000   1.0000   1.0000   1.0000   0.0000   0.0000
     0.0000   0.0000

          k = 0.2652 0.2652 0.2652 (   407 PWs)   bands (ev):

     7.0917   9.6534   9.6534  10.0099  10.8555  10.8555  19.5093  34.1707
    34.8233  34.8233

     occupation numbers 
     1.0000   1.0000   1.0000   1.0000   1.0000   1.0000   0.0000   0.0000
     0.0000   0.0000

          k = 0.3094 0.3094 0.3094 (   407 PWs)   bands (ev):

     7.4615   9.6021   9.6021  10.9695  10.9762  10.9762  17.3693  33.8598
    34.7120  34.7120

     occupation numbers 
     1.0000   1.0000   1.0000   1.0000   1.0000   1.0000   0.0000   0.0000
     0.0000   0.0000

          k =-0.3536-0.3536-0.3536 (   410 PWs)   bands (ev):

     7.5527   9.5834   9.5834  11.0201  11.0201  11.5882  16.3876  33.7505
    34.6820  34.6821

     occupation numbers 
     1.0000   1.0000   1.0000   1.0000   1.0000   1.0000   0.0000   0.0000
     0.0000   0.0000

          k = 0.0000 0.0000 0.0884 (   407 PWs)   bands (ev):

     3.4273   9.5658   9.6673   9.6673  10.3905  10.4621  34.6644  36.2190
    36.2190  37.1166

     occupation numbers 
     1.0000   1.0000   1.0000   1.0000   1.0000   1.0000   0.0000   0.0000
     0.0000   0.0000

          k = 0.0442 0.0442 0.1326 (   397 PWs)   bands (ev):

     3.7552   9.4918   9.7277   9.7308  10.3376  10.4775  32.5787  35.1554
    35.1739  37.6520

     occupation numbers 
     1.0000   1.0000   1.0000   1.0000   1.0000   1.0000   0.0000   0.0000
     0.0000   0.0000

          k = 0.0884 0.0884 0.1768 (   402 PWs)   bands (ev):

     4.3481   9.3931   9.7930   9.8007  10.3152  10.5078  29.3552  34.2944
    34.6968  38.6056

     occupation numbers 
     1.0000   1.0000   1.0000   1.0000   1.0000   1.0000   0.0000   0.0000
     0.0000   0.0000

          k = 0.1326 0.1326 0.2210 (   400 PWs)   bands (ev):

     5.1666   9.3121   9.7916   9.8252  10.4032  10.5941  26.1764  33.6545
    34.2602  37.9324

     occupation numbers 
     1.0000   1.0000   1.0000   1.0000   1.0000   1.0000   0.0000   0.0000
     0.0000   0.0000

          k = 0.1768 0.1768 0.2652 (   405 PWs)   bands (ev):

     6.1157   9.3355   9.7195   9.7902  10.6118  10.7362  23.1796  33.2485
    33.8542  36.4203

     occupation numbers 
     1.0000   1.0000   1.0000   1.0000   1.0000   1.0000   0.0000   0.0000
     0.0000   0.0000

          k = 0.2210 0.2210 0.3094 (   407 PWs)   bands (ev):

     6.9727   9.6044   9.6501   9.7263  10.8857  10.9136  20.4364  33.0923
    33.4806  35.1561

     occupation numbers 
     1.0000   1.0000   1.0000   1.0000   1.0000   1.0000   0.0000   0.0000
     0.0000   0.0000

          k = 0.2652 0.2652 0.3536 (   412 PWs)   bands (ev):

     7.4622   9.5630   9.6664  10.1872  10.9924  11.4145  18.0772  33.0727
    33.2058  34.3051

     occupation numbers 
     1.0000   1.0000   1.0000   1.0000   1.0000   1.0000   0.0000   0.0000
     0.0000   0.0000

          k =-0.3977-0.3977-0.3094 (   403 PWs)   bands (ev):

     7.6208   9.5338   9.6315  10.5316  11.0230  12.1034  16.5482  32.5554
    33.6065  34.0139

     occupation numbers 
     1.0000   1.0000   1.0000   1.0000   1.0000   1.0001   0.0000   0.0000
     0.0000   0.0000

          k =-0.3536-0.3536-0.2652 (   406 PWs)   bands (ev):

     7.5934   9.5469   9.6321  10.4950  10.9654  11.9269  16.9065  32.0995
    34.1557  34.2984

     occupation numbers 
     1.0000   1.0000   1.0000   1.0000   1.0000   1.0000   0.0000   0.0000
     0.0000   0.0000

          k =-0.3094-0.3094-0.2210 (   408 PWs)   bands (ev):

     7.3464   9.5982   9.6695  10.0295  10.8291  11.3067  18.8079  31.8483
    34.5944  35.2540

     occupation numbers 
     1.0000   1.0000   1.0000   1.0000   1.0000   1.0000   0.0000   0.0000
     0.0000   0.0000

          k =-0.2652-0.2652-0.1768 (   405 PWs)   bands (ev):

     6.7189   9.5044   9.6740   9.7347  10.6429  10.9753  21.3196  31.8327
    35.2593  36.3574

     occupation numbers 
     1.0000   1.0000   1.0000   1.0000   1.0000   1.0000   0.0000   0.0000
     0.0000   0.0000

          k =-0.2210-0.2210-0.1326 (   404 PWs)   bands (ev):

     5.7958   9.3205   9.7491   9.8040  10.4535  10.7503  24.1563  32.0457
    36.0519  37.2737

     occupation numbers 
     1.0000   1.0000   1.0000   1.0000   1.0000   1.0000   0.0000   0.0000
     0.0000   0.0000

          k =-0.1768-0.1768-0.0884 (   400 PWs)   bands (ev):

     4.8729   9.3453   9.7889   9.8269  10.3311  10.5826  27.2207  32.4728
    36.7668  37.8671

     occupation numbers 
     1.0000   1.0000   1.0000   1.0000   1.0000   1.0000   0.0000   0.0000
     0.0000   0.0000

          k =-0.1326-0.1326-0.0442 (   397 PWs)   bands (ev):

     4.1226   9.4406   9.7660   9.7678  10.3246  10.4902  30.4303  33.1170
    37.0861  38.3561

     occupation numbers 
     1.0000   1.0000   1.0000   1.0000   1.0000   1.0000   0.0000   0.0000
     0.0000   0.0000

          k =-0.0884-0.0884 0.0000 (   403 PWs)   bands (ev):

     3.6152   9.5360   9.6884   9.7016  10.3780  10.4551  33.2799  34.3496
    36.9704  38.3981

     occupation numbers 
     1.0000   1.0000   1.0000   1.0000   1.0000   1.0000   0.0000   0.0000
     0.0000   0.0000

          k = 0.0000 0.0000 0.1768 (   399 PWs)   bands (ev):

     3.9869   9.4064   9.8002   9.8002  10.2513  10.5210  33.5218  33.8845
    33.8845  35.6153

     occupation numbers 
     1.0000   1.0000   1.0000   1.0000   1.0000   1.0000   0.0000   0.0000
     0.0000   0.0000

          k = 0.0442 0.0442 0.2210 (   401 PWs)   bands (ev):

     4.4845   9.2971   9.8741   9.8895  10.1996  10.5640  30.6999  32.8580
    33.7905  35.9844

     occupation numbers 
     1.0000   1.0000   1.0000   1.0000   1.0000   1.0000   0.0000   0.0000
     0.0000   0.0000

          k = 0.0884 0.0884 0.2652 (   400 PWs)   bands (ev):

     5.2173   9.1916   9.8288   9.9450  10.3244  10.6443  27.5020  32.0867
    33.3618  35.8620

     occupation numbers 
     1.0000   1.0000   1.0000   1.0000   1.0000   1.0000   0.0000   0.0000
     0.0000   0.0000

          k = 0.1326 0.1326 0.3094 (   399 PWs)   bands (ev):

     6.1121   9.1386   9.7040   9.9361  10.6190  10.7741  24.4411  31.5844
    32.8171  34.5964

     occupation numbers 
     1.0000   1.0000   1.0000   1.0000   1.0000   1.0000   0.0000   0.0000
     0.0000   0.0000

          k = 0.1768 0.1768 0.3536 (   397 PWs)   bands (ev):

     6.9963   9.2222   9.5901   9.8831  10.9134  11.0671  21.5963  31.3689
    32.0047  33.7130

     occupation numbers 
     1.0000   1.0000   1.0000   1.0000   1.0000   1.0000   0.0000   0.0000
     0.0000   0.0000

          k = 0.2210 0.2210 0.3977 (   408 PWs)   bands (ev):

     7.5844   9.3882   9.6542   9.8197  11.0109  11.7739  19.0538  30.9893
    31.4602  33.3788

     occupation numbers 
     1.0000   1.0000   1.0000   1.0000   1.0000   1.0000   0.0000   0.0000
     0.0000   0.0000

          k =-0.4419-0.4419-0.2652 (   405 PWs)   bands (ev):

     7.8103   9.3808   9.7711   9.9560  11.0315  12.7471  17.0655  30.0651
    31.8743  33.3841

     occupation numbers 
     1.0000   1.0000   1.0000   1.0000   1.0000   0.0156   0.0000   0.0000
     0.0000   0.0000

          k =-0.3977-0.3977-0.2210 (   404 PWs)   bands (ev):

     7.8391   9.3933   9.7522  10.0419  10.9626  13.0245  16.6750  29.3619
    32.6171  33.6584

     occupation numbers 
     1.0000   1.0000   1.0000   1.0000   1.0000   0.0000   0.0000   0.0000
     0.0000   0.0000

          k =-0.3536-0.3536-0.1768 (   406 PWs)   bands (ev):

     7.7037   9.4534   9.7701   9.8087  10.8129  12.1950  18.3186  28.9203
    33.6812  34.2006

     occupation numbers 
     1.0000   1.0000   1.0000   1.0000   1.0000   1.0024   0.0000   0.0000
     0.0000   0.0000

          k =-0.3094-0.3094-0.1326 (   404 PWs)   bands (ev):

     7.2536   9.4157   9.5515   9.8234  10.6082  11.5141  20.7259  28.7489
    35.0170  35.0469

     occupation numbers 
     1.0000   1.0000   1.0000   1.0000   1.0000   1.0000   0.0000   0.0000
     0.0000   0.0000

          k =-0.2652-0.2652-0.0884 (   402 PWs)   bands (ev):

     6.4308   9.2250   9.6617   9.8998  10.3881  11.1046  23.4818  28.8418
    36.1021  36.6865

     occupation numbers 
     1.0000   1.0000   1.0000   1.0000   1.0000   1.0000   0.0000   0.0000
     0.0000   0.0000

          k =-0.2210-0.2210-0.0442 (   396 PWs)   bands (ev):

     5.5059   9.2373   9.7543   9.9512  10.2236  10.8180  26.4691  29.1950
    37.4172  38.5662

     occupation numbers 
     1.0000   1.0000   1.0000   1.0000   1.0000   1.0000   0.0000   0.0000
     0.0000   0.0000

          k =-0.1768-0.1768 0.0000 (   399 PWs)   bands (ev):

     4.7042   9.3327   9.7937   9.8741  10.2334  10.6143  29.3556  30.0736
    38.0797  39.1429

     occupation numbers 
     1.0000   1.0000   1.0000   1.0000   1.0000   1.0000   0.0000   0.0000
     0.0000   0.0000

          k =-0.0000-0.0000 0.2652 (   407 PWs)   bands (ev):

     4.8799   9.1718  10.0124  10.0124  10.0731  10.6097  31.6750  31.6750
    32.4543  33.7903

     occupation numbers 
     1.0000   1.0000   1.0000   1.0000   1.0000   1.0000   0.0000   0.0000
     0.0000   0.0000

          k = 0.0442 0.0442 0.3094 (   404 PWs)   bands (ev):

     5.5069   9.0460   9.9031  10.1143  10.2624  10.6781  28.9498  30.7613
    32.4060  33.3957

     occupation numbers 
     1.0000   1.0000   1.0000   1.0000   1.0000   1.0000   0.0000   0.0000
     0.0000   0.0000

          k = 0.0884 0.0884 0.3536 (   405 PWs)   bands (ev):

     6.3033   8.9500   9.7399  10.1434  10.6232  10.7969  25.8910  30.1364
    31.2692  33.0838

     occupation numbers 
     1.0000   1.0000   1.0000   1.0000   1.0000   1.0000   0.0000   0.0000
     0.0000   0.0000

          k = 0.1326 0.1326 0.3977 (   409 PWs)   bands (ev):

     7.1342   8.9263   9.5972  10.1085  10.9328  11.1754  22.9806  29.8220
    29.8922  32.8042

     occupation numbers 
     1.0000   1.0000   1.0000   1.0000   1.0000   1.0000   0.0000   0.0000
     0.0000   0.0000

          k = 0.1768 0.1768 0.4419 (   406 PWs)   bands (ev):

     7.7637   9.0084   9.5340  10.0472  11.0281  12.0320  20.3058  28.6107
    29.8382  32.6942

     occupation numbers 
     1.0000   1.0000   1.0000   1.0000   1.0000   1.0000   0.0000   0.0000
     0.0000   0.0000

          k =-0.4861-0.4861-0.2210 (   409 PWs)   bands (ev):

     8.0577   9.0972   9.6190   9.9881  11.0447  13.2404  17.9947  27.5305
    30.1974  32.7629

     occupation numbers 
     1.0000   1.0000   1.0000   1.0000   1.0000   0.0000   0.0000   0.0000
     0.0000   0.0000

          k =-0.4419-0.4419-0.1768 (   403 PWs)   bands (ev):

     8.1453   9.1442   9.7007   9.9492  10.9697  14.1792  16.7288  26.6939
    30.8985  33.0331

     occupation numbers 
     1.0000   1.0000   1.0000   1.0000   1.0000   0.0000   0.0000   0.0000
     0.0000   0.0000

          k =-0.3977-0.3977-0.1326 (   406 PWs)   bands (ev):

     8.1055   9.2238   9.5874   9.9414  10.8129  13.3499  18.0214  26.1251
    31.9249  33.5318

     occupation numbers 
     1.0000   1.0000   1.0000   1.0000   1.0000   0.0000   0.0000   0.0000
     0.0000   0.0000

          k =-0.3536-0.3536-0.0884 (   408 PWs)   bands (ev):

     7.8412   9.2953   9.3658   9.9688  10.5997  12.3043  20.3446  25.8369
    33.2472  34.2797

     occupation numbers 
     1.0000   1.0000   1.0000   1.0000   1.0000   1.0343   0.0000   0.0000
     0.0000   0.0000

          k =-0.3094-0.3094-0.0442 (   406 PWs)   bands (ev):

     7.1901   9.1341   9.5082  10.0297  10.3637  11.6107  23.0114  25.8397
    34.8284  35.2811

     occupation numbers 
     1.0000   1.0000   1.0000   1.0000   1.0000   1.0000   0.0000   0.0000
     0.0000   0.0000

          k =-0.2652-0.2652 0.0000 (   397 PWs)   bands (ev):

     6.3224   9.1442   9.6524  10.1120  10.1441  11.1510  25.6430  26.3893
    36.4859  36.6251

     occupation numbers 
     1.0000   1.0000   1.0000   1.0000   1.0000   1.0000   0.0000   0.0000
     0.0000   0.0000

          k = 0.0000 0.0000 0.3536 (   415 PWs)   bands (ev):

     6.0055   8.9010   9.9761  10.2866  10.2866  10.7152  29.7045  29.7045
    30.9522  31.5972

     occupation numbers 
     1.0000   1.0000   1.0000   1.0000   1.0000   1.0000   0.0000   0.0000
     0.0000   0.0000

          k = 0.0442 0.0442 0.3977 (   411 PWs)   bands (ev):

     6.6487   8.7797   9.9154  10.3821  10.5948  10.8046  27.3906  28.9441
    29.3284  31.9966

     occupation numbers 
     1.0000   1.0000   1.0000   1.0000   1.0000   1.0000   0.0000   0.0000
     0.0000   0.0000

          k = 0.0884 0.0884 0.4419 (   410 PWs)   bands (ev):

     7.3192   8.7084   9.7997  10.3767  10.9394  11.2122  24.5428  27.7492
    28.5089  32.1337

     occupation numbers 
     1.0000   1.0000   1.0000   1.0000   1.0000   1.0000   0.0000   0.0000
     0.0000   0.0000

          k = 0.1326 0.1326 0.4861 (   412 PWs)   bands (ev):

     7.8631   8.7089   9.6972  10.3231  11.0411  12.1954  21.8110  26.3494
    28.4237  32.1357

     occupation numbers 
     1.0000   1.0000   1.0000   1.0000   1.0000   1.0025   0.0000   0.0000
     0.0000   0.0000

          k =-0.5303-0.5303-0.1768 (   412 PWs)   bands (ev):

     8.1959   8.7711   9.6359  10.2577  11.0613  13.5649  19.3225  25.1730
    28.7011  32.2209

     occupation numbers 
     1.0000   1.0000   1.0000   1.0000   1.0000   0.0000   0.0000   0.0000
     0.0000   0.0000

          k =-0.4861-0.4861-0.1326 (   407 PWs)   bands (ev):

     8.3739   8.8478   9.5871  10.1994  10.9879  15.1034  17.3230  24.2432
    29.3361  32.4534

     occupation numbers 
     1.0000   1.0000   1.0000   1.0000   1.0000   0.0000   0.0000   0.0000
     0.0000   0.0000

          k =-0.4419-0.4419-0.0884 (   408 PWs)   bands (ev):

     8.4458   8.9506   9.4657  10.1585  10.8350  14.7528  17.8715  23.5835
    30.3055  32.8682

     occupation numbers 
     1.0000   1.0000   1.0000   1.0000   1.0000   0.0000   0.0000   0.0000
     0.0000   0.0000

          k =-0.3977-0.3977-0.0442 (   406 PWs)   bands (ev):

     8.3483   9.1120   9.2512  10.1363  10.6367  13.3786  20.0983  23.2330
    31.5730  33.4879

     occupation numbers 
     1.0000   1.0000   1.0000   1.0000   1.0000   0.0000   0.0000   0.0000
     0.0000   0.0000

          k =-0.3536-0.3536 0.0000 (   407 PWs)   bands (ev):

     7.9127   9.1124   9.3142  10.1133  10.4492  12.3320  22.3236  23.5121
    33.0964  34.3128

     occupation numbers 
     1.0000   1.0000   1.0000   1.0000   1.0000   1.0524   0.0000   0.0000
     0.0000   0.0000

          k = 0.0000 0.0000 0.4419 (   419 PWs)   bands (ev):

     7.0731   8.6364  10.2665  10.5915  10.5915  10.8218  27.4294  28.0447
    28.0447  30.9614

     occupation numbers 
     1.0000   1.0000   1.0000   1.0000   1.0000   1.0000   0.0000   0.0000
     0.0000   0.0000

          k = 0.0442 0.0442 0.4861 (   412 PWs)   bands (ev):

     7.4853   8.5387  10.3126  10.6511  10.9303  11.1860  25.7241  26.1612
    27.4761  31.3518

     occupation numbers 
     1.0000   1.0000   1.0000   1.0000   1.0000   1.0000   0.0000   0.0000
     0.0000   0.0000

          k = 0.0884 0.0884 0.5303 (   416 PWs)   bands (ev):

     7.8276   8.5045  10.1725  10.6100  11.0476  12.3040  23.4927  24.3227
    27.2710  31.6316

     occupation numbers 
     1.0000   1.0000   1.0000   1.0000   1.0000   1.0341   0.0000   0.0000
     0.0000   0.0000

          k =-0.5745-0.5745-0.1326 (   410 PWs)   bands (ev):

     8.0974   8.5368   9.9991  10.5433  11.0807  13.7743  20.9684  23.0896
    27.4468  31.7726

     occupation numbers 
     1.0000   1.0000   1.0000   1.0000   1.0000   0.0000   0.0000   0.0000
     0.0000   0.0000

          k =-0.5303-0.5303-0.0884 (   410 PWs)   bands (ev):

     8.3246   8.6150   9.8013  10.4676  11.0183  15.5146  18.6716  22.1314
    27.9988  31.9796

     occupation numbers 
     1.0000   1.0000   1.0000   1.0000   1.0000   0.0000   0.0000   0.0000
     0.0000   0.0000

          k =-0.4861-0.4861-0.0442 (   403 PWs)   bands (ev):

     8.5266   8.7139   9.5727  10.3846  10.8862  16.3974  17.7087  21.5058
    28.8994  32.3188

     occupation numbers 
     1.0000   1.0000   1.0000   1.0000   1.0000   0.0000   0.0000   0.0000
     0.0000   0.0000

          k =-0.4419-0.4419-0.0000 (   403 PWs)   bands (ev):

     8.5938   8.8790   9.3417  10.2806  10.7385  14.7714  19.4166  21.5524
    30.1067  32.8197

     occupation numbers 
     1.0000   1.0000   1.0000   1.0000   1.0000   0.0000   0.0000   0.0000
     0.0000   0.0000

          k =-0.0000-0.0000 0.5303 (   416 PWs)   bands (ev):

     7.6237   8.4167  10.8795  10.8795  10.9129  11.3824  24.0246  26.7701
    26.7701  30.5292

     occupation numbers 
     1.0000   1.0000   1.0000   1.0000   1.0000   1.0000   0.0000   0.0000
     0.0000   0.0000

          k = 0.0442 0.0442 0.5745 (   411 PWs)   bands (ev):

     7.7619   8.3575  10.7739  10.8569  11.0503  12.4896  22.5469  25.1849
    26.4329  30.9605

     occupation numbers 
     1.0000   1.0000   1.0000   1.0000   1.0000   0.9065   0.0000   0.0000
     0.0000   0.0000

          k =-0.6187-0.6187-0.0884 (   413 PWs)   bands (ev):

     7.9215   8.3704  10.5253  10.7945  11.1050  13.9236  21.3567  22.8462
    26.4907  31.3594

     occupation numbers 
     1.0000   1.0000   1.0000   1.0000   1.0000   0.0000   0.0000   0.0000
     0.0000   0.0000

          k =-0.5745-0.5745-0.0442 (   409 PWs)   bands (ev):

     8.1125   8.4495  10.2166  10.7066  11.0630  15.5104  20.3384  20.7358
    26.9428  31.6072

     occupation numbers 
     1.0000   1.0000   1.0000   1.0000   1.0000   0.0000   0.0000   0.0000
     0.0000   0.0000

          k =-0.5303-0.5303 0.0000 (   409 PWs)   bands (ev):

     8.3332   8.5713   9.8763  10.5750  10.9703  16.9419  18.3446  20.4494
    27.7610  31.9050

     occupation numbers 
     1.0000   1.0000   1.0000   1.0000   1.0000   0.0000   0.0000   0.0000
     0.0000   0.0000

          k = 0.0000 0.0000 0.6187 (   404 PWs)   bands (ev):

     7.7429   8.2723  10.9743  11.0903  11.0903  13.0615  21.1373  25.9598
    25.9598  30.2796

     occupation numbers 
     1.0000   1.0000   1.0000   1.0000   1.0000   0.0000   0.0000   0.0000
     0.0000   0.0000

          k =-0.6629-0.6629-0.0442 (   409 PWs)   bands (ev):

     7.7949   8.2607  10.9520  10.9838  11.1418  14.0370  20.1739  24.6863
    25.8874  30.7732

     occupation numbers 
     1.0000   1.0000   1.0000   1.0000   1.0000   0.0000   0.0000   0.0000
     0.0000   0.0000

          k =-0.6187-0.6187-0.0000 (   412 PWs)   bands (ev):

     7.9212   8.3240  10.6494  10.8695  11.1179  14.9969  19.8728  22.6109
    26.2233  31.2724

     occupation numbers 
     1.0000   1.0000   1.0000   1.0000   1.0000   0.0000   0.0000   0.0000
     0.0000   0.0000

          k = 0.0000 0.0000-0.7071 (   412 PWs)   bands (ev):

     7.7507   8.2220  10.9959  11.1683  11.1683  14.0865  19.7353  25.6806
    25.6806  30.1982

     occupation numbers 
     1.0000   1.0000   1.0000   1.0000   1.0000   0.0000   0.0000   0.0000
     0.0000   0.0000

          k =-0.0000 0.0884 0.1768 (   396 PWs)   bands (ev):

     4.1690   9.3977   9.7955   9.8076  10.2702  10.5218  31.4115  32.1885
    36.1538  37.4020

     occupation numbers 
     1.0000   1.0000   1.0000   1.0000   1.0000   1.0000   0.0000   0.0000
     0.0000   0.0000

          k = 0.0442 0.1326 0.2210 (   398 PWs)   bands (ev):

     4.8344   9.2910   9.8115   9.8960  10.2540  10.6149  28.4659  31.1444
    36.0057  37.7082

     occupation numbers 
     1.0000   1.0000   1.0000   1.0000   1.0000   1.0000   0.0000   0.0000
     0.0000   0.0000

          k = 0.0884 0.1768 0.2652 (   398 PWs)   bands (ev):

     5.6980   9.2188   9.7445   9.9078  10.3797  10.7882  25.3514  30.6259
    35.2571  36.7216

     occupation numbers 
     1.0000   1.0000   1.0000   1.0000   1.0000   1.0000   0.0000   0.0000
     0.0000   0.0000

          k = 0.1326 0.2210 0.3094 (   405 PWs)   bands (ev):

     6.6297   9.2686   9.6386   9.8539  10.6035  11.0480  22.4283  30.3515
    34.1778  35.8112

     occupation numbers 
     1.0000   1.0000   1.0000   1.0000   1.0000   1.0000   0.0000   0.0000
     0.0000   0.0000

          k = 0.1768 0.2652 0.3536 (   405 PWs)   bands (ev):

     7.3598   9.5009   9.6013   9.7905  10.8224  11.4777  19.7769  30.3247
    33.0160  35.2378

     occupation numbers 
     1.0000   1.0000   1.0000   1.0000   1.0000   1.0000   0.0000   0.0000
     0.0000   0.0000

          k =-0.4861-0.3977-0.3094 (   403 PWs)   bands (ev):

     7.6967   9.4562   9.7313  10.0025  10.9586  12.2428  17.5667  30.5437
    32.0210  34.8976

     occupation numbers 
     1.0000   1.0000   1.0000   1.0000   1.0000   1.0093   0.0000   0.0000
     0.0000   0.0000

          k =-0.4419-0.3536-0.2652 (   402 PWs)   bands (ev):

     7.7766   9.4322   9.7146  10.1701  11.0012  12.8483  16.4889  30.8249
    31.4728  34.7819

     occupation numbers 
     1.0000   1.0000   1.0000   1.0000   1.0000   0.0005   0.0000   0.0000
     0.0000   0.0000

          k = 0.0000 0.0884 0.2652 (   403 PWs)   bands (ev):

     5.0513   9.1785   9.8689  10.0151  10.2006  10.6414  29.6450  30.2132
    34.7435  34.8663

     occupation numbers 
     1.0000   1.0000   1.0000   1.0000   1.0000   1.0000   0.0000   0.0000
     0.0000   0.0000

          k = 0.0442 0.1326 0.3094 (   405 PWs)   bands (ev):

     5.8257   9.0751   9.7499  10.0839  10.3605  10.8055  26.7365  29.3664
    33.4445  35.1189

     occupation numbers 
     1.0000   1.0000   1.0000   1.0000   1.0000   1.0000   0.0000   0.0000
     0.0000   0.0000

          k = 0.0884 0.1768 0.3536 (   404 PWs)   bands (ev):

     6.7072   9.0350   9.6046  10.0548  10.6292  11.0970  23.7548  28.9963
    31.9575  34.8578

     occupation numbers 
     1.0000   1.0000   1.0000   1.0000   1.0000   1.0000   0.0000   0.0000
     0.0000   0.0000

          k = 0.1326 0.2210 0.3977 (   405 PWs)   bands (ev):

     7.4787   9.1230   9.4981   9.9931  10.8594  11.6438  20.9918  28.8931
    30.6023  34.6354

     occupation numbers 
     1.0000   1.0000   1.0000   1.0000   1.0000   1.0000   0.0000   0.0000
     0.0000   0.0000

          k =-0.5303-0.4419-0.2652 (   411 PWs)   bands (ev):

     7.8979   9.2299   9.5828   9.9325  10.9783  12.5854  18.5508  28.9727
    29.5552  34.5756

     occupation numbers 
     1.0000   1.0000   1.0000   1.0000   1.0000   0.4116   0.0000   0.0000
     0.0000   0.0000

          k =-0.4861-0.3977-0.2210 (   404 PWs)   bands (ev):

     8.0302   9.2300   9.7705   9.8878  10.9946  13.6587  16.8119  28.4086
    29.6855  34.7282

     occupation numbers 
     1.0000   1.0000   1.0000   1.0000   1.0000   0.0000   0.0000   0.0000
     0.0000   0.0000

          k =-0.4419-0.3536-0.1768 (   404 PWs)   bands (ev):

     8.0164   9.2599   9.7360   9.8842  10.9234  13.3812  17.2578  27.7773
    30.4310  35.1285

     occupation numbers 
     1.0000   1.0000   1.0000   1.0000   1.0000   0.0000   0.0000   0.0000
     0.0000   0.0000

          k =-0.3977-0.3094-0.1326 (   409 PWs)   bands (ev):

     7.8232   9.3247   9.4798   9.9218  10.7725  12.3290  19.3340  27.4042
    31.4582  35.7899

     occupation numbers 
     1.0000   1.0000   1.0000   1.0000   1.0000   1.0503   0.0000   0.0000
     0.0000   0.0000

          k =-0.3536-0.2652-0.0884 (   408 PWs)   bands (ev):

     7.2749   9.1727   9.4927   9.9837  10.5545  11.5904  21.9012  27.3074
    32.7237  36.6802

     occupation numbers 
     1.0000   1.0000   1.0000   1.0000   1.0000   1.0000   0.0000   0.0000
     0.0000   0.0000

          k =-0.3094-0.2210-0.0442 (   404 PWs)   bands (ev):

     6.4220   9.1152   9.6294  10.0573  10.3171  11.1359  24.7392  27.4896
    34.1919  37.6183

     occupation numbers 
     1.0000   1.0000   1.0000   1.0000   1.0000   1.0000   0.0000   0.0000
     0.0000   0.0000

          k =-0.2652-0.1768 0.0000 (   400 PWs)   bands (ev):

     5.5504   9.1815   9.7505  10.0436  10.1946  10.8241  27.5252  28.1918
    35.7889  37.6016

     occupation numbers 
     1.0000   1.0000   1.0000   1.0000   1.0000   1.0000   0.0000   0.0000
     0.0000   0.0000

          k = 0.0000 0.0884 0.3536 (   407 PWs)   bands (ev):

     6.1593   8.9223   9.8101  10.2867  10.3858  10.8007  28.0354  28.4682
    31.3428  33.5332

     occupation numbers 
     1.0000   1.0000   1.0000   1.0000   1.0000   1.0000   0.0000   0.0000
     0.0000   0.0000

          k = 0.0442 0.1326 0.3977 (   408 PWs)   bands (ev):

     6.9202   8.8379   9.6694  10.3181  10.6501  11.1100  25.2580  27.8152
    29.7264  33.9194

     occupation numbers 
     1.0000   1.0000   1.0000   1.0000   1.0000   1.0000   0.0000   0.0000
     0.0000   0.0000

          k = 0.0884 0.1768 0.4419 (   407 PWs)   bands (ev):

     7.6257   8.8275   9.5430  10.2632  10.8854  11.7610  22.4394  27.5883
    28.2920  33.8959

     occupation numbers 
     1.0000   1.0000   1.0000   1.0000   1.0000   1.0000   0.0000   0.0000
     0.0000   0.0000

          k =-0.5745-0.4861-0.2210 (   407 PWs)   bands (ev):

     8.0835   8.8940   9.4950  10.1912  10.9991  12.8490  19.8532  26.9093
    27.8347  33.9285

     occupation numbers 
     1.0000   1.0000   1.0000   1.0000   1.0000   0.0005   0.0000   0.0000
     0.0000   0.0000

          k =-0.5303-0.4419-0.1768 (   406 PWs)   bands (ev):

     8.2871   8.9497   9.5428  10.1239  11.0060  14.2630  17.6633  25.9147
    28.2418  34.1353

     occupation numbers 
     1.0000   1.0000   1.0000   1.0000   1.0000   0.0000   0.0000   0.0000
     0.0000   0.0000

          k =-0.4861-0.3977-0.1326 (   405 PWs)   bands (ev):

     8.3513   9.0004   9.5322  10.0850  10.9208  14.7241  17.1433  25.1566
    28.9661  34.5696

     occupation numbers 
     1.0000   1.0000   1.0000   1.0000   1.0000   0.0000   0.0000   0.0000
     0.0000   0.0000

          k =-0.4419-0.3536-0.0884 (   408 PWs)   bands (ev):

     8.2814   9.1046   9.3528  10.0941  10.7608  13.4499  19.0843  24.6734
    29.9603  35.2657

     occupation numbers 
     1.0000   1.0000   1.0000   1.0000   1.0000   0.0000   0.0000   0.0000
     0.0000   0.0000

          k =-0.3977-0.3094-0.0442 (   410 PWs)   bands (ev):

     7.9360   9.1034   9.2944  10.1354  10.5479  12.3597  21.5603  24.4916
    31.1889  36.2356

     occupation numbers 
     1.0000   1.0000   1.0000   1.0000   1.0000   1.0708   0.0000   0.0000
     0.0000   0.0000

          k =-0.3536-0.2652 0.0000 (   410 PWs)   bands (ev):

     7.2377   9.0531   9.4671  10.1734  10.3386  11.6301  24.0066  24.8937
    32.6187  37.4151

     occupation numbers 
     1.0000   1.0000   1.0000   1.0000   1.0000   1.0000   0.0000   0.0000
     0.0000   0.0000

          k =-0.0000 0.0884 0.4419 (   413 PWs)   bands (ev):

     7.2036   8.6707   9.9288  10.5904  10.6878  11.0882  26.6379  26.9497
    27.7084  32.6272

     occupation numbers 
     1.0000   1.0000   1.0000   1.0000   1.0000   1.0000   0.0000   0.0000
     0.0000   0.0000

          k = 0.0442 0.1326 0.4861 (   412 PWs)   bands (ev):

     7.7077   8.6190   9.8447  10.5727  10.8927  11.8377  24.0600  26.0265
    26.6417  33.1404

     occupation numbers 
[...]
     0.0000   0.0000

          k = 0.0000 0.0880 0.4400 (   415 PWs)   bands (ev):

     7.0473   8.5012   9.7341  10.3816  10.4774  10.8705  26.2905  26.6050
    27.3379  32.2489

     occupation numbers 
     1.0000   1.0000   1.0000   1.0000   1.0000   1.0000   0.0000   0.0000
     0.0000   0.0000

          k = 0.0440 0.1320 0.4840 (   417 PWs)   bands (ev):

     7.5496   8.4506   9.6519  10.3644  10.6775  11.6113  23.7306  25.6828
    26.2819  32.7482

     occupation numbers 
     1.0000   1.0000   1.0000   1.0000   1.0000   1.0000   0.0000   0.0000
     0.0000   0.0000

          k =-0.6160-0.5280-0.1760 (   413 PWs)   bands (ev):

     7.9202   8.4674   9.5480  10.2806  10.8002  12.8079  21.1203  24.3905
    26.2793  32.8949

     occupation numbers 
     1.0000   1.0000   1.0000   1.0000   1.0000   0.0000   0.0000   0.0000
     0.0000   0.0000

          k =-0.5720-0.4840-0.1320 (   414 PWs)   bands (ev):

     8.1687   8.5263   9.4479  10.1902  10.8137  14.3691  18.7413  23.3116
    26.6361  33.1052

     occupation numbers 
     1.0000   1.0000   1.0000   1.0000   1.0000   0.0000   0.0000   0.0000
     0.0000   0.0000

          k =-0.5280-0.4400-0.0880 (   413 PWs)   bands (ev):

     8.3540   8.5856   9.3271  10.1127  10.7349  15.8420  17.0406  22.4924
    27.3050  33.4862

     occupation numbers 
     1.0000   1.0000   1.0000   1.0000   1.0000   0.0000   0.0000   0.0000
     0.0000   0.0000

          k =-0.4840-0.3960-0.0440 (   412 PWs)   bands (ev):

     8.4349   8.6937   9.1402  10.0648  10.5915  14.5978  18.6172  21.9859
    28.2486  34.0787

     occupation numbers 
     1.0000   1.0000   1.0000   1.0000   1.0000   0.0000   0.0000   0.0000
     0.0000   0.0000

          k =-0.4400-0.3520 0.0000 (   412 PWs)   bands (ev):

     8.2641   8.8930   8.9578  10.0279  10.4313  13.1879  20.6017  22.1334
    29.4260  34.8875

     occupation numbers 
     1.0000   1.0000   1.0000   1.0000   1.0000   0.0000   0.0000   0.0000
     0.0000   0.0000

          k =-0.0000 0.0880 0.5280 (   420 PWs)   bands (ev):

     7.5761   8.2958  10.1592  10.6620  10.6636  11.7490  23.8194  25.1977
    25.5755  31.6381

     occupation numbers 
     1.0000   1.0000   1.0000   1.0000   1.0000   1.0000   0.0000   0.0000
     0.0000   0.0000

          k =-0.6600-0.5720-0.1320 (   417 PWs)   bands (ev):

     7.7913   8.2877  10.0236  10.5564  10.8203  13.0040  22.4621  22.9017
    25.3502  32.2678

     occupation numbers 
     1.0000   1.0000   1.0000   1.0000   1.0000   0.0000   0.0000   0.0000
     0.0000   0.0000

          k =-0.6160-0.5280-0.0880 (   414 PWs)   bands (ev):

     7.9933   8.3447   9.8263  10.4406  10.8552  14.5696  20.4648  21.4169
    25.6200  32.5631

     occupation numbers 
     1.0000   1.0000   1.0000   1.0000   1.0000   0.0000   0.0000   0.0000
     0.0000   0.0000

          k =-0.5720-0.4840-0.0440 (   415 PWs)   bands (ev):

     8.2009   8.4414   9.5829  10.3241  10.7963  16.3170  18.2635  20.6841
    26.2226  32.9084

     occupation numbers 
     1.0000   1.0000   1.0000   1.0000   1.0000   0.0000   0.0000   0.0000
     0.0000   0.0000

          k =-0.5280-0.4400-0.0000 (   410 PWs)   bands (ev):

     8.4165   8.5337   9.3172  10.2049  10.6887  16.2708  17.9540  20.6188
    27.1149  33.4069

     occupation numbers 
     1.0000   1.0000   1.0000   1.0000   1.0000   0.0000   0.0000   0.0000
     0.0000   0.0000

          k =-0.7040-0.6160-0.0880 (   414 PWs)   bands (ev):

     7.6812   8.1605  10.4978  10.7251  10.8706  13.3111  20.9226  24.4900
    24.8495  31.2875

     occupation numbers 
     1.0000   1.0000   1.0000   1.0000   1.0000   0.0000   0.0000   0.0000
     0.0000   0.0000

          k =-0.6600-0.5720-0.0440 (   417 PWs)   bands (ev):

     7.8072   8.2007  10.2769  10.6204  10.9125  14.6075  20.0269  22.4389
    24.8800  32.0375

     occupation numbers 
     1.0000   1.0000   1.0000   1.0000   1.0000   0.0000   0.0000   0.0000
     0.0000   0.0000

          k =-0.6160-0.5280-0.0000 (   418 PWs)   bands (ev):

     7.9851   8.3047   9.9460  10.4913  10.8718  15.7886  19.7221  20.3246
    25.3957  32.4568

     occupation numbers 
     1.0000   1.0000   1.0000   1.0000   1.0000   0.0000   0.0000   0.0000
     0.0000   0.0000

          k =-0.0000 0.0880-0.7040 (   416 PWs)   bands (ev):

     7.6847   8.1134  10.6381  10.7134  10.9473  14.3450  19.4815  24.2439
    24.6012  31.1734

     occupation numbers 
     1.0000   1.0000   1.0000   1.0000   1.0000   0.0000   0.0000   0.0000
     0.0000   0.0000

          k = 0.0000 0.1760 0.3520 (   410 PWs)   bands (ev):

     6.4417   8.8040   9.4191  10.0927  10.1240  10.9160  25.5825  26.2359
    31.4855  36.0413

     occupation numbers 
     1.0000   1.0000   1.0000   1.0000   1.0000   1.0000   0.0000   0.0000
     0.0000   0.0000

          k = 0.0440 0.2200 0.3960 (   412 PWs)   bands (ev):

     7.2386   8.7763   9.2629  10.0420  10.3564  11.4246  22.9563  25.7147
    29.9456  36.3266

     occupation numbers 
     1.0000   1.0000   1.0000   1.0000   1.0000   1.0000   0.0000   0.0000
     0.0000   0.0000

          k =-0.6160-0.4400-0.2640 (   412 PWs)   bands (ev):

     7.8335   8.8509   9.1581   9.9660  10.5745  12.2514  20.3030  25.7201
    28.6084  36.0937

     occupation numbers 
     1.0000   1.0000   1.0000   1.0000   1.0000   0.9274   0.0000   0.0000
     0.0000   0.0000

          k =-0.5720-0.3960-0.2200 (   412 PWs)   bands (ev):

     8.0937   8.8675   9.2613   9.8983  10.7065  13.4728  17.9626  26.0155
    27.5074  35.8845

     occupation numbers 
     1.0000   1.0000   1.0000   1.0000   1.0000   0.0000   0.0000   0.0000
     0.0000   0.0000

          k =-0.5280-0.3520-0.1760 (   414 PWs)   bands (ev):

     8.1553   8.8401   9.3619   9.8653  10.7485  14.4829  16.5840  26.4534
    26.7994  35.8059

     occupation numbers 
     1.0000   1.0000   1.0000   1.0000   1.0000   0.0000   0.0000   0.0000
     0.0000   0.0000

          k =-0.0000 0.1760 0.4400 (   413 PWs)   bands (ev):

     7.4037   8.6005   9.3586  10.3468  10.3814  11.4774  24.2450  24.9448
    27.7349  35.0706

     occupation numbers 
     1.0000   1.0000   1.0000   1.0000   1.0000   1.0000   0.0000   0.0000
     0.0000   0.0000

          k =-0.6600-0.4840-0.2200 (   411 PWs)   bands (ev):

     7.9198   8.6082   9.2362  10.2568  10.6002  12.4073  21.8021  24.6007
    26.3219  35.5906

     occupation numbers 
     1.0000   1.0000   1.0000   1.0000   1.0000   0.1819   0.0000   0.0000
     0.0000   0.0000

          k =-0.6160-0.4400-0.1760 (   410 PWs)   bands (ev):

     8.2238   8.6518   9.1856  10.1522  10.7338  13.7420  19.3308  24.7776
    25.1711  35.7442

     occupation numbers 
     1.0000   1.0000   1.0000   1.0000   1.0000   0.0000   0.0000   0.0000
     0.0000   0.0000

          k =-0.5720-0.3960-0.1320 (   412 PWs)   bands (ev):

     8.3946   8.6320   9.2044  10.0693  10.7656  15.3055  17.2686  24.1716
    25.3540  36.0022

     occupation numbers 
     1.0000   1.0000   1.0000   1.0000   1.0000   0.0000   0.0000   0.0000
     0.0000   0.0000

          k =-0.5280-0.3520-0.0880 (   412 PWs)   bands (ev):

     8.4358   8.6663   9.1306  10.0549  10.7069  14.8581  17.8506  23.5044
    26.1417  36.4561

     occupation numbers 
     1.0000   1.0000   1.0000   1.0000   1.0000   0.0000   0.0000   0.0000
     0.0000   0.0000

          k =-0.4840-0.3080-0.0440 (   413 PWs)   bands (ev):

     8.2839   8.7951   8.9733  10.1068  10.5688  13.3709  20.0934  23.1362
    27.1859  37.1256

     occupation numbers 
     1.0000   1.0000   1.0000   1.0000   1.0000   0.0000   0.0000   0.0000
     0.0000   0.0000

          k =-0.4400-0.2640 0.0000 (   414 PWs)   bands (ev):

     7.8777   8.7589   9.0798  10.1564  10.3917  12.2204  22.3202  23.3814
    28.4606  37.9355

     occupation numbers 
     1.0000   1.0000   1.0000   1.0000   1.0000   1.0229   0.0000   0.0000
     0.0000   0.0000

          k =-0.7040-0.5280-0.1760 (   418 PWs)   bands (ev):

     7.8660   8.4275   9.5796  10.5046  10.6613  12.6165  23.2083  23.9248
    24.3248  34.3753

     occupation numbers 
     1.0000   1.0000   1.0000   1.0000   1.0000   0.0005   0.0000   0.0000
     0.0000   0.0000

          k =-0.6600-0.4840-0.1320 (   412 PWs)   bands (ev):

     8.0991   8.4740   9.4628  10.3904  10.7894  14.0015  20.9762  23.0129
    23.8552  35.0895

     occupation numbers 
     1.0000   1.0000   1.0000   1.0000   1.0000   0.0000   0.0000   0.0000
     0.0000   0.0000

          k =-0.6160-0.4400-0.0880 (   409 PWs)   bands (ev):

     8.2842   8.5496   9.3284  10.2606  10.8292  15.6926  18.6977  22.0500
    24.2705  35.4811

     occupation numbers 
     1.0000   1.0000   1.0000   1.0000   1.0000   0.0000   0.0000   0.0000
     0.0000   0.0000

          k =-0.5720-0.3960-0.0440 (   410 PWs)   bands (ev):

     8.4578   8.6087   9.1561  10.1761  10.7772  16.4958  17.7782  21.3979
    24.9939  35.9755

     occupation numbers 
     1.0000   1.0000   1.0000   1.0000   1.0000   0.0000   0.0000   0.0000
     0.0000   0.0000

          k =-0.5280-0.3520-0.0000 (   407 PWs)   bands (ev):

     8.5186   8.7143   8.9517  10.1496  10.6652  14.8067  19.5030  21.4122
    25.9754  36.6197

     occupation numbers 
     1.0000   1.0000   1.0000   1.0000   1.0000   0.0000   0.0000   0.0000
     0.0000   0.0000

          k =-0.7040-0.5280-0.0880 (   412 PWs)   bands (ev):

     7.9257   8.3123   9.8933  10.5459  10.8697  14.2977  21.2685  22.5412
    23.3949  33.9626

     occupation numbers 
     1.0000   1.0000   1.0000   1.0000   1.0000   0.0000   0.0000   0.0000
     0.0000   0.0000

          k =-0.6600-0.4840-0.0440 (   414 PWs)   bands (ev):

     8.0799   8.4053   9.6785  10.4134  10.9093  15.8030  20.3400  20.6244
    23.4466  34.8391

     occupation numbers 
     1.0000   1.0000   1.0000   1.0000   1.0000   0.0000   0.0000   0.0000
     0.0000   0.0000

          k =-0.6160-0.4400 0.0000 (   415 PWs)   bands (ev):

     8.2584   8.5329   9.4061  10.2853  10.8668  17.1681  18.4118  20.2800
    24.0800  35.3881

     occupation numbers 
     1.0000   1.0000   1.0000   1.0000   1.0000   0.0000   0.0000   0.0000
     0.0000   0.0000

          k =-0.0000 0.1760-0.7040 (   418 PWs)   bands (ev):

     7.9145   8.2720  10.0327  10.5345  10.9476  15.4549  19.7045  22.3094
    23.1849  33.8261

     occupation numbers 
     1.0000   1.0000   1.0000   1.0000   1.0000   0.0000   0.0000   0.0000
     0.0000   0.0000

          k =-0.7040-0.4400-0.1760 (   410 PWs)   bands (ev):

     8.2417   8.6478   9.0958  10.2926  10.6600  13.6171  21.2698  22.5379
    24.9783  37.5710

     occupation numbers 
     1.0000   1.0000   1.0000   1.0000   1.0000   0.0000   0.0000   0.0000
     0.0000   0.0000

          k =-0.6600-0.3960-0.1320 (   411 PWs)   bands (ev):

     8.4022   8.7125   9.0253  10.2064  10.7762  15.1658  19.2630  22.4522
    23.8739  38.0438

     occupation numbers 
     1.0000   1.0000   1.0000   1.0000   1.0000   0.0000   0.0000   0.0000
     0.0000   0.0000

          k =-0.6160-0.3520-0.0880 (   412 PWs)   bands (ev):

     8.4620   8.6967   9.0422  10.1597  10.8211  16.6871  17.4924  22.9213
    23.1051  38.0417

     occupation numbers 
     1.0000   1.0000   1.0000   1.0000   1.0000   0.0000   0.0000   0.0000
     0.0000   0.0000

          k =-0.7040-0.4400-0.0880 (   411 PWs)   bands (ev):

     8.2265   8.5700   9.3205  10.3208  10.8683  15.4983  20.5929  21.8235
    22.1124  37.1305

     occupation numbers 
     1.0000   1.0000   1.0000   1.0000   1.0000   0.0000   0.0000   0.0000
     0.0000   0.0000

          k =-0.6600-0.3960-0.0440 (   405 PWs)   bands (ev):

     8.3215   8.7111   9.1453  10.2230  10.9083  17.2059  18.8055  21.0958
    22.1313  38.1015

     occupation numbers 
     1.0000   1.0000   1.0000   1.0000   1.0000   0.0000   0.0000   0.0000
     0.0000   0.0000

          k =-0.6160-0.3520 0.0000 (   407 PWs)   bands (ev):

     8.3924   8.8575   8.9366  10.1913  10.8669  16.8621  18.7863  20.9821
    22.8541  38.6666

     occupation numbers 
     1.0000   1.0000   1.0000   1.0000   1.0000   0.0000   0.0000   0.0000
     0.0000   0.0000

          k =-0.0000 0.2640-0.7040 (   412 PWs)   bands (ev):

     8.1904   8.5422   9.4332  10.3089  10.9478  16.8859  20.1198  20.3572
    21.8743  36.9837

     occupation numbers 
     1.0000   1.0000   1.0000   1.0000   1.0000   0.0000   0.0000   0.0000
     0.0000   0.0000

          k =-0.0000 0.3520-0.7040 (   412 PWs)   bands (ev):

     8.3268   8.9295   8.9295  10.1931  10.9479  18.5343  18.5343  20.6302
    21.0436  40.5085

     occupation numbers 
     1.0000   1.0000   1.0000   1.0000   1.0000   0.0000   0.0000   0.0000
     0.0000   0.0000

     the Fermi energy is    12.3548 ev

!    total energy              =    -121.48944300 Ry
     Harris-Foulkes estimate   =    -121.48944300 Ry
     estimated scf accuracy    <          3.2E-11 Ry

     The total energy is the sum of the following terms:

     one-electron contribution =     -29.07198509 Ry
     hartree contribution      =      31.23412938 Ry
     xc contribution           =     -42.80308747 Ry
     ewald contribution        =     -80.84853806 Ry
     smearing contrib. (-TS)   =       0.00003823 Ry

     total magnetization       =     0.00 Bohr mag/cell
     absolute magnetization    =     0.00 Bohr mag/cell

     convergence has been achieved in   9 iterations

     Forces acting on atoms (cartesian axes, Ry/au):

     atom    1 type  1   force =     0.00000000    0.00000000    0.00000000
     The non-local contrib.  to forces
     atom    1 type  1   force =    -0.00000000   -0.00000000   -0.00000000
     The ionic contribution  to forces
     atom    1 type  1   force =     0.00000000    0.00000000    0.00000000
     The local contribution  to forces
     atom    1 type  1   force =     0.00000000   -0.00000000   -0.00000000
     The core correction contribution to forces
     atom    1 type  1   force =    -0.00000000   -0.00000000   -0.00000000
     The Hubbard contrib.    to forces
     atom    1 type  1   force =     0.00000000    0.00000000    0.00000000
     The SCF correction term to forces
     atom    1 type  1   force =     0.00000000   -0.00000000   -0.00000000

     Total force =     0.000000     Total SCF correction =     0.000000


     Computing stress (Cartesian axis) and pressure

          total   stress  (Ry/bohr**3)                   (kbar)     P=    0.22
   0.00000151  -0.00000000  -0.00000000          0.22     -0.00     -0.00
  -0.00000000   0.00000151   0.00000000         -0.00      0.22      0.00
  -0.00000000   0.00000000   0.00000151         -0.00      0.00      0.22

     kinetic stress (kbar)  13203.56      0.00      0.00
                                0.00  13203.56     -0.00
                               -0.00     -0.00  13203.56

     local   stress (kbar)  23106.15     -0.00      0.00
                               -0.00  23106.15      0.00
                                0.00      0.00  23106.15

     nonloc. stress (kbar)   6844.51      0.00     -0.00
                                0.00   6844.51      0.00
                               -0.00      0.00   6844.51

     hartree stress (kbar)  18961.70      0.00      0.00
                                0.00  18961.70     -0.00
                                0.00     -0.00  18961.70

     exc-cor stress (kbar)  30015.49     -0.00     -0.00
                               -0.00  30015.49     -0.00
                               -0.00     -0.00  30015.49

     corecor stress (kbar) -43049.43     -0.00     -0.00
                               -0.00 -43049.43      0.00
                               -0.00      0.00 -43049.43

     ewald   stress (kbar) -49081.75      0.00      0.00
                                0.00 -49081.75      0.00
                                0.00      0.00 -49081.75

     hubbard stress (kbar)      0.00      0.00      0.00
                                0.00      0.00      0.00
                                0.00      0.00      0.00

     london  stress (kbar)      0.00      0.00      0.00
                                0.00      0.00      0.00
                                0.00      0.00      0.00

     DFT-D3  stress (kbar)      0.00      0.00      0.00
                                0.00      0.00      0.00
                                0.00      0.00      0.00

     XDM     stress (kbar)      0.00      0.00      0.00
                                0.00      0.00      0.00
                                0.00      0.00      0.00

     dft-nl  stress (kbar)      0.00      0.00      0.00
                                0.00      0.00      0.00
                                0.00      0.00      0.00

     TS-vdW  stress (kbar)      0.00      0.00      0.00
                                0.00      0.00      0.00
                                0.00      0.00      0.00


 
     init_run     :     17.10s CPU     19.48s WALL (       2 calls)
     electrons    :   2592.81s CPU   2870.42s WALL (       8 calls)
     update_pot   :      0.64s CPU      0.71s WALL (       5 calls)
     forces       :     19.31s CPU     21.23s WALL (       8 calls)
     stress       :     30.49s CPU     33.43s WALL (       8 calls)

     Called by init_run:
     wfcinit      :     16.13s CPU     18.00s WALL (       2 calls)
     wfcinit:atom :      0.10s CPU      0.12s WALL (     580 calls)
     wfcinit:wfcr :     15.94s CPU     17.79s WALL (     580 calls)
     potinit      :      0.15s CPU      0.18s WALL (       3 calls)
     hinit0       :      0.77s CPU      1.21s WALL (       2 calls)

     Called by electrons:
     c_bands      :   2160.14s CPU   2392.79s WALL (     102 calls)
     sum_band     :    425.11s CPU    469.20s WALL (     102 calls)
     v_of_rho     :      2.46s CPU      2.71s WALL (     110 calls)
     v_h          :      0.28s CPU      0.32s WALL (     110 calls)
     v_xc         :      2.48s CPU      2.73s WALL (     126 calls)
     newd         :      3.70s CPU      4.03s WALL (     110 calls)
     mix_rho      :      1.10s CPU      1.23s WALL (     102 calls)

     Called by c_bands:
     init_us_2    :      9.66s CPU      9.70s WALL (   64380 calls)
     cegterg      :   2092.31s CPU   2317.82s WALL (   29580 calls)

     Called by sum_band:
     sum_band:bec :      3.80s CPU      4.27s WALL (   29580 calls)
     addusdens    :      7.24s CPU      7.77s WALL (     102 calls)

     Called by *egterg:
     h_psi        :   1709.32s CPU   1890.40s WALL (   82968 calls)
     s_psi        :      7.18s CPU      7.52s WALL (   82968 calls)
     g_psi        :      4.59s CPU      5.14s WALL (   52808 calls)
     cdiaghg      :    124.88s CPU    138.86s WALL (   80648 calls)
     cegterg:over :    103.47s CPU    115.43s WALL (   52808 calls)
     cegterg:upda :     15.37s CPU     17.24s WALL (   52808 calls)
     cegterg:last :      4.79s CPU      5.48s WALL (   29921 calls)

     Called by h_psi:
     h_psi:pot    :   1702.20s CPU   1882.65s WALL (   82968 calls)
     h_psi:calbec :     80.02s CPU     89.34s WALL (   82968 calls)
     vloc_psi     :   1610.81s CPU   1780.93s WALL (   82968 calls)
     add_vuspsi   :     10.57s CPU     11.98s WALL (   82968 calls)

     General routines
     calbec       :    124.42s CPU    139.18s WALL (  124148 calls)
     fft          :      3.07s CPU      3.49s WALL (    2660 calls)
     ffts         :      0.22s CPU      0.24s WALL (     204 calls)
     fftw         :   1727.08s CPU   1913.21s WALL ( 1708514 calls)
 
     Parallel routines
     fft_scatt_xy :    131.82s CPU    142.22s WALL ( 1711378 calls)
     fft_scatt_yz :   1068.13s CPU   1203.59s WALL ( 1711378 calls)
 
     PWSCF        : 44m20.74s CPU    49m 5.86s WALL

 
   This run was terminated on:   2:16:51  21Feb2019            

=------------------------------------------------------------------------------=
   JOB DONE.
=------------------------------------------------------------------------------=
