
     Program PWSCF v.6.3MaX starts on 21Feb2019 at  5:17:26 

     This program is part of the open-source Quantum ESPRESSO suite
     for quantum simulation of materials; please cite
         "P. Giannozzi et al., J. Phys.:Condens. Matter 21 395502 (2009);
         "P. Giannozzi et al., J. Phys.:Condens. Matter 29 465901 (2017);
          URL http://www.quantum-espresso.org", 
     in publications or presentations arising from this work. More details at
     http://www.quantum-espresso.org/quote

 *** WARNING: using old-style file format, will disappear from next version ***

     Parallel version (MPI & OpenMP), running on      20 processor cores
     Number of MPI processes:                 5
     Threads/MPI process:                     4

     MPI processes distributed on     1 nodes
     R & G space division:  proc/nbgrp/npool/nimage =       5
     Reading input from /home/azadoks/dftman/projects/GP01 Cu Kgrid/ConvergenceWorkflows/94873fcf11d9/5a4f42a2f645/pwscf.in

     Current dimensions of program PWSCF are:
     Max number of different atomic species (ntypx) = 10
     Max number of k-points (npk) =  40000
     Max angular momentum in pseudopotentials (lmaxx) =  3
     Message from routine iosys:
     minimal I/O required, wf_collect reset to FALSE

     Subspace diagonalization in iterative solution of the eigenvalue problem:
     a serial algorithm will be used

 
     Parallelization info
     --------------------
     sticks:   dense  smooth     PW     G-vecs:    dense   smooth      PW
     Min          59      59     19                  657      657     128
     Max          59      59     20                  658      658     130
     Sum         295     295     97                 3287     3287     645
 


     bravais-lattice index     =            0
     lattice parameter (alat)  =       4.8305  a.u.
     unit-cell volume          =      79.7006 (a.u.)^3
     number of atoms/cell      =            1
     number of atomic types    =            1
     number of electrons       =        11.00
     number of Kohn-Sham states=           10
     kinetic-energy cutoff     =      45.0000  Ry
     charge density cutoff     =     180.0000  Ry
     convergence threshold     =      1.0E-08
     mixing beta               =       0.7000
     number of iterations used =            8  plain     mixing
     Exchange-correlation      =  SLA  PW   PBE  PBE ( 1  4  3  4 0 0)
     nstep                     =           50


     celldm(1)=   4.830501  celldm(2)=   0.000000  celldm(3)=   0.000000
     celldm(4)=   0.000000  celldm(5)=   0.000000  celldm(6)=   0.000000

     crystal axes: (cart. coord. in units of alat)
               a(1) = (  -0.707107   0.707107   0.000000 )  
               a(2) = (  -0.707107   0.000000   0.707107 )  
               a(3) = (   0.000000   0.707107   0.707107 )  

     reciprocal axes: (cart. coord. in units 2 pi/alat)
               b(1) = ( -0.707107  0.707107 -0.707107 )  
               b(2) = ( -0.707107 -0.707107  0.707107 )  
               b(3) = (  0.707107  0.707107  0.707107 )  


     PseudoPot. # 1 for Cu read from file:
     /home/azadoks/.local/share/pseudo/DFTQE_PBE/Cu_PBE.UPF
     MD5 check sum: f96b10b0f61dc418faf9c97f6ccca034
     Pseudo is Ultrasoft + core correction, Zval = 11.0
     Generated by new atomic code, or converted to UPF format
     Using radial grid of  867 points,  6 beta functions with: 
                l(1) =   0
                l(2) =   0
                l(3) =   1
                l(4) =   1
                l(5) =   2
                l(6) =   2
     Q(r) pseudized with  8 coefficients,  rinner =    1.400   1.400   1.400
                                                       1.400   1.400

     atomic species   valence    mass     pseudopotential
        Cu            11.00    63.54600     Cu( 1.00)

     Starting magnetic structure 
     atomic species   magnetization
        Cu           0.100

     48 Sym. Ops., with inversion, found


                                    s                        frac. trans.

      isym =  1     identity                                     

 cryst.   s( 1) = (     1          0          0      )
                  (     0          1          0      )
                  (     0          0          1      )

 cart.    s( 1) = (  1.0000000 -0.0000000  0.0000000 )
                  ( -0.0000000  1.0000000 -0.0000000 )
                  ( -0.0000000 -0.0000000  1.0000000 )


      isym =  2     180 deg rotation - cart. axis [0,0,1]        

 cryst.   s( 2) = (    -1          0          0      )
                  (    -1          0          1      )
                  (    -1          1          0      )

 cart.    s( 2) = ( -1.0000000  0.0000000  0.0000000 )
                  (  0.0000000 -1.0000000 -0.0000000 )
                  (  0.0000000  0.0000000  1.0000000 )


      isym =  3     180 deg rotation - cart. axis [0,1,0]        

 cryst.   s( 3) = (     0         -1          1      )
                  (     0         -1          0      )
                  (     1         -1          0      )

 cart.    s( 3) = ( -1.0000000 -0.0000000 -0.0000000 )
                  (  0.0000000  1.0000000  0.0000000 )
                  (  0.0000000 -0.0000000 -1.0000000 )


      isym =  4     180 deg rotation - cart. axis [1,0,0]        

 cryst.   s( 4) = (     0          1         -1      )
                  (     1          0         -1      )
                  (     0          0         -1      )

 cart.    s( 4) = (  1.0000000  0.0000000 -0.0000000 )
                  ( -0.0000000 -1.0000000  0.0000000 )
                  ( -0.0000000  0.0000000 -1.0000000 )


      isym =  5     180 deg rotation - cart. axis [1,1,0]        

 cryst.   s( 5) = (    -1          0          0      )
                  (     0          0         -1      )
                  (     0         -1          0      )

 cart.    s( 5) = ( -0.0000000  1.0000000 -0.0000000 )
                  (  1.0000000 -0.0000000  0.0000000 )
                  ( -0.0000000 -0.0000000 -1.0000000 )


      isym =  6     180 deg rotation - cart. axis [1,-1,0]       

 cryst.   s( 6) = (     1          0          0      )
                  (     1         -1          0      )
                  (     1          0         -1      )

 cart.    s( 6) = (  0.0000000 -1.0000000 -0.0000000 )
                  ( -1.0000000  0.0000000  0.0000000 )
                  (  0.0000000  0.0000000 -1.0000000 )


      isym =  7      90 deg rotation - cart. axis [0,0,-1]       

 cryst.   s( 7) = (     0         -1          1      )
                  (     0          0          1      )
                  (    -1          0          1      )

 cart.    s( 7) = (  0.0000000  1.0000000  0.0000000 )
                  ( -1.0000000 -0.0000000 -0.0000000 )
                  (  0.0000000 -0.0000000  1.0000000 )


      isym =  8      90 deg rotation - cart. axis [0,0,1]        

 cryst.   s( 8) = (     0          1         -1      )
                  (    -1          1          0      )
                  (     0          1          0      )

 cart.    s( 8) = ( -0.0000000 -1.0000000  0.0000000 )
                  (  1.0000000  0.0000000 -0.0000000 )
                  ( -0.0000000  0.0000000  1.0000000 )


      isym =  9     180 deg rotation - cart. axis [1,0,1]        

 cryst.   s( 9) = (     0          0         -1      )
                  (     0         -1          0      )
                  (    -1          0          0      )

 cart.    s( 9) = (  0.0000000  0.0000000  1.0000000 )
                  ( -0.0000000 -1.0000000 -0.0000000 )
                  (  1.0000000  0.0000000 -0.0000000 )


      isym = 10     180 deg rotation - cart. axis [-1,0,1]       

 cryst.   s(10) = (    -1          1          0      )
                  (     0          1          0      )
                  (     0          1         -1      )

 cart.    s(10) = ( -0.0000000  0.0000000 -1.0000000 )
                  (  0.0000000 -1.0000000  0.0000000 )
                  ( -1.0000000  0.0000000  0.0000000 )


      isym = 11      90 deg rotation - cart. axis [0,1,0]        

 cryst.   s(11) = (     0          0          1      )
                  (    -1          0          1      )
                  (     0         -1          1      )

 cart.    s(11) = ( -0.0000000 -0.0000000  1.0000000 )
                  (  0.0000000  1.0000000 -0.0000000 )
                  ( -1.0000000 -0.0000000 -0.0000000 )


      isym = 12      90 deg rotation - cart. axis [0,-1,0]       

 cryst.   s(12) = (     1         -1          0      )
                  (     1          0         -1      )
                  (     1          0          0      )

 cart.    s(12) = (  0.0000000 -0.0000000 -1.0000000 )
                  ( -0.0000000  1.0000000  0.0000000 )
                  (  1.0000000 -0.0000000  0.0000000 )


      isym = 13     180 deg rotation - cart. axis [0,1,1]        

 cryst.   s(13) = (    -1          0          1      )
                  (     0         -1          1      )
                  (     0          0          1      )

 cart.    s(13) = ( -1.0000000  0.0000000 -0.0000000 )
                  (  0.0000000 -0.0000000  1.0000000 )
                  (  0.0000000  1.0000000 -0.0000000 )


      isym = 14     180 deg rotation - cart. axis [0,1,-1]       

 cryst.   s(14) = (     0         -1          0      )
                  (    -1          0          0      )
                  (     0          0         -1      )

 cart.    s(14) = ( -1.0000000 -0.0000000  0.0000000 )
                  (  0.0000000  0.0000000 -1.0000000 )
                  (  0.0000000 -1.0000000  0.0000000 )


      isym = 15      90 deg rotation - cart. axis [-1,0,0]       

 cryst.   s(15) = (     1          0         -1      )
                  (     1          0          0      )
                  (     1         -1          0      )

 cart.    s(15) = (  1.0000000 -0.0000000 -0.0000000 )
                  ( -0.0000000  0.0000000  1.0000000 )
                  ( -0.0000000 -1.0000000 -0.0000000 )


      isym = 16      90 deg rotation - cart. axis [1,0,0]        

 cryst.   s(16) = (     0          1          0      )
                  (     0          1         -1      )
                  (    -1          1          0      )

 cart.    s(16) = (  1.0000000  0.0000000  0.0000000 )
                  ( -0.0000000 -0.0000000 -1.0000000 )
                  ( -0.0000000  1.0000000  0.0000000 )


      isym = 17     120 deg rotation - cart. axis [-1,-1,-1]     

 cryst.   s(17) = (     0         -1          0      )
                  (     1         -1          0      )
                  (     0         -1          1      )

 cart.    s(17) = (  0.0000000  1.0000000 -0.0000000 )
                  ( -0.0000000 -0.0000000  1.0000000 )
                  (  1.0000000 -0.0000000 -0.0000000 )


      isym = 18     120 deg rotation - cart. axis [-1,1,1]       

 cryst.   s(18) = (     0          1          0      )
                  (     0          0          1      )
                  (     1          0          0      )

 cart.    s(18) = ( -0.0000000 -1.0000000 -0.0000000 )
                  (  0.0000000  0.0000000  1.0000000 )
                  ( -1.0000000  0.0000000 -0.0000000 )


      isym = 19     120 deg rotation - cart. axis [1,1,-1]       

 cryst.   s(19) = (    -1          0          1      )
                  (    -1          1          0      )
                  (    -1          0          0      )

 cart.    s(19) = ( -0.0000000  1.0000000  0.0000000 )
                  (  0.0000000 -0.0000000 -1.0000000 )
                  ( -1.0000000 -0.0000000  0.0000000 )


      isym = 20     120 deg rotation - cart. axis [1,-1,1]       

 cryst.   s(20) = (     1          0         -1      )
                  (     0          0         -1      )
                  (     0          1         -1      )

 cart.    s(20) = (  0.0000000 -1.0000000  0.0000000 )
                  ( -0.0000000  0.0000000 -1.0000000 )
                  (  1.0000000  0.0000000  0.0000000 )


      isym = 21     120 deg rotation - cart. axis [1,1,1]        

 cryst.   s(21) = (    -1          1          0      )
                  (    -1          0          0      )
                  (    -1          0          1      )

 cart.    s(21) = ( -0.0000000  0.0000000  1.0000000 )
                  (  1.0000000 -0.0000000 -0.0000000 )
                  ( -0.0000000  1.0000000 -0.0000000 )


      isym = 22     120 deg rotation - cart. axis [-1,1,-1]      

 cryst.   s(22) = (     1         -1          0      )
                  (     0         -1          1      )
                  (     0         -1          0      )

 cart.    s(22) = (  0.0000000 -0.0000000  1.0000000 )
                  ( -1.0000000  0.0000000 -0.0000000 )
                  (  0.0000000 -1.0000000 -0.0000000 )


      isym = 23     120 deg rotation - cart. axis [1,-1,-1]      

 cryst.   s(23) = (     0          0          1      )
                  (     1          0          0      )
                  (     0          1          0      )

 cart.    s(23) = (  0.0000000  0.0000000 -1.0000000 )
                  ( -1.0000000 -0.0000000  0.0000000 )
                  (  0.0000000  1.0000000  0.0000000 )


      isym = 24     120 deg rotation - cart. axis [-1,-1,1]      

 cryst.   s(24) = (     0          0         -1      )
                  (     0          1         -1      )
                  (     1          0         -1      )

 cart.    s(24) = ( -0.0000000 -0.0000000 -1.0000000 )
                  (  1.0000000  0.0000000  0.0000000 )
                  ( -0.0000000 -1.0000000  0.0000000 )


      isym = 25     inversion                                    

 cryst.   s(25) = (    -1          0          0      )
                  (     0         -1          0      )
                  (     0          0         -1      )

 cart.    s(25) = ( -1.0000000  0.0000000 -0.0000000 )
                  (  0.0000000 -1.0000000  0.0000000 )
                  (  0.0000000  0.0000000 -1.0000000 )


      isym = 26     inv. 180 deg rotation - cart. axis [0,0,1]   

 cryst.   s(26) = (     1          0          0      )
                  (     1          0         -1      )
                  (     1         -1          0      )

 cart.    s(26) = (  1.0000000 -0.0000000 -0.0000000 )
                  ( -0.0000000  1.0000000  0.0000000 )
                  ( -0.0000000 -0.0000000 -1.0000000 )


      isym = 27     inv. 180 deg rotation - cart. axis [0,1,0]   

 cryst.   s(27) = (     0          1         -1      )
                  (     0          1          0      )
                  (    -1          1          0      )

 cart.    s(27) = (  1.0000000  0.0000000  0.0000000 )
                  ( -0.0000000 -1.0000000 -0.0000000 )
                  ( -0.0000000  0.0000000  1.0000000 )


      isym = 28     inv. 180 deg rotation - cart. axis [1,0,0]   

 cryst.   s(28) = (     0         -1          1      )
                  (    -1          0          1      )
                  (     0          0          1      )

 cart.    s(28) = ( -1.0000000 -0.0000000  0.0000000 )
                  (  0.0000000  1.0000000 -0.0000000 )
                  (  0.0000000 -0.0000000  1.0000000 )


      isym = 29     inv. 180 deg rotation - cart. axis [1,1,0]   

 cryst.   s(29) = (     1          0          0      )
                  (     0          0          1      )
                  (     0          1          0      )

 cart.    s(29) = (  0.0000000 -1.0000000  0.0000000 )
                  ( -1.0000000  0.0000000 -0.0000000 )
                  (  0.0000000  0.0000000  1.0000000 )


      isym = 30     inv. 180 deg rotation - cart. axis [1,-1,0]  

 cryst.   s(30) = (    -1          0          0      )
                  (    -1          1          0      )
                  (    -1          0          1      )

 cart.    s(30) = ( -0.0000000  1.0000000  0.0000000 )
                  (  1.0000000 -0.0000000 -0.0000000 )
                  ( -0.0000000 -0.0000000  1.0000000 )


      isym = 31     inv.  90 deg rotation - cart. axis [0,0,-1]  

 cryst.   s(31) = (     0          1         -1      )
                  (     0          0         -1      )
                  (     1          0         -1      )

 cart.    s(31) = ( -0.0000000 -1.0000000 -0.0000000 )
                  (  1.0000000  0.0000000  0.0000000 )
                  ( -0.0000000  0.0000000 -1.0000000 )


      isym = 32     inv.  90 deg rotation - cart. axis [0,0,1]   

 cryst.   s(32) = (     0         -1          1      )
                  (     1         -1          0      )
                  (     0         -1          0      )

 cart.    s(32) = (  0.0000000  1.0000000 -0.0000000 )
                  ( -1.0000000 -0.0000000  0.0000000 )
                  (  0.0000000 -0.0000000 -1.0000000 )


      isym = 33     inv. 180 deg rotation - cart. axis [1,0,1]   

 cryst.   s(33) = (     0          0          1      )
                  (     0          1          0      )
                  (     1          0          0      )

 cart.    s(33) = ( -0.0000000 -0.0000000 -1.0000000 )
                  (  0.0000000  1.0000000  0.0000000 )
                  ( -1.0000000 -0.0000000  0.0000000 )


      isym = 34     inv. 180 deg rotation - cart. axis [-1,0,1]  

 cryst.   s(34) = (     1         -1          0      )
                  (     0         -1          0      )
                  (     0         -1          1      )

 cart.    s(34) = (  0.0000000 -0.0000000  1.0000000 )
                  ( -0.0000000  1.0000000 -0.0000000 )
                  (  1.0000000 -0.0000000 -0.0000000 )


      isym = 35     inv.  90 deg rotation - cart. axis [0,1,0]   

 cryst.   s(35) = (     0          0         -1      )
                  (     1          0         -1      )
                  (     0          1         -1      )

 cart.    s(35) = (  0.0000000  0.0000000 -1.0000000 )
                  ( -0.0000000 -1.0000000  0.0000000 )
                  (  1.0000000  0.0000000  0.0000000 )


      isym = 36     inv.  90 deg rotation - cart. axis [0,-1,0]  

 cryst.   s(36) = (    -1          1          0      )
                  (    -1          0          1      )
                  (    -1          0          0      )

 cart.    s(36) = ( -0.0000000  0.0000000  1.0000000 )
                  (  0.0000000 -1.0000000 -0.0000000 )
                  ( -1.0000000  0.0000000 -0.0000000 )


      isym = 37     inv. 180 deg rotation - cart. axis [0,1,1]   

 cryst.   s(37) = (     1          0         -1      )
                  (     0          1         -1      )
                  (     0          0         -1      )

 cart.    s(37) = (  1.0000000 -0.0000000  0.0000000 )
                  ( -0.0000000  0.0000000 -1.0000000 )
                  ( -0.0000000 -1.0000000  0.0000000 )


      isym = 38     inv. 180 deg rotation - cart. axis [0,1,-1]  

 cryst.   s(38) = (     0          1          0      )
                  (     1          0          0      )
                  (     0          0          1      )

 cart.    s(38) = (  1.0000000  0.0000000 -0.0000000 )
                  ( -0.0000000 -0.0000000  1.0000000 )
                  ( -0.0000000  1.0000000 -0.0000000 )


      isym = 39     inv.  90 deg rotation - cart. axis [-1,0,0]  

 cryst.   s(39) = (    -1          0          1      )
                  (    -1          0          0      )
                  (    -1          1          0      )

 cart.    s(39) = ( -1.0000000  0.0000000  0.0000000 )
                  (  0.0000000 -0.0000000 -1.0000000 )
                  (  0.0000000  1.0000000  0.0000000 )


      isym = 40     inv.  90 deg rotation - cart. axis [1,0,0]   

 cryst.   s(40) = (     0         -1          0      )
                  (     0         -1          1      )
                  (     1         -1          0      )

 cart.    s(40) = ( -1.0000000 -0.0000000 -0.0000000 )
                  (  0.0000000  0.0000000  1.0000000 )
                  (  0.0000000 -1.0000000 -0.0000000 )


      isym = 41     inv. 120 deg rotation - cart. axis [-1,-1,-1]

 cryst.   s(41) = (     0          1          0      )
                  (    -1          1          0      )
                  (     0          1         -1      )

 cart.    s(41) = ( -0.0000000 -1.0000000  0.0000000 )
                  (  0.0000000  0.0000000 -1.0000000 )
                  ( -1.0000000  0.0000000  0.0000000 )


      isym = 42     inv. 120 deg rotation - cart. axis [-1,1,1]  

 cryst.   s(42) = (     0         -1          0      )
                  (     0          0         -1      )
                  (    -1          0          0      )

 cart.    s(42) = (  0.0000000  1.0000000  0.0000000 )
                  ( -0.0000000 -0.0000000 -1.0000000 )
                  (  1.0000000 -0.0000000  0.0000000 )


      isym = 43     inv. 120 deg rotation - cart. axis [1,1,-1]  

 cryst.   s(43) = (     1          0         -1      )
                  (     1         -1          0      )
                  (     1          0          0      )

 cart.    s(43) = (  0.0000000 -1.0000000 -0.0000000 )
                  ( -0.0000000  0.0000000  1.0000000 )
                  (  1.0000000  0.0000000 -0.0000000 )


      isym = 44     inv. 120 deg rotation - cart. axis [1,-1,1]  

 cryst.   s(44) = (    -1          0          1      )
                  (     0          0          1      )
                  (     0         -1          1      )

 cart.    s(44) = ( -0.0000000  1.0000000 -0.0000000 )
                  (  0.0000000 -0.0000000  1.0000000 )
                  ( -1.0000000 -0.0000000 -0.0000000 )


      isym = 45     inv. 120 deg rotation - cart. axis [1,1,1]   

 cryst.   s(45) = (     1         -1          0      )
                  (     1          0          0      )
                  (     1          0         -1      )

 cart.    s(45) = (  0.0000000 -0.0000000 -1.0000000 )
                  ( -1.0000000  0.0000000  0.0000000 )
                  (  0.0000000 -1.0000000  0.0000000 )


      isym = 46     inv. 120 deg rotation - cart. axis [-1,1,-1] 

 cryst.   s(46) = (    -1          1          0      )
                  (     0          1         -1      )
                  (     0          1          0      )

 cart.    s(46) = ( -0.0000000  0.0000000 -1.0000000 )
                  (  1.0000000 -0.0000000  0.0000000 )
                  ( -0.0000000  1.0000000  0.0000000 )


      isym = 47     inv. 120 deg rotation - cart. axis [1,-1,-1] 

 cryst.   s(47) = (     0          0         -1      )
                  (    -1          0          0      )
                  (     0         -1          0      )

 cart.    s(47) = ( -0.0000000 -0.0000000  1.0000000 )
                  (  1.0000000  0.0000000 -0.0000000 )
                  ( -0.0000000 -1.0000000 -0.0000000 )


      isym = 48     inv. 120 deg rotation - cart. axis [-1,-1,1] 

 cryst.   s(48) = (     0          0          1      )
                  (     0         -1          1      )
                  (    -1          0          1      )

 cart.    s(48) = (  0.0000000  0.0000000  1.0000000 )
                  ( -1.0000000 -0.0000000 -0.0000000 )
                  (  0.0000000  1.0000000 -0.0000000 )


   Cartesian axes

     site n.     atom                  positions (alat units)
         1           Cu  tau(   1) = (   0.0000000   0.0000000   0.0000000  )

   Crystallographic axes

     site n.     atom                  positions (cryst. coord.)
         1           Cu  tau(   1) = (  0.0000000  0.0000000  0.0000000  )

     number of k points=   413  Marzari-Vanderbilt smearing, width (Ry)=  0.0100
                       cart. coord. in units 2pi/alat
        k(    1) = (   0.0000000   0.0000000   0.0000000), wk =   0.0000723
        k(    2) = (   0.0294628   0.0294628   0.0294628), wk =   0.0005787
        k(    3) = (   0.0589256   0.0589256   0.0589256), wk =   0.0005787
        k(    4) = (   0.0883883   0.0883883   0.0883883), wk =   0.0005787
        k(    5) = (   0.1178511   0.1178511   0.1178511), wk =   0.0005787
        k(    6) = (   0.1473139   0.1473139   0.1473139), wk =   0.0005787
        k(    7) = (   0.1767767   0.1767767   0.1767767), wk =   0.0005787
        k(    8) = (   0.2062395   0.2062395   0.2062395), wk =   0.0005787
        k(    9) = (   0.2357023   0.2357023   0.2357023), wk =   0.0005787
        k(   10) = (   0.2651650   0.2651650   0.2651650), wk =   0.0005787
        k(   11) = (   0.2946278   0.2946278   0.2946278), wk =   0.0005787
        k(   12) = (   0.3240906   0.3240906   0.3240906), wk =   0.0005787
        k(   13) = (  -0.3535534  -0.3535534  -0.3535534), wk =   0.0002894
        k(   14) = (   0.0000000   0.0000000   0.0589256), wk =   0.0004340
        k(   15) = (   0.0294628   0.0294628   0.0883883), wk =   0.0017361
        k(   16) = (   0.0589256   0.0589256   0.1178511), wk =   0.0017361
        k(   17) = (   0.0883883   0.0883883   0.1473139), wk =   0.0017361
        k(   18) = (   0.1178511   0.1178511   0.1767767), wk =   0.0017361
        k(   19) = (   0.1473139   0.1473139   0.2062395), wk =   0.0017361
        k(   20) = (   0.1767767   0.1767767   0.2357023), wk =   0.0017361
        k(   21) = (   0.2062395   0.2062395   0.2651650), wk =   0.0017361
        k(   22) = (   0.2357023   0.2357023   0.2946278), wk =   0.0017361
        k(   23) = (   0.2651650   0.2651650   0.3240906), wk =   0.0017361
        k(   24) = (   0.2946278   0.2946278   0.3535534), wk =   0.0017361
        k(   25) = (  -0.3830162  -0.3830162  -0.3240906), wk =   0.0017361
        k(   26) = (  -0.3535534  -0.3535534  -0.2946278), wk =   0.0017361
        k(   27) = (  -0.3240906  -0.3240906  -0.2651650), wk =   0.0017361
        k(   28) = (  -0.2946278  -0.2946278  -0.2357023), wk =   0.0017361
        k(   29) = (  -0.2651650  -0.2651650  -0.2062395), wk =   0.0017361
        k(   30) = (  -0.2357023  -0.2357023  -0.1767767), wk =   0.0017361
        k(   31) = (  -0.2062395  -0.2062395  -0.1473139), wk =   0.0017361
        k(   32) = (  -0.1767767  -0.1767767  -0.1178511), wk =   0.0017361
        k(   33) = (  -0.1473139  -0.1473139  -0.0883883), wk =   0.0017361
        k(   34) = (  -0.1178511  -0.1178511  -0.0589256), wk =   0.0017361
        k(   35) = (  -0.0883883  -0.0883883  -0.0294628), wk =   0.0017361
        k(   36) = (  -0.0589256  -0.0589256   0.0000000), wk =   0.0008681
        k(   37) = (   0.0000000   0.0000000   0.1178511), wk =   0.0004340
        k(   38) = (   0.0294628   0.0294628   0.1473139), wk =   0.0017361
        k(   39) = (   0.0589256   0.0589256   0.1767767), wk =   0.0017361
        k(   40) = (   0.0883883   0.0883883   0.2062395), wk =   0.0017361
        k(   41) = (   0.1178511   0.1178511   0.2357023), wk =   0.0017361
        k(   42) = (   0.1473139   0.1473139   0.2651650), wk =   0.0017361
        k(   43) = (   0.1767767   0.1767767   0.2946278), wk =   0.0017361
        k(   44) = (   0.2062395   0.2062395   0.3240906), wk =   0.0017361
        k(   45) = (   0.2357023   0.2357023   0.3535534), wk =   0.0017361
        k(   46) = (   0.2651650   0.2651650   0.3830162), wk =   0.0017361
        k(   47) = (  -0.4124790  -0.4124790  -0.2946278), wk =   0.0017361
        k(   48) = (  -0.3830162  -0.3830162  -0.2651650), wk =   0.0017361
        k(   49) = (  -0.3535534  -0.3535534  -0.2357023), wk =   0.0017361
        k(   50) = (  -0.3240906  -0.3240906  -0.2062395), wk =   0.0017361
        k(   51) = (  -0.2946278  -0.2946278  -0.1767767), wk =   0.0017361
        k(   52) = (  -0.2651650  -0.2651650  -0.1473139), wk =   0.0017361
        k(   53) = (  -0.2357023  -0.2357023  -0.1178511), wk =   0.0017361
        k(   54) = (  -0.2062395  -0.2062395  -0.0883883), wk =   0.0017361
        k(   55) = (  -0.1767767  -0.1767767  -0.0589256), wk =   0.0017361
        k(   56) = (  -0.1473139  -0.1473139  -0.0294628), wk =   0.0017361
        k(   57) = (  -0.1178511  -0.1178511  -0.0000000), wk =   0.0008681
        k(   58) = (   0.0000000   0.0000000   0.1767767), wk =   0.0004340
        k(   59) = (   0.0294628   0.0294628   0.2062395), wk =   0.0017361
        k(   60) = (   0.0589256   0.0589256   0.2357023), wk =   0.0017361
        k(   61) = (   0.0883883   0.0883883   0.2651650), wk =   0.0017361
        k(   62) = (   0.1178511   0.1178511   0.2946278), wk =   0.0017361
        k(   63) = (   0.1473139   0.1473139   0.3240906), wk =   0.0017361
        k(   64) = (   0.1767767   0.1767767   0.3535534), wk =   0.0017361
        k(   65) = (   0.2062395   0.2062395   0.3830162), wk =   0.0017361
        k(   66) = (   0.2357023   0.2357023   0.4124790), wk =   0.0017361
        k(   67) = (  -0.4419417  -0.4419417  -0.2651650), wk =   0.0017361
        k(   68) = (  -0.4124790  -0.4124790  -0.2357023), wk =   0.0017361
        k(   69) = (  -0.3830162  -0.3830162  -0.2062395), wk =   0.0017361
        k(   70) = (  -0.3535534  -0.3535534  -0.1767767), wk =   0.0017361
        k(   71) = (  -0.3240906  -0.3240906  -0.1473139), wk =   0.0017361
        k(   72) = (  -0.2946278  -0.2946278  -0.1178511), wk =   0.0017361
        k(   73) = (  -0.2651650  -0.2651650  -0.0883883), wk =   0.0017361
        k(   74) = (  -0.2357023  -0.2357023  -0.0589256), wk =   0.0017361
        k(   75) = (  -0.2062395  -0.2062395  -0.0294628), wk =   0.0017361
        k(   76) = (  -0.1767767  -0.1767767   0.0000000), wk =   0.0008681
        k(   77) = (   0.0000000   0.0000000   0.2357023), wk =   0.0004340
        k(   78) = (   0.0294628   0.0294628   0.2651650), wk =   0.0017361
        k(   79) = (   0.0589256   0.0589256   0.2946278), wk =   0.0017361
        k(   80) = (   0.0883883   0.0883883   0.3240906), wk =   0.0017361
        k(   81) = (   0.1178511   0.1178511   0.3535534), wk =   0.0017361
        k(   82) = (   0.1473139   0.1473139   0.3830162), wk =   0.0017361
        k(   83) = (   0.1767767   0.1767767   0.4124790), wk =   0.0017361
        k(   84) = (   0.2062395   0.2062395   0.4419417), wk =   0.0017361
        k(   85) = (  -0.4714045  -0.4714045  -0.2357023), wk =   0.0017361
        k(   86) = (  -0.4419417  -0.4419417  -0.2062395), wk =   0.0017361
        k(   87) = (  -0.4124790  -0.4124790  -0.1767767), wk =   0.0017361
        k(   88) = (  -0.3830162  -0.3830162  -0.1473139), wk =   0.0017361
        k(   89) = (  -0.3535534  -0.3535534  -0.1178511), wk =   0.0017361
        k(   90) = (  -0.3240906  -0.3240906  -0.0883883), wk =   0.0017361
        k(   91) = (  -0.2946278  -0.2946278  -0.0589256), wk =   0.0017361
        k(   92) = (  -0.2651650  -0.2651650  -0.0294628), wk =   0.0017361
        k(   93) = (  -0.2357023  -0.2357023   0.0000000), wk =   0.0008681
        k(   94) = (   0.0000000   0.0000000   0.2946278), wk =   0.0004340
        k(   95) = (   0.0294628   0.0294628   0.3240906), wk =   0.0017361
        k(   96) = (   0.0589256   0.0589256   0.3535534), wk =   0.0017361
        k(   97) = (   0.0883883   0.0883883   0.3830162), wk =   0.0017361
        k(   98) = (   0.1178511   0.1178511   0.4124790), wk =   0.0017361
        k(   99) = (   0.1473139   0.1473139   0.4419417), wk =   0.0017361
        k(  100) = (   0.1767767   0.1767767   0.4714045), wk =   0.0017361
        k(  101) = (  -0.5008673  -0.5008673  -0.2062395), wk =   0.0017361
        k(  102) = (  -0.4714045  -0.4714045  -0.1767767), wk =   0.0017361
        k(  103) = (  -0.4419417  -0.4419417  -0.1473139), wk =   0.0017361
        k(  104) = (  -0.4124790  -0.4124790  -0.1178511), wk =   0.0017361
        k(  105) = (  -0.3830162  -0.3830162  -0.0883883), wk =   0.0017361
        k(  106) = (  -0.3535534  -0.3535534  -0.0589256), wk =   0.0017361
        k(  107) = (  -0.3240906  -0.3240906  -0.0294628), wk =   0.0017361
        k(  108) = (  -0.2946278  -0.2946278  -0.0000000), wk =   0.0008681
        k(  109) = (   0.0000000   0.0000000   0.3535534), wk =   0.0004340
        k(  110) = (   0.0294628   0.0294628   0.3830162), wk =   0.0017361
        k(  111) = (   0.0589256   0.0589256   0.4124790), wk =   0.0017361
        k(  112) = (   0.0883883   0.0883883   0.4419417), wk =   0.0017361
        k(  113) = (   0.1178511   0.1178511   0.4714045), wk =   0.0017361
        k(  114) = (   0.1473139   0.1473139   0.5008673), wk =   0.0017361
        k(  115) = (  -0.5303301  -0.5303301  -0.1767767), wk =   0.0017361
        k(  116) = (  -0.5008673  -0.5008673  -0.1473139), wk =   0.0017361
        k(  117) = (  -0.4714045  -0.4714045  -0.1178511), wk =   0.0017361
        k(  118) = (  -0.4419417  -0.4419417  -0.0883883), wk =   0.0017361
        k(  119) = (  -0.4124790  -0.4124790  -0.0589256), wk =   0.0017361
        k(  120) = (  -0.3830162  -0.3830162  -0.0294628), wk =   0.0017361
        k(  121) = (  -0.3535534  -0.3535534   0.0000000), wk =   0.0008681
        k(  122) = (   0.0000000   0.0000000   0.4124790), wk =   0.0004340
        k(  123) = (   0.0294628   0.0294628   0.4419417), wk =   0.0017361
        k(  124) = (   0.0589256   0.0589256   0.4714045), wk =   0.0017361
        k(  125) = (   0.0883883   0.0883883   0.5008673), wk =   0.0017361
        k(  126) = (   0.1178511   0.1178511   0.5303301), wk =   0.0017361
        k(  127) = (  -0.5597929  -0.5597929  -0.1473139), wk =   0.0017361
        k(  128) = (  -0.5303301  -0.5303301  -0.1178511), wk =   0.0017361
        k(  129) = (  -0.5008673  -0.5008673  -0.0883883), wk =   0.0017361
        k(  130) = (  -0.4714045  -0.4714045  -0.0589256), wk =   0.0017361
        k(  131) = (  -0.4419417  -0.4419417  -0.0294628), wk =   0.0017361
        k(  132) = (  -0.4124790  -0.4124790   0.0000000), wk =   0.0008681
        k(  133) = (   0.0000000   0.0000000   0.4714045), wk =   0.0004340
        k(  134) = (   0.0294628   0.0294628   0.5008673), wk =   0.0017361
        k(  135) = (   0.0589256   0.0589256   0.5303301), wk =   0.0017361
        k(  136) = (   0.0883883   0.0883883   0.5597929), wk =   0.0017361
        k(  137) = (  -0.5892557  -0.5892557  -0.1178511), wk =   0.0017361
        k(  138) = (  -0.5597929  -0.5597929  -0.0883883), wk =   0.0017361
        k(  139) = (  -0.5303301  -0.5303301  -0.0589256), wk =   0.0017361
        k(  140) = (  -0.5008673  -0.5008673  -0.0294628), wk =   0.0017361
        k(  141) = (  -0.4714045  -0.4714045  -0.0000000), wk =   0.0008681
        k(  142) = (  -0.0000000  -0.0000000   0.5303301), wk =   0.0004340
        k(  143) = (   0.0294628   0.0294628   0.5597929), wk =   0.0017361
        k(  144) = (   0.0589256   0.0589256   0.5892557), wk =   0.0017361
        k(  145) = (  -0.6187184  -0.6187184  -0.0883883), wk =   0.0017361
        k(  146) = (  -0.5892557  -0.5892557  -0.0589256), wk =   0.0017361
        k(  147) = (  -0.5597929  -0.5597929  -0.0294628), wk =   0.0017361
        k(  148) = (  -0.5303301  -0.5303301   0.0000000), wk =   0.0008681
        k(  149) = (   0.0000000   0.0000000   0.5892557), wk =   0.0004340
        k(  150) = (   0.0294628   0.0294628   0.6187184), wk =   0.0017361
        k(  151) = (  -0.6481812  -0.6481812  -0.0589256), wk =   0.0017361
        k(  152) = (  -0.6187184  -0.6187184  -0.0294628), wk =   0.0017361
        k(  153) = (  -0.5892557  -0.5892557   0.0000000), wk =   0.0008681
        k(  154) = (   0.0000000   0.0000000   0.6481812), wk =   0.0004340
        k(  155) = (  -0.6776440  -0.6776440  -0.0294628), wk =   0.0017361
        k(  156) = (  -0.6481812  -0.6481812  -0.0000000), wk =   0.0008681
        k(  157) = (   0.0000000   0.0000000  -0.7071068), wk =   0.0002170
        k(  158) = (   0.0000000   0.0589256   0.1178511), wk =   0.0017361
        k(  159) = (   0.0294628   0.0883883   0.1473139), wk =   0.0034722
        k(  160) = (   0.0589256   0.1178511   0.1767767), wk =   0.0034722
        k(  161) = (   0.0883883   0.1473139   0.2062395), wk =   0.0034722
        k(  162) = (   0.1178511   0.1767767   0.2357023), wk =   0.0034722
        k(  163) = (   0.1473139   0.2062395   0.2651650), wk =   0.0034722
        k(  164) = (   0.1767767   0.2357023   0.2946278), wk =   0.0034722
        k(  165) = (   0.2062395   0.2651650   0.3240906), wk =   0.0034722
        k(  166) = (   0.2357023   0.2946278   0.3535534), wk =   0.0034722
        k(  167) = (  -0.4419417  -0.3830162  -0.3240906), wk =   0.0034722
        k(  168) = (  -0.4124790  -0.3535534  -0.2946278), wk =   0.0017361
        k(  169) = (  -0.0000000   0.0589256   0.1767767), wk =   0.0017361
        k(  170) = (   0.0294628   0.0883883   0.2062395), wk =   0.0034722
        k(  171) = (   0.0589256   0.1178511   0.2357023), wk =   0.0034722
        k(  172) = (   0.0883883   0.1473139   0.2651650), wk =   0.0034722
        k(  173) = (   0.1178511   0.1767767   0.2946278), wk =   0.0034722
        k(  174) = (   0.1473139   0.2062395   0.3240906), wk =   0.0034722
        k(  175) = (   0.1767767   0.2357023   0.3535534), wk =   0.0034722
        k(  176) = (   0.2062395   0.2651650   0.3830162), wk =   0.0034722
        k(  177) = (  -0.4714045  -0.4124790  -0.2946278), wk =   0.0034722
        k(  178) = (  -0.4419417  -0.3830162  -0.2651650), wk =   0.0034722
        k(  179) = (  -0.4124790  -0.3535534  -0.2357023), wk =   0.0034722
        k(  180) = (  -0.3830162  -0.3240906  -0.2062395), wk =   0.0034722
        k(  181) = (  -0.3535534  -0.2946278  -0.1767767), wk =   0.0034722
        k(  182) = (  -0.3240906  -0.2651650  -0.1473139), wk =   0.0034722
        k(  183) = (  -0.2946278  -0.2357023  -0.1178511), wk =   0.0034722
        k(  184) = (  -0.2651650  -0.2062395  -0.0883883), wk =   0.0034722
        k(  185) = (  -0.2357023  -0.1767767  -0.0589256), wk =   0.0034722
        k(  186) = (  -0.2062395  -0.1473139  -0.0294628), wk =   0.0034722
        k(  187) = (  -0.1767767  -0.1178511  -0.0000000), wk =   0.0017361
        k(  188) = (   0.0000000   0.0589256   0.2357023), wk =   0.0017361
        k(  189) = (   0.0294628   0.0883883   0.2651650), wk =   0.0034722
        k(  190) = (   0.0589256   0.1178511   0.2946278), wk =   0.0034722
        k(  191) = (   0.0883883   0.1473139   0.3240906), wk =   0.0034722
        k(  192) = (   0.1178511   0.1767767   0.3535534), wk =   0.0034722
        k(  193) = (   0.1473139   0.2062395   0.3830162), wk =   0.0034722
        k(  194) = (   0.1767767   0.2357023   0.4124790), wk =   0.0034722
        k(  195) = (  -0.5008673  -0.4419417  -0.2651650), wk =   0.0034722
        k(  196) = (  -0.4714045  -0.4124790  -0.2357023), wk =   0.0034722
        k(  197) = (  -0.4419417  -0.3830162  -0.2062395), wk =   0.0034722
        k(  198) = (  -0.4124790  -0.3535534  -0.1767767), wk =   0.0034722
        k(  199) = (  -0.3830162  -0.3240906  -0.1473139), wk =   0.0034722
        k(  200) = (  -0.3535534  -0.2946278  -0.1178511), wk =   0.0034722
        k(  201) = (  -0.3240906  -0.2651650  -0.0883883), wk =   0.0034722
        k(  202) = (  -0.2946278  -0.2357023  -0.0589256), wk =   0.0034722
        k(  203) = (  -0.2651650  -0.2062395  -0.0294628), wk =   0.0034722
        k(  204) = (  -0.2357023  -0.1767767  -0.0000000), wk =   0.0017361
        k(  205) = (   0.0000000   0.0589256   0.2946278), wk =   0.0017361
        k(  206) = (   0.0294628   0.0883883   0.3240906), wk =   0.0034722
        k(  207) = (   0.0589256   0.1178511   0.3535534), wk =   0.0034722
        k(  208) = (   0.0883883   0.1473139   0.3830162), wk =   0.0034722
        k(  209) = (   0.1178511   0.1767767   0.4124790), wk =   0.0034722
        k(  210) = (   0.1473139   0.2062395   0.4419417), wk =   0.0034722
        k(  211) = (  -0.5303301  -0.4714045  -0.2357023), wk =   0.0034722
        k(  212) = (  -0.5008673  -0.4419417  -0.2062395), wk =   0.0034722
        k(  213) = (  -0.4714045  -0.4124790  -0.1767767), wk =   0.0034722
        k(  214) = (  -0.4419417  -0.3830162  -0.1473139), wk =   0.0034722
        k(  215) = (  -0.4124790  -0.3535534  -0.1178511), wk =   0.0034722
        k(  216) = (  -0.3830162  -0.3240906  -0.0883883), wk =   0.0034722
        k(  217) = (  -0.3535534  -0.2946278  -0.0589256), wk =   0.0034722
        k(  218) = (  -0.3240906  -0.2651650  -0.0294628), wk =   0.0034722
        k(  219) = (  -0.2946278  -0.2357023   0.0000000), wk =   0.0017361
        k(  220) = (   0.0000000   0.0589256   0.3535534), wk =   0.0017361
        k(  221) = (   0.0294628   0.0883883   0.3830162), wk =   0.0034722
        k(  222) = (   0.0589256   0.1178511   0.4124790), wk =   0.0034722
        k(  223) = (   0.0883883   0.1473139   0.4419417), wk =   0.0034722
        k(  224) = (   0.1178511   0.1767767   0.4714045), wk =   0.0034722
        k(  225) = (  -0.5597929  -0.5008673  -0.2062395), wk =   0.0034722
        k(  226) = (  -0.5303301  -0.4714045  -0.1767767), wk =   0.0034722
        k(  227) = (  -0.5008673  -0.4419417  -0.1473139), wk =   0.0034722
        k(  228) = (  -0.4714045  -0.4124790  -0.1178511), wk =   0.0034722
        k(  229) = (  -0.4419417  -0.3830162  -0.0883883), wk =   0.0034722
        k(  230) = (  -0.4124790  -0.3535534  -0.0589256), wk =   0.0034722
        k(  231) = (  -0.3830162  -0.3240906  -0.0294628), wk =   0.0034722
        k(  232) = (  -0.3535534  -0.2946278  -0.0000000), wk =   0.0017361
        k(  233) = (  -0.0000000   0.0589256   0.4124790), wk =   0.0017361
        k(  234) = (   0.0294628   0.0883883   0.4419417), wk =   0.0034722
        k(  235) = (   0.0589256   0.1178511   0.4714045), wk =   0.0034722
        k(  236) = (   0.0883883   0.1473139   0.5008673), wk =   0.0034722
        k(  237) = (  -0.5892557  -0.5303301  -0.1767767), wk =   0.0034722
        k(  238) = (  -0.5597929  -0.5008673  -0.1473139), wk =   0.0034722
        k(  239) = (  -0.5303301  -0.4714045  -0.1178511), wk =   0.0034722
        k(  240) = (  -0.5008673  -0.4419417  -0.0883883), wk =   0.0034722
        k(  241) = (  -0.4714045  -0.4124790  -0.0589256), wk =   0.0034722
        k(  242) = (  -0.4419417  -0.3830162  -0.0294628), wk =   0.0034722
        k(  243) = (  -0.4124790  -0.3535534   0.0000000), wk =   0.0017361
        k(  244) = (   0.0000000   0.0589256   0.4714045), wk =   0.0017361
        k(  245) = (   0.0294628   0.0883883   0.5008673), wk =   0.0034722
        k(  246) = (   0.0589256   0.1178511   0.5303301), wk =   0.0034722
        k(  247) = (  -0.6187184  -0.5597929  -0.1473139), wk =   0.0034722
        k(  248) = (  -0.5892557  -0.5303301  -0.1178511), wk =   0.0034722
        k(  249) = (  -0.5597929  -0.5008673  -0.0883883), wk =   0.0034722
        k(  250) = (  -0.5303301  -0.4714045  -0.0589256), wk =   0.0034722
        k(  251) = (  -0.5008673  -0.4419417  -0.0294628), wk =   0.0034722
        k(  252) = (  -0.4714045  -0.4124790   0.0000000), wk =   0.0017361
        k(  253) = (   0.0000000   0.0589256   0.5303301), wk =   0.0017361
        k(  254) = (   0.0294628   0.0883883   0.5597929), wk =   0.0034722
        k(  255) = (  -0.6481812  -0.5892557  -0.1178511), wk =   0.0034722
        k(  256) = (  -0.6187184  -0.5597929  -0.0883883), wk =   0.0034722
        k(  257) = (  -0.5892557  -0.5303301  -0.0589256), wk =   0.0034722
        k(  258) = (  -0.5597929  -0.5008673  -0.0294628), wk =   0.0034722
        k(  259) = (  -0.5303301  -0.4714045  -0.0000000), wk =   0.0017361
        k(  260) = (   0.0000000   0.0589256   0.5892557), wk =   0.0017361
        k(  261) = (  -0.6776440  -0.6187184  -0.0883883), wk =   0.0034722
        k(  262) = (  -0.6481812  -0.5892557  -0.0589256), wk =   0.0034722
        k(  263) = (  -0.6187184  -0.5597929  -0.0294628), wk =   0.0034722
        k(  264) = (  -0.5892557  -0.5303301   0.0000000), wk =   0.0017361
        k(  265) = (  -0.7071068  -0.6481812  -0.0589256), wk =   0.0017361
        k(  266) = (  -0.6776440  -0.6187184  -0.0294628), wk =   0.0034722
        k(  267) = (  -0.6481812  -0.5892557   0.0000000), wk =   0.0017361
        k(  268) = (  -0.0000000   0.0589256  -0.7071068), wk =   0.0008681
        k(  269) = (   0.0000000   0.1178511   0.2357023), wk =   0.0017361
        k(  270) = (   0.0294628   0.1473139   0.2651650), wk =   0.0034722
        k(  271) = (   0.0589256   0.1767767   0.2946278), wk =   0.0034722
        k(  272) = (   0.0883883   0.2062395   0.3240906), wk =   0.0034722
        k(  273) = (   0.1178511   0.2357023   0.3535534), wk =   0.0034722
        k(  274) = (   0.1473139   0.2651650   0.3830162), wk =   0.0034722
        k(  275) = (  -0.5303301  -0.4124790  -0.2946278), wk =   0.0034722
        k(  276) = (  -0.5008673  -0.3830162  -0.2651650), wk =   0.0034722
        k(  277) = (  -0.4714045  -0.3535534  -0.2357023), wk =   0.0017361
        k(  278) = (   0.0000000   0.1178511   0.2946278), wk =   0.0017361
        k(  279) = (   0.0294628   0.1473139   0.3240906), wk =   0.0034722
        k(  280) = (   0.0589256   0.1767767   0.3535534), wk =   0.0034722
        k(  281) = (   0.0883883   0.2062395   0.3830162), wk =   0.0034722
        k(  282) = (   0.1178511   0.2357023   0.4124790), wk =   0.0034722
        k(  283) = (  -0.5597929  -0.4419417  -0.2651650), wk =   0.0034722
        k(  284) = (  -0.5303301  -0.4124790  -0.2357023), wk =   0.0034722
        k(  285) = (  -0.5008673  -0.3830162  -0.2062395), wk =   0.0034722
        k(  286) = (  -0.4714045  -0.3535534  -0.1767767), wk =   0.0034722
        k(  287) = (  -0.4419417  -0.3240906  -0.1473139), wk =   0.0034722
        k(  288) = (  -0.4124790  -0.2946278  -0.1178511), wk =   0.0034722
        k(  289) = (  -0.3830162  -0.2651650  -0.0883883), wk =   0.0034722
        k(  290) = (  -0.3535534  -0.2357023  -0.0589256), wk =   0.0034722
        k(  291) = (  -0.3240906  -0.2062395  -0.0294628), wk =   0.0034722
        k(  292) = (  -0.2946278  -0.1767767   0.0000000), wk =   0.0017361
        k(  293) = (  -0.0000000   0.1178511   0.3535534), wk =   0.0017361
        k(  294) = (   0.0294628   0.1473139   0.3830162), wk =   0.0034722
        k(  295) = (   0.0589256   0.1767767   0.4124790), wk =   0.0034722
        k(  296) = (   0.0883883   0.2062395   0.4419417), wk =   0.0034722
        k(  297) = (  -0.5892557  -0.4714045  -0.2357023), wk =   0.0034722
        k(  298) = (  -0.5597929  -0.4419417  -0.2062395), wk =   0.0034722
        k(  299) = (  -0.5303301  -0.4124790  -0.1767767), wk =   0.0034722
        k(  300) = (  -0.5008673  -0.3830162  -0.1473139), wk =   0.0034722
        k(  301) = (  -0.4714045  -0.3535534  -0.1178511), wk =   0.0034722
        k(  302) = (  -0.4419417  -0.3240906  -0.0883883), wk =   0.0034722
        k(  303) = (  -0.4124790  -0.2946278  -0.0589256), wk =   0.0034722
        k(  304) = (  -0.3830162  -0.2651650  -0.0294628), wk =   0.0034722
        k(  305) = (  -0.3535534  -0.2357023   0.0000000), wk =   0.0017361
        k(  306) = (  -0.0000000   0.1178511   0.4124790), wk =   0.0017361
        k(  307) = (   0.0294628   0.1473139   0.4419417), wk =   0.0034722
        k(  308) = (   0.0589256   0.1767767   0.4714045), wk =   0.0034722
        k(  309) = (  -0.6187184  -0.5008673  -0.2062395), wk =   0.0034722
        k(  310) = (  -0.5892557  -0.4714045  -0.1767767), wk =   0.0034722
        k(  311) = (  -0.5597929  -0.4419417  -0.1473139), wk =   0.0034722
        k(  312) = (  -0.5303301  -0.4124790  -0.1178511), wk =   0.0034722
        k(  313) = (  -0.5008673  -0.3830162  -0.0883883), wk =   0.0034722
        k(  314) = (  -0.4714045  -0.3535534  -0.0589256), wk =   0.0034722
        k(  315) = (  -0.4419417  -0.3240906  -0.0294628), wk =   0.0034722
        k(  316) = (  -0.4124790  -0.2946278  -0.0000000), wk =   0.0017361
        k(  317) = (   0.0000000   0.1178511   0.4714045), wk =   0.0017361
        k(  318) = (   0.0294628   0.1473139   0.5008673), wk =   0.0034722
        k(  319) = (  -0.6481812  -0.5303301  -0.1767767), wk =   0.0034722
        k(  320) = (  -0.6187184  -0.5008673  -0.1473139), wk =   0.0034722
        k(  321) = (  -0.5892557  -0.4714045  -0.1178511), wk =   0.0034722
        k(  322) = (  -0.5597929  -0.4419417  -0.0883883), wk =   0.0034722
        k(  323) = (  -0.5303301  -0.4124790  -0.0589256), wk =   0.0034722
        k(  324) = (  -0.5008673  -0.3830162  -0.0294628), wk =   0.0034722
        k(  325) = (  -0.4714045  -0.3535534  -0.0000000), wk =   0.0017361
        k(  326) = (  -0.0000000   0.1178511   0.5303301), wk =   0.0017361
        k(  327) = (  -0.6776440  -0.5597929  -0.1473139), wk =   0.0034722
        k(  328) = (  -0.6481812  -0.5303301  -0.1178511), wk =   0.0034722
        k(  329) = (  -0.6187184  -0.5008673  -0.0883883), wk =   0.0034722
        k(  330) = (  -0.5892557  -0.4714045  -0.0589256), wk =   0.0034722
        k(  331) = (  -0.5597929  -0.4419417  -0.0294628), wk =   0.0034722
        k(  332) = (  -0.5303301  -0.4124790   0.0000000), wk =   0.0017361
        k(  333) = (  -0.7071068  -0.5892557  -0.1178511), wk =   0.0017361
        k(  334) = (  -0.6776440  -0.5597929  -0.0883883), wk =   0.0034722
        k(  335) = (  -0.6481812  -0.5303301  -0.0589256), wk =   0.0034722
        k(  336) = (  -0.6187184  -0.5008673  -0.0294628), wk =   0.0034722
        k(  337) = (  -0.5892557  -0.4714045  -0.0000000), wk =   0.0017361
        k(  338) = (  -0.7071068  -0.5892557  -0.0589256), wk =   0.0017361
        k(  339) = (  -0.6776440  -0.5597929  -0.0294628), wk =   0.0034722
        k(  340) = (  -0.6481812  -0.5303301  -0.0000000), wk =   0.0017361
        k(  341) = (   0.0000000   0.1178511  -0.7071068), wk =   0.0008681
        k(  342) = (  -0.0000000   0.1767767   0.3535534), wk =   0.0017361
        k(  343) = (   0.0294628   0.2062395   0.3830162), wk =   0.0034722
        k(  344) = (   0.0589256   0.2357023   0.4124790), wk =   0.0034722
        k(  345) = (  -0.6187184  -0.4419417  -0.2651650), wk =   0.0034722
        k(  346) = (  -0.5892557  -0.4124790  -0.2357023), wk =   0.0034722
        k(  347) = (  -0.5597929  -0.3830162  -0.2062395), wk =   0.0034722
        k(  348) = (  -0.5303301  -0.3535534  -0.1767767), wk =   0.0017361
        k(  349) = (   0.0000000   0.1767767   0.4124790), wk =   0.0017361
        k(  350) = (   0.0294628   0.2062395   0.4419417), wk =   0.0034722
        k(  351) = (  -0.6481812  -0.4714045  -0.2357023), wk =   0.0034722
        k(  352) = (  -0.6187184  -0.4419417  -0.2062395), wk =   0.0034722
        k(  353) = (  -0.5892557  -0.4124790  -0.1767767), wk =   0.0034722
        k(  354) = (  -0.5597929  -0.3830162  -0.1473139), wk =   0.0034722
        k(  355) = (  -0.5303301  -0.3535534  -0.1178511), wk =   0.0034722
        k(  356) = (  -0.5008673  -0.3240906  -0.0883883), wk =   0.0034722
        k(  357) = (  -0.4714045  -0.2946278  -0.0589256), wk =   0.0034722
        k(  358) = (  -0.4419417  -0.2651650  -0.0294628), wk =   0.0034722
        k(  359) = (  -0.4124790  -0.2357023   0.0000000), wk =   0.0017361
        k(  360) = (   0.0000000   0.1767767   0.4714045), wk =   0.0017361
        k(  361) = (  -0.6776440  -0.5008673  -0.2062395), wk =   0.0034722
        k(  362) = (  -0.6481812  -0.4714045  -0.1767767), wk =   0.0034722
        k(  363) = (  -0.6187184  -0.4419417  -0.1473139), wk =   0.0034722
        k(  364) = (  -0.5892557  -0.4124790  -0.1178511), wk =   0.0034722
        k(  365) = (  -0.5597929  -0.3830162  -0.0883883), wk =   0.0034722
        k(  366) = (  -0.5303301  -0.3535534  -0.0589256), wk =   0.0034722
        k(  367) = (  -0.5008673  -0.3240906  -0.0294628), wk =   0.0034722
        k(  368) = (  -0.4714045  -0.2946278  -0.0000000), wk =   0.0017361
        k(  369) = (  -0.7071068  -0.5303301  -0.1767767), wk =   0.0017361
        k(  370) = (  -0.6776440  -0.5008673  -0.1473139), wk =   0.0034722
        k(  371) = (  -0.6481812  -0.4714045  -0.1178511), wk =   0.0034722
        k(  372) = (  -0.6187184  -0.4419417  -0.0883883), wk =   0.0034722
        k(  373) = (  -0.5892557  -0.4124790  -0.0589256), wk =   0.0034722
        k(  374) = (  -0.5597929  -0.3830162  -0.0294628), wk =   0.0034722
        k(  375) = (  -0.5303301  -0.3535534   0.0000000), wk =   0.0017361
        k(  376) = (  -0.7071068  -0.5303301  -0.1178511), wk =   0.0017361
        k(  377) = (  -0.6776440  -0.5008673  -0.0883883), wk =   0.0034722
        k(  378) = (  -0.6481812  -0.4714045  -0.0589256), wk =   0.0034722
        k(  379) = (  -0.6187184  -0.4419417  -0.0294628), wk =   0.0034722
        k(  380) = (  -0.5892557  -0.4124790   0.0000000), wk =   0.0017361
        k(  381) = (  -0.7071068  -0.5303301  -0.0589256), wk =   0.0017361
        k(  382) = (  -0.6776440  -0.5008673  -0.0294628), wk =   0.0034722
        k(  383) = (  -0.6481812  -0.4714045  -0.0000000), wk =   0.0017361
        k(  384) = (   0.0000000   0.1767767  -0.7071068), wk =   0.0008681
        k(  385) = (  -0.7071068  -0.4714045  -0.2357023), wk =   0.0017361
        k(  386) = (  -0.6776440  -0.4419417  -0.2062395), wk =   0.0034722
        k(  387) = (  -0.6481812  -0.4124790  -0.1767767), wk =   0.0034722
        k(  388) = (  -0.6187184  -0.3830162  -0.1473139), wk =   0.0034722
        k(  389) = (  -0.5892557  -0.3535534  -0.1178511), wk =   0.0017361
        k(  390) = (  -0.7071068  -0.4714045  -0.1767767), wk =   0.0017361
        k(  391) = (  -0.6776440  -0.4419417  -0.1473139), wk =   0.0034722
        k(  392) = (  -0.6481812  -0.4124790  -0.1178511), wk =   0.0034722
        k(  393) = (  -0.6187184  -0.3830162  -0.0883883), wk =   0.0034722
        k(  394) = (  -0.5892557  -0.3535534  -0.0589256), wk =   0.0034722
        k(  395) = (  -0.5597929  -0.3240906  -0.0294628), wk =   0.0034722
        k(  396) = (  -0.5303301  -0.2946278  -0.0000000), wk =   0.0017361
        k(  397) = (  -0.7071068  -0.4714045  -0.1178511), wk =   0.0017361
        k(  398) = (  -0.6776440  -0.4419417  -0.0883883), wk =   0.0034722
        k(  399) = (  -0.6481812  -0.4124790  -0.0589256), wk =   0.0034722
        k(  400) = (  -0.6187184  -0.3830162  -0.0294628), wk =   0.0034722
        k(  401) = (  -0.5892557  -0.3535534   0.0000000), wk =   0.0017361
        k(  402) = (  -0.7071068  -0.4714045  -0.0589256), wk =   0.0017361
        k(  403) = (  -0.6776440  -0.4419417  -0.0294628), wk =   0.0034722
        k(  404) = (  -0.6481812  -0.4124790   0.0000000), wk =   0.0017361
        k(  405) = (  -0.0000000   0.2357023  -0.7071068), wk =   0.0008681
        k(  406) = (  -0.7071068  -0.4124790  -0.1178511), wk =   0.0017361
        k(  407) = (  -0.6776440  -0.3830162  -0.0883883), wk =   0.0034722
        k(  408) = (  -0.6481812  -0.3535534  -0.0589256), wk =   0.0017361
        k(  409) = (  -0.7071068  -0.4124790  -0.0589256), wk =   0.0017361
        k(  410) = (  -0.6776440  -0.3830162  -0.0294628), wk =   0.0034722
        k(  411) = (  -0.6481812  -0.3535534  -0.0000000), wk =   0.0017361
        k(  412) = (   0.0000000   0.2946278  -0.7071068), wk =   0.0008681
        k(  413) = (   0.0000000   0.3535534  -0.7071068), wk =   0.0004340

                       cryst. coord.
        k(    1) = (   0.0000000   0.0000000   0.0000000), wk =   0.0000723
        k(    2) = (   0.0000000  -0.0000000   0.0416667), wk =   0.0005787
        k(    3) = (   0.0000000  -0.0000000   0.0833333), wk =   0.0005787
        k(    4) = (   0.0000000  -0.0000000   0.1250000), wk =   0.0005787
        k(    5) = (   0.0000000  -0.0000000   0.1666667), wk =   0.0005787
        k(    6) = (  -0.0000000   0.0000000   0.2083333), wk =   0.0005787
        k(    7) = (   0.0000000  -0.0000000   0.2500000), wk =   0.0005787
        k(    8) = (   0.0000000  -0.0000000   0.2916667), wk =   0.0005787
        k(    9) = (   0.0000000  -0.0000000   0.3333333), wk =   0.0005787
        k(   10) = (  -0.0000000   0.0000000   0.3750000), wk =   0.0005787
        k(   11) = (  -0.0000000   0.0000000   0.4166667), wk =   0.0005787
        k(   12) = (   0.0000000  -0.0000000   0.4583333), wk =   0.0005787
        k(   13) = (  -0.0000000   0.0000000  -0.5000000), wk =   0.0002894
        k(   14) = (  -0.0000000   0.0416667   0.0416667), wk =   0.0004340
        k(   15) = (   0.0000000   0.0416667   0.0833333), wk =   0.0017361
        k(   16) = (  -0.0000000   0.0416667   0.1250000), wk =   0.0017361
        k(   17) = (   0.0000000   0.0416667   0.1666667), wk =   0.0017361
        k(   18) = (  -0.0000000   0.0416667   0.2083333), wk =   0.0017361
        k(   19) = (  -0.0000000   0.0416667   0.2500000), wk =   0.0017361
        k(   20) = (  -0.0000000   0.0416667   0.2916667), wk =   0.0017361
        k(   21) = (   0.0000000   0.0416667   0.3333333), wk =   0.0017361
        k(   22) = (  -0.0000000   0.0416667   0.3750000), wk =   0.0017361
        k(   23) = (  -0.0000000   0.0416667   0.4166667), wk =   0.0017361
        k(   24) = (  -0.0000000   0.0416667   0.4583333), wk =   0.0017361
        k(   25) = (  -0.0000000   0.0416667  -0.5000000), wk =   0.0017361
        k(   26) = (  -0.0000000   0.0416667  -0.4583333), wk =   0.0017361
        k(   27) = (  -0.0000000   0.0416667  -0.4166667), wk =   0.0017361
        k(   28) = (   0.0000000   0.0416667  -0.3750000), wk =   0.0017361
        k(   29) = (   0.0000000   0.0416667  -0.3333333), wk =   0.0017361
        k(   30) = (  -0.0000000   0.0416667  -0.2916667), wk =   0.0017361
        k(   31) = (  -0.0000000   0.0416667  -0.2500000), wk =   0.0017361
        k(   32) = (   0.0000000   0.0416667  -0.2083333), wk =   0.0017361
        k(   33) = (   0.0000000   0.0416667  -0.1666667), wk =   0.0017361
        k(   34) = (  -0.0000000   0.0416667  -0.1250000), wk =   0.0017361
        k(   35) = (   0.0000000   0.0416667  -0.0833333), wk =   0.0017361
        k(   36) = (  -0.0000000   0.0416667  -0.0416667), wk =   0.0008681
        k(   37) = (  -0.0000000   0.0833333   0.0833333), wk =   0.0004340
        k(   38) = (  -0.0000000   0.0833333   0.1250000), wk =   0.0017361
        k(   39) = (   0.0000000   0.0833333   0.1666667), wk =   0.0017361
        k(   40) = (  -0.0000000   0.0833333   0.2083333), wk =   0.0017361
        k(   41) = (  -0.0000000   0.0833333   0.2500000), wk =   0.0017361
        k(   42) = (   0.0000000   0.0833333   0.2916667), wk =   0.0017361
        k(   43) = (   0.0000000   0.0833333   0.3333333), wk =   0.0017361
        k(   44) = (   0.0000000   0.0833333   0.3750000), wk =   0.0017361
        k(   45) = (  -0.0000000   0.0833333   0.4166667), wk =   0.0017361
        k(   46) = (  -0.0000000   0.0833333   0.4583333), wk =   0.0017361
        k(   47) = (  -0.0000000   0.0833333  -0.5000000), wk =   0.0017361
        k(   48) = (   0.0000000   0.0833333  -0.4583333), wk =   0.0017361
        k(   49) = (  -0.0000000   0.0833333  -0.4166667), wk =   0.0017361
        k(   50) = (  -0.0000000   0.0833333  -0.3750000), wk =   0.0017361
        k(   51) = (  -0.0000000   0.0833333  -0.3333333), wk =   0.0017361
        k(   52) = (  -0.0000000   0.0833333  -0.2916667), wk =   0.0017361
        k(   53) = (  -0.0000000   0.0833333  -0.2500000), wk =   0.0017361
        k(   54) = (   0.0000000   0.0833333  -0.2083333), wk =   0.0017361
        k(   55) = (  -0.0000000   0.0833333  -0.1666667), wk =   0.0017361
        k(   56) = (   0.0000000   0.0833333  -0.1250000), wk =   0.0017361
        k(   57) = (   0.0000000   0.0833333  -0.0833333), wk =   0.0008681
        k(   58) = (   0.0000000   0.1250000   0.1250000), wk =   0.0004340
        k(   59) = (   0.0000000   0.1250000   0.1666667), wk =   0.0017361
        k(   60) = (  -0.0000000   0.1250000   0.2083333), wk =   0.0017361
        k(   61) = (   0.0000000   0.1250000   0.2500000), wk =   0.0017361
        k(   62) = (  -0.0000000   0.1250000   0.2916667), wk =   0.0017361
        k(   63) = (  -0.0000000   0.1250000   0.3333333), wk =   0.0017361
        k(   64) = (   0.0000000   0.1250000   0.3750000), wk =   0.0017361
        k(   65) = (   0.0000000   0.1250000   0.4166667), wk =   0.0017361
        k(   66) = (   0.0000000   0.1250000   0.4583333), wk =   0.0017361
        k(   67) = (  -0.0000000   0.1250000  -0.5000000), wk =   0.0017361
        k(   68) = (  -0.0000000   0.1250000  -0.4583333), wk =   0.0017361
        k(   69) = (  -0.0000000   0.1250000  -0.4166667), wk =   0.0017361
        k(   70) = (  -0.0000000   0.1250000  -0.3750000), wk =   0.0017361
        k(   71) = (   0.0000000   0.1250000  -0.3333333), wk =   0.0017361
        k(   72) = (   0.0000000   0.1250000  -0.2916667), wk =   0.0017361
        k(   73) = (   0.0000000   0.1250000  -0.2500000), wk =   0.0017361
        k(   74) = (   0.0000000   0.1250000  -0.2083333), wk =   0.0017361
        k(   75) = (  -0.0000000   0.1250000  -0.1666667), wk =   0.0017361
        k(   76) = (  -0.0000000   0.1250000  -0.1250000), wk =   0.0008681
        k(   77) = (  -0.0000000   0.1666667   0.1666667), wk =   0.0004340
        k(   78) = (  -0.0000000   0.1666667   0.2083333), wk =   0.0017361
        k(   79) = (  -0.0000000   0.1666667   0.2500000), wk =   0.0017361
        k(   80) = (  -0.0000000   0.1666667   0.2916667), wk =   0.0017361
        k(   81) = (   0.0000000   0.1666667   0.3333333), wk =   0.0017361
        k(   82) = (  -0.0000000   0.1666667   0.3750000), wk =   0.0017361
        k(   83) = (  -0.0000000   0.1666667   0.4166667), wk =   0.0017361
        k(   84) = (   0.0000000   0.1666667   0.4583333), wk =   0.0017361
        k(   85) = (  -0.0000000   0.1666667  -0.5000000), wk =   0.0017361
        k(   86) = (   0.0000000   0.1666667  -0.4583333), wk =   0.0017361
        k(   87) = (  -0.0000000   0.1666667  -0.4166667), wk =   0.0017361
        k(   88) = (  -0.0000000   0.1666667  -0.3750000), wk =   0.0017361
        k(   89) = (  -0.0000000   0.1666667  -0.3333333), wk =   0.0017361
        k(   90) = (  -0.0000000   0.1666667  -0.2916667), wk =   0.0017361
        k(   91) = (   0.0000000   0.1666667  -0.2500000), wk =   0.0017361
        k(   92) = (   0.0000000   0.1666667  -0.2083333), wk =   0.0017361
        k(   93) = (  -0.0000000   0.1666667  -0.1666667), wk =   0.0008681
        k(   94) = (   0.0000000   0.2083333   0.2083333), wk =   0.0004340
        k(   95) = (  -0.0000000   0.2083333   0.2500000), wk =   0.0017361
        k(   96) = (   0.0000000   0.2083333   0.2916667), wk =   0.0017361
        k(   97) = (   0.0000000   0.2083333   0.3333333), wk =   0.0017361
        k(   98) = (  -0.0000000   0.2083333   0.3750000), wk =   0.0017361
        k(   99) = (   0.0000000   0.2083333   0.4166667), wk =   0.0017361
        k(  100) = (   0.0000000   0.2083333   0.4583333), wk =   0.0017361
        k(  101) = (  -0.0000000   0.2083333  -0.5000000), wk =   0.0017361
        k(  102) = (   0.0000000   0.2083333  -0.4583333), wk =   0.0017361
        k(  103) = (  -0.0000000   0.2083333  -0.4166667), wk =   0.0017361
        k(  104) = (  -0.0000000   0.2083333  -0.3750000), wk =   0.0017361
        k(  105) = (   0.0000000   0.2083333  -0.3333333), wk =   0.0017361
        k(  106) = (  -0.0000000   0.2083333  -0.2916667), wk =   0.0017361
        k(  107) = (  -0.0000000   0.2083333  -0.2500000), wk =   0.0017361
        k(  108) = (  -0.0000000   0.2083333  -0.2083333), wk =   0.0008681
        k(  109) = (   0.0000000   0.2500000   0.2500000), wk =   0.0004340
        k(  110) = (   0.0000000   0.2500000   0.2916667), wk =   0.0017361
        k(  111) = (   0.0000000   0.2500000   0.3333333), wk =   0.0017361
        k(  112) = (   0.0000000   0.2500000   0.3750000), wk =   0.0017361
        k(  113) = (  -0.0000000   0.2500000   0.4166667), wk =   0.0017361
        k(  114) = (  -0.0000000   0.2500000   0.4583333), wk =   0.0017361
        k(  115) = (   0.0000000   0.2500000  -0.5000000), wk =   0.0017361
        k(  116) = (   0.0000000   0.2500000  -0.4583333), wk =   0.0017361
        k(  117) = (  -0.0000000   0.2500000  -0.4166667), wk =   0.0017361
        k(  118) = (  -0.0000000   0.2500000  -0.3750000), wk =   0.0017361
        k(  119) = (  -0.0000000   0.2500000  -0.3333333), wk =   0.0017361
        k(  120) = (  -0.0000000   0.2500000  -0.2916667), wk =   0.0017361
        k(  121) = (  -0.0000000   0.2500000  -0.2500000), wk =   0.0008681
        k(  122) = (   0.0000000   0.2916667   0.2916667), wk =   0.0004340
        k(  123) = (   0.0000000   0.2916667   0.3333333), wk =   0.0017361
        k(  124) = (   0.0000000   0.2916667   0.3750000), wk =   0.0017361
        k(  125) = (  -0.0000000   0.2916667   0.4166667), wk =   0.0017361
        k(  126) = (   0.0000000   0.2916667   0.4583333), wk =   0.0017361
        k(  127) = (   0.0000000   0.2916667  -0.5000000), wk =   0.0017361
        k(  128) = (   0.0000000   0.2916667  -0.4583333), wk =   0.0017361
        k(  129) = (  -0.0000000   0.2916667  -0.4166667), wk =   0.0017361
        k(  130) = (   0.0000000   0.2916667  -0.3750000), wk =   0.0017361
        k(  131) = (   0.0000000   0.2916667  -0.3333333), wk =   0.0017361
        k(  132) = (  -0.0000000   0.2916667  -0.2916667), wk =   0.0008681
        k(  133) = (  -0.0000000   0.3333333   0.3333333), wk =   0.0004340
        k(  134) = (   0.0000000   0.3333333   0.3750000), wk =   0.0017361
        k(  135) = (  -0.0000000   0.3333333   0.4166667), wk =   0.0017361
        k(  136) = (   0.0000000   0.3333333   0.4583333), wk =   0.0017361
        k(  137) = (   0.0000000   0.3333333  -0.5000000), wk =   0.0017361
        k(  138) = (   0.0000000   0.3333333  -0.4583333), wk =   0.0017361
        k(  139) = (  -0.0000000   0.3333333  -0.4166667), wk =   0.0017361
        k(  140) = (  -0.0000000   0.3333333  -0.3750000), wk =   0.0017361
        k(  141) = (   0.0000000   0.3333333  -0.3333333), wk =   0.0008681
        k(  142) = (   0.0000000   0.3750000   0.3750000), wk =   0.0004340
        k(  143) = (   0.0000000   0.3750000   0.4166667), wk =   0.0017361
        k(  144) = (   0.0000000   0.3750000   0.4583333), wk =   0.0017361
        k(  145) = (  -0.0000000   0.3750000  -0.5000000), wk =   0.0017361
        k(  146) = (  -0.0000000   0.3750000  -0.4583333), wk =   0.0017361
        k(  147) = (   0.0000000   0.3750000  -0.4166667), wk =   0.0017361
        k(  148) = (   0.0000000   0.3750000  -0.3750000), wk =   0.0008681
        k(  149) = (   0.0000000   0.4166667   0.4166667), wk =   0.0004340
        k(  150) = (   0.0000000   0.4166667   0.4583333), wk =   0.0017361
        k(  151) = (  -0.0000000   0.4166667  -0.5000000), wk =   0.0017361
        k(  152) = (  -0.0000000   0.4166667  -0.4583333), wk =   0.0017361
        k(  153) = (   0.0000000   0.4166667  -0.4166667), wk =   0.0008681
        k(  154) = (   0.0000000   0.4583333   0.4583333), wk =   0.0004340
        k(  155) = (   0.0000000   0.4583333  -0.5000000), wk =   0.0017361
        k(  156) = (   0.0000000   0.4583333  -0.4583333), wk =   0.0008681
        k(  157) = (   0.0000000  -0.5000000  -0.5000000), wk =   0.0002170
        k(  158) = (   0.0416667   0.0833333   0.1250000), wk =   0.0017361
        k(  159) = (   0.0416667   0.0833333   0.1666667), wk =   0.0034722
        k(  160) = (   0.0416667   0.0833333   0.2083333), wk =   0.0034722
        k(  161) = (   0.0416667   0.0833333   0.2500000), wk =   0.0034722
        k(  162) = (   0.0416667   0.0833333   0.2916667), wk =   0.0034722
        k(  163) = (   0.0416667   0.0833333   0.3333333), wk =   0.0034722
        k(  164) = (   0.0416667   0.0833333   0.3750000), wk =   0.0034722
        k(  165) = (   0.0416667   0.0833333   0.4166667), wk =   0.0034722
        k(  166) = (   0.0416667   0.0833333   0.4583333), wk =   0.0034722
        k(  167) = (   0.0416667   0.0833333  -0.5000000), wk =   0.0034722
        k(  168) = (   0.0416667   0.0833333  -0.4583333), wk =   0.0017361
        k(  169) = (   0.0416667   0.1250000   0.1666667), wk =   0.0017361
        k(  170) = (   0.0416667   0.1250000   0.2083333), wk =   0.0034722
        k(  171) = (   0.0416667   0.1250000   0.2500000), wk =   0.0034722
        k(  172) = (   0.0416667   0.1250000   0.2916667), wk =   0.0034722
        k(  173) = (   0.0416667   0.1250000   0.3333333), wk =   0.0034722
        k(  174) = (   0.0416667   0.1250000   0.3750000), wk =   0.0034722
        k(  175) = (   0.0416667   0.1250000   0.4166667), wk =   0.0034722
        k(  176) = (   0.0416667   0.1250000   0.4583333), wk =   0.0034722
        k(  177) = (   0.0416667   0.1250000  -0.5000000), wk =   0.0034722
        k(  178) = (   0.0416667   0.1250000  -0.4583333), wk =   0.0034722
        k(  179) = (   0.0416667   0.1250000  -0.4166667), wk =   0.0034722
        k(  180) = (   0.0416667   0.1250000  -0.3750000), wk =   0.0034722
        k(  181) = (   0.0416667   0.1250000  -0.3333333), wk =   0.0034722
        k(  182) = (   0.0416667   0.1250000  -0.2916667), wk =   0.0034722
        k(  183) = (   0.0416667   0.1250000  -0.2500000), wk =   0.0034722
        k(  184) = (   0.0416667   0.1250000  -0.2083333), wk =   0.0034722
        k(  185) = (   0.0416667   0.1250000  -0.1666667), wk =   0.0034722
        k(  186) = (   0.0416667   0.1250000  -0.1250000), wk =   0.0034722
        k(  187) = (   0.0416667   0.1250000  -0.0833333), wk =   0.0017361
        k(  188) = (   0.0416667   0.1666667   0.2083333), wk =   0.0017361
        k(  189) = (   0.0416667   0.1666667   0.2500000), wk =   0.0034722
        k(  190) = (   0.0416667   0.1666667   0.2916667), wk =   0.0034722
        k(  191) = (   0.0416667   0.1666667   0.3333333), wk =   0.0034722
        k(  192) = (   0.0416667   0.1666667   0.3750000), wk =   0.0034722
        k(  193) = (   0.0416667   0.1666667   0.4166667), wk =   0.0034722
        k(  194) = (   0.0416667   0.1666667   0.4583333), wk =   0.0034722
        k(  195) = (   0.0416667   0.1666667  -0.5000000), wk =   0.0034722
        k(  196) = (   0.0416667   0.1666667  -0.4583333), wk =   0.0034722
        k(  197) = (   0.0416667   0.1666667  -0.4166667), wk =   0.0034722
        k(  198) = (   0.0416667   0.1666667  -0.3750000), wk =   0.0034722
        k(  199) = (   0.0416667   0.1666667  -0.3333333), wk =   0.0034722
        k(  200) = (   0.0416667   0.1666667  -0.2916667), wk =   0.0034722
        k(  201) = (   0.0416667   0.1666667  -0.2500000), wk =   0.0034722
        k(  202) = (   0.0416667   0.1666667  -0.2083333), wk =   0.0034722
        k(  203) = (   0.0416667   0.1666667  -0.1666667), wk =   0.0034722
        k(  204) = (   0.0416667   0.1666667  -0.1250000), wk =   0.0017361
        k(  205) = (   0.0416667   0.2083333   0.2500000), wk =   0.0017361
        k(  206) = (   0.0416667   0.2083333   0.2916667), wk =   0.0034722
        k(  207) = (   0.0416667   0.2083333   0.3333333), wk =   0.0034722
        k(  208) = (   0.0416667   0.2083333   0.3750000), wk =   0.0034722
        k(  209) = (   0.0416667   0.2083333   0.4166667), wk =   0.0034722
        k(  210) = (   0.0416667   0.2083333   0.4583333), wk =   0.0034722
        k(  211) = (   0.0416667   0.2083333  -0.5000000), wk =   0.0034722
        k(  212) = (   0.0416667   0.2083333  -0.4583333), wk =   0.0034722
        k(  213) = (   0.0416667   0.2083333  -0.4166667), wk =   0.0034722
        k(  214) = (   0.0416667   0.2083333  -0.3750000), wk =   0.0034722
        k(  215) = (   0.0416667   0.2083333  -0.3333333), wk =   0.0034722
        k(  216) = (   0.0416667   0.2083333  -0.2916667), wk =   0.0034722
        k(  217) = (   0.0416667   0.2083333  -0.2500000), wk =   0.0034722
        k(  218) = (   0.0416667   0.2083333  -0.2083333), wk =   0.0034722
        k(  219) = (   0.0416667   0.2083333  -0.1666667), wk =   0.0017361
        k(  220) = (   0.0416667   0.2500000   0.2916667), wk =   0.0017361
        k(  221) = (   0.0416667   0.2500000   0.3333333), wk =   0.0034722
        k(  222) = (   0.0416667   0.2500000   0.3750000), wk =   0.0034722
        k(  223) = (   0.0416667   0.2500000   0.4166667), wk =   0.0034722
        k(  224) = (   0.0416667   0.2500000   0.4583333), wk =   0.0034722
        k(  225) = (   0.0416667   0.2500000  -0.5000000), wk =   0.0034722
        k(  226) = (   0.0416667   0.2500000  -0.4583333), wk =   0.0034722
        k(  227) = (   0.0416667   0.2500000  -0.4166667), wk =   0.0034722
        k(  228) = (   0.0416667   0.2500000  -0.3750000), wk =   0.0034722
        k(  229) = (   0.0416667   0.2500000  -0.3333333), wk =   0.0034722
        k(  230) = (   0.0416667   0.2500000  -0.2916667), wk =   0.0034722
        k(  231) = (   0.0416667   0.2500000  -0.2500000), wk =   0.0034722
        k(  232) = (   0.0416667   0.2500000  -0.2083333), wk =   0.0017361
        k(  233) = (   0.0416667   0.2916667   0.3333333), wk =   0.0017361
        k(  234) = (   0.0416667   0.2916667   0.3750000), wk =   0.0034722
        k(  235) = (   0.0416667   0.2916667   0.4166667), wk =   0.0034722
        k(  236) = (   0.0416667   0.2916667   0.4583333), wk =   0.0034722
        k(  237) = (   0.0416667   0.2916667  -0.5000000), wk =   0.0034722
        k(  238) = (   0.0416667   0.2916667  -0.4583333), wk =   0.0034722
        k(  239) = (   0.0416667   0.2916667  -0.4166667), wk =   0.0034722
        k(  240) = (   0.0416667   0.2916667  -0.3750000), wk =   0.0034722
        k(  241) = (   0.0416667   0.2916667  -0.3333333), wk =   0.0034722
        k(  242) = (   0.0416667   0.2916667  -0.2916667), wk =   0.0034722
        k(  243) = (   0.0416667   0.2916667  -0.2500000), wk =   0.0017361
        k(  244) = (   0.0416667   0.3333333   0.3750000), wk =   0.0017361
        k(  245) = (   0.0416667   0.3333333   0.4166667), wk =   0.0034722
        k(  246) = (   0.0416667   0.3333333   0.4583333), wk =   0.0034722
        k(  247) = (   0.0416667   0.3333333  -0.5000000), wk =   0.0034722
        k(  248) = (   0.0416667   0.3333333  -0.4583333), wk =   0.0034722
        k(  249) = (   0.0416667   0.3333333  -0.4166667), wk =   0.0034722
        k(  250) = (   0.0416667   0.3333333  -0.3750000), wk =   0.0034722
        k(  251) = (   0.0416667   0.3333333  -0.3333333), wk =   0.0034722
        k(  252) = (   0.0416667   0.3333333  -0.2916667), wk =   0.0017361
        k(  253) = (   0.0416667   0.3750000   0.4166667), wk =   0.0017361
        k(  254) = (   0.0416667   0.3750000   0.4583333), wk =   0.0034722
        k(  255) = (   0.0416667   0.3750000  -0.5000000), wk =   0.0034722
        k(  256) = (   0.0416667   0.3750000  -0.4583333), wk =   0.0034722
        k(  257) = (   0.0416667   0.3750000  -0.4166667), wk =   0.0034722
        k(  258) = (   0.0416667   0.3750000  -0.3750000), wk =   0.0034722
        k(  259) = (   0.0416667   0.3750000  -0.3333333), wk =   0.0017361
        k(  260) = (   0.0416667   0.4166667   0.4583333), wk =   0.0017361
        k(  261) = (   0.0416667   0.4166667  -0.5000000), wk =   0.0034722
        k(  262) = (   0.0416667   0.4166667  -0.4583333), wk =   0.0034722
        k(  263) = (   0.0416667   0.4166667  -0.4166667), wk =   0.0034722
        k(  264) = (   0.0416667   0.4166667  -0.3750000), wk =   0.0017361
        k(  265) = (   0.0416667   0.4583333  -0.5000000), wk =   0.0017361
        k(  266) = (   0.0416667   0.4583333  -0.4583333), wk =   0.0034722
        k(  267) = (   0.0416667   0.4583333  -0.4166667), wk =   0.0017361
        k(  268) = (   0.0416667  -0.5000000  -0.4583333), wk =   0.0008681
        k(  269) = (   0.0833333   0.1666667   0.2500000), wk =   0.0017361
        k(  270) = (   0.0833333   0.1666667   0.2916667), wk =   0.0034722
        k(  271) = (   0.0833333   0.1666667   0.3333333), wk =   0.0034722
        k(  272) = (   0.0833333   0.1666667   0.3750000), wk =   0.0034722
        k(  273) = (   0.0833333   0.1666667   0.4166667), wk =   0.0034722
        k(  274) = (   0.0833333   0.1666667   0.4583333), wk =   0.0034722
        k(  275) = (   0.0833333   0.1666667  -0.5000000), wk =   0.0034722
        k(  276) = (   0.0833333   0.1666667  -0.4583333), wk =   0.0034722
        k(  277) = (   0.0833333   0.1666667  -0.4166667), wk =   0.0017361
        k(  278) = (   0.0833333   0.2083333   0.2916667), wk =   0.0017361
        k(  279) = (   0.0833333   0.2083333   0.3333333), wk =   0.0034722
        k(  280) = (   0.0833333   0.2083333   0.3750000), wk =   0.0034722
        k(  281) = (   0.0833333   0.2083333   0.4166667), wk =   0.0034722
        k(  282) = (   0.0833333   0.2083333   0.4583333), wk =   0.0034722
        k(  283) = (   0.0833333   0.2083333  -0.5000000), wk =   0.0034722
        k(  284) = (   0.0833333   0.2083333  -0.4583333), wk =   0.0034722
        k(  285) = (   0.0833333   0.2083333  -0.4166667), wk =   0.0034722
        k(  286) = (   0.0833333   0.2083333  -0.3750000), wk =   0.0034722
        k(  287) = (   0.0833333   0.2083333  -0.3333333), wk =   0.0034722
        k(  288) = (   0.0833333   0.2083333  -0.2916667), wk =   0.0034722
        k(  289) = (   0.0833333   0.2083333  -0.2500000), wk =   0.0034722
        k(  290) = (   0.0833333   0.2083333  -0.2083333), wk =   0.0034722
        k(  291) = (   0.0833333   0.2083333  -0.1666667), wk =   0.0034722
        k(  292) = (   0.0833333   0.2083333  -0.1250000), wk =   0.0017361
        k(  293) = (   0.0833333   0.2500000   0.3333333), wk =   0.0017361
        k(  294) = (   0.0833333   0.2500000   0.3750000), wk =   0.0034722
        k(  295) = (   0.0833333   0.2500000   0.4166667), wk =   0.0034722
        k(  296) = (   0.0833333   0.2500000   0.4583333), wk =   0.0034722
        k(  297) = (   0.0833333   0.2500000  -0.5000000), wk =   0.0034722
        k(  298) = (   0.0833333   0.2500000  -0.4583333), wk =   0.0034722
        k(  299) = (   0.0833333   0.2500000  -0.4166667), wk =   0.0034722
        k(  300) = (   0.0833333   0.2500000  -0.3750000), wk =   0.0034722
        k(  301) = (   0.0833333   0.2500000  -0.3333333), wk =   0.0034722
        k(  302) = (   0.0833333   0.2500000  -0.2916667), wk =   0.0034722
        k(  303) = (   0.0833333   0.2500000  -0.2500000), wk =   0.0034722
        k(  304) = (   0.0833333   0.2500000  -0.2083333), wk =   0.0034722
        k(  305) = (   0.0833333   0.2500000  -0.1666667), wk =   0.0017361
        k(  306) = (   0.0833333   0.2916667   0.3750000), wk =   0.0017361
        k(  307) = (   0.0833333   0.2916667   0.4166667), wk =   0.0034722
        k(  308) = (   0.0833333   0.2916667   0.4583333), wk =   0.0034722
        k(  309) = (   0.0833333   0.2916667  -0.5000000), wk =   0.0034722
        k(  310) = (   0.0833333   0.2916667  -0.4583333), wk =   0.0034722
        k(  311) = (   0.0833333   0.2916667  -0.4166667), wk =   0.0034722
        k(  312) = (   0.0833333   0.2916667  -0.3750000), wk =   0.0034722
        k(  313) = (   0.0833333   0.2916667  -0.3333333), wk =   0.0034722
        k(  314) = (   0.0833333   0.2916667  -0.2916667), wk =   0.0034722
        k(  315) = (   0.0833333   0.2916667  -0.2500000), wk =   0.0034722
        k(  316) = (   0.0833333   0.2916667  -0.2083333), wk =   0.0017361
        k(  317) = (   0.0833333   0.3333333   0.4166667), wk =   0.0017361
        k(  318) = (   0.0833333   0.3333333   0.4583333), wk =   0.0034722
        k(  319) = (   0.0833333   0.3333333  -0.5000000), wk =   0.0034722
        k(  320) = (   0.0833333   0.3333333  -0.4583333), wk =   0.0034722
        k(  321) = (   0.0833333   0.3333333  -0.4166667), wk =   0.0034722
        k(  322) = (   0.0833333   0.3333333  -0.3750000), wk =   0.0034722
        k(  323) = (   0.0833333   0.3333333  -0.3333333), wk =   0.0034722
        k(  324) = (   0.0833333   0.3333333  -0.2916667), wk =   0.0034722
        k(  325) = (   0.0833333   0.3333333  -0.2500000), wk =   0.0017361
        k(  326) = (   0.0833333   0.3750000   0.4583333), wk =   0.0017361
        k(  327) = (   0.0833333   0.3750000  -0.5000000), wk =   0.0034722
[...]
     0.0000   0.0000

          k =-0.7041-0.5281-0.1760 (   418 PWs)   bands (ev):

     7.8738   8.4352   9.5886  10.5144  10.6711  12.6285  23.2258  23.9424
    24.3446  34.3970

     occupation numbers 
     1.0000   1.0000   1.0000   1.0000   1.0000   0.0030   0.0000   0.0000
     0.0000   0.0000

          k =-0.6748-0.4988-0.1467 (   412 PWs)   bands (ev):

     8.0370   8.4600   9.5129  10.4446  10.7637  13.5136  21.7914  23.3944
    23.8348  34.9553

     occupation numbers 
     1.0000   1.0000   1.0000   1.0000   1.0000   0.0000   0.0000   0.0000
     0.0000   0.0000

          k =-0.6455-0.4694-0.1174 (   409 PWs)   bands (ev):

     8.1712   8.5068   9.4290  10.3547  10.8240  14.5499  20.2074  22.6821
    23.9723  35.2431

     occupation numbers 
     1.0000   1.0000   1.0000   1.0000   1.0000   0.0000   0.0000   0.0000
     0.0000   0.0000

          k =-0.6161-0.4401-0.0880 (   409 PWs)   bands (ev):

     8.2919   8.5575   9.3371  10.2701  10.8392  15.7064  18.7134  22.0678
    24.2892  35.5040

     occupation numbers 
     1.0000   1.0000   1.0000   1.0000   1.0000   0.0000   0.0000   0.0000
     0.0000   0.0000

          k =-0.5868-0.4108-0.0587 (   409 PWs)   bands (ev):

     8.4097   8.5987   9.2283  10.2063  10.8133  16.7797  17.5163  21.5894
    24.7411  35.8160

     occupation numbers 
     1.0000   1.0000   1.0000   1.0000   1.0000   0.0000   0.0000   0.0000
     0.0000   0.0000

          k =-0.5574-0.3814-0.0293 (   408 PWs)   bands (ev):

     8.5116   8.6389   9.0950  10.1719  10.7541  15.9392  18.4012  21.3033
    25.3132  36.1996

     occupation numbers 
     1.0000   1.0000   1.0000   1.0000   1.0000   0.0000   0.0000   0.0000
     0.0000   0.0000

          k =-0.5281-0.3521 0.0000 (   407 PWs)   bands (ev):

     8.5266   8.7224   8.9599  10.1590  10.6751  14.8202  19.5186  21.4301
    25.9948  36.6432

     occupation numbers 
     1.0000   1.0000   1.0000   1.0000   1.0000   0.0000   0.0000   0.0000
     0.0000   0.0000

          k =-0.7041-0.5281-0.1174 (   414 PWs)   bands (ev):

     7.9323   8.3506   9.8081  10.5527  10.8222  13.7222  22.1964  22.7352
    23.5777  34.0907

     occupation numbers 
     1.0000   1.0000   1.0000   1.0000   1.0000   0.0000   0.0000   0.0000
     0.0000   0.0000

          k =-0.6748-0.4988-0.0880 (   412 PWs)   bands (ev):

     8.0418   8.3962   9.6977  10.4701  10.8766  14.7208  21.3552  21.5307
    23.4504  34.7198

     occupation numbers 
     1.0000   1.0000   1.0000   1.0000   1.0000   0.0000   0.0000   0.0000
     0.0000   0.0000

          k =-0.6455-0.4694-0.0587 (   413 PWs)   bands (ev):

     8.1530   8.4645   9.5625  10.3764  10.8942  15.8152  19.8971  20.9241
    23.7063  35.0877

     occupation numbers 
     1.0000   1.0000   1.0000   1.0000   1.0000   0.0000   0.0000   0.0000
     0.0000   0.0000

          k =-0.6161-0.4401-0.0293 (   412 PWs)   bands (ev):

     8.2699   8.5423   9.4053  10.2926  10.8724  16.9332  18.4763  20.5622
    24.1197  35.4215

     occupation numbers 
     1.0000   1.0000   1.0000   1.0000   1.0000   0.0000   0.0000   0.0000
     0.0000   0.0000

          k =-0.5868-0.4108-0.0000 (   412 PWs)   bands (ev):

     8.3924   8.6121   9.2363  10.2261  10.8203  17.1439  17.9024  20.5920
    24.6603  35.7914

     occupation numbers 
     1.0000   1.0000   1.0000   1.0000   1.0000   0.0000   0.0000   0.0000
     0.0000   0.0000

          k =-0.7041-0.5281-0.0587 (   415 PWs)   bands (ev):

     7.9284   8.2976   9.9769  10.5522  10.9225  14.8661  20.5033  22.4301
    23.2967  33.9082

     occupation numbers 
     1.0000   1.0000   1.0000   1.0000   1.0000   0.0000   0.0000   0.0000
     0.0000   0.0000

          k =-0.6748-0.4988-0.0293 (   413 PWs)   bands (ev):

     8.0265   8.3636   9.8120  10.4662  10.9398  15.7663  20.0702  21.2177
    23.2674  34.6025

     occupation numbers 
     1.0000   1.0000   1.0000   1.0000   1.0000   0.0000   0.0000   0.0000
     0.0000   0.0000

          k =-0.6455-0.4694-0.0000 (   414 PWs)   bands (ev):

     8.1409   8.4509   9.6145  10.3778  10.9202  16.5293  19.7020  20.1375
    23.6178  35.0359

     occupation numbers 
     1.0000   1.0000   1.0000   1.0000   1.0000   0.0000   0.0000   0.0000
     0.0000   0.0000

          k = 0.0000 0.1760-0.7041 (   418 PWs)   bands (ev):

     7.9218   8.2795  10.0420  10.5443  10.9577  15.4681  19.7216  22.3264
    23.2032  33.8476

     occupation numbers 
     1.0000   1.0000   1.0000   1.0000   1.0000   0.0000   0.0000   0.0000
     0.0000   0.0000

          k =-0.7041-0.4694-0.2347 (   413 PWs)   bands (ev):

     7.9232   8.6597   9.1612  10.2901  10.4900  12.3322  22.5742  23.5589
    27.0100  36.9361

     occupation numbers 
     1.0000   1.0000   1.0000   1.0000   1.0000   0.8442   0.0000   0.0000
     0.0000   0.0000

          k =-0.6748-0.4401-0.2054 (   412 PWs)   bands (ev):

     8.1851   8.6920   9.0741  10.2436  10.6034  13.1077  21.1418  23.2950
    26.1389  37.3270

     occupation numbers 
     1.0000   1.0000   1.0000   1.0000   1.0000   0.0000   0.0000   0.0000
     0.0000   0.0000

          k =-0.6455-0.4108-0.1760 (   412 PWs)   bands (ev):

     8.3500   8.7062   9.0544  10.1789  10.7019  14.0508  19.5527  23.4259
    25.3712  37.3135

     occupation numbers 
     1.0000   1.0000   1.0000   1.0000   1.0000   0.0000   0.0000   0.0000
     0.0000   0.0000

          k =-0.6161-0.3814-0.1467 (   410 PWs)   bands (ev):

     8.4613   8.6494   9.1047  10.1256  10.7629  15.1226  18.0805  23.7153
    24.7142  37.2628

     occupation numbers 
     1.0000   1.0000   1.0000   1.0000   1.0000   0.0000   0.0000   0.0000
     0.0000   0.0000

          k =-0.5868-0.3521-0.1174 (   416 PWs)   bands (ev):

     8.5448   8.5731   9.1349  10.1043  10.7833  15.9342  17.1348  24.0501
    24.2581  37.2419

     occupation numbers 
     1.0000   1.0000   1.0000   1.0000   1.0000   0.0000   0.0000   0.0000
     0.0000   0.0000

          k =-0.7041-0.4694-0.1760 (   412 PWs)   bands (ev):

     8.1244   8.5725   9.2541  10.3732  10.6699  13.2789  21.9166  23.0037
    24.7294  36.4871

     occupation numbers 
     1.0000   1.0000   1.0000   1.0000   1.0000   0.0000   0.0000   0.0000
     0.0000   0.0000

          k =-0.6748-0.4401-0.1467 (   410 PWs)   bands (ev):

     8.2670   8.6213   9.1828  10.3073  10.7550  14.2380  20.5830  22.8131
    23.9379  37.0577

     occupation numbers 
     1.0000   1.0000   1.0000   1.0000   1.0000   0.0000   0.0000   0.0000
     0.0000   0.0000

          k =-0.6455-0.4108-0.1174 (   412 PWs)   bands (ev):

     8.3683   8.6626   9.1334  10.2333  10.8135  15.3371  19.0859  23.0000
    23.2825  37.3122

     occupation numbers 
     1.0000   1.0000   1.0000   1.0000   1.0000   0.0000   0.0000   0.0000
     0.0000   0.0000

          k =-0.6161-0.3814-0.0880 (   410 PWs)   bands (ev):

     8.4450   8.6802   9.0941  10.1820  10.8320  16.4885  17.7438  22.6643
    23.4322  37.5406

     occupation numbers 
     1.0000   1.0000   1.0000   1.0000   1.0000   0.0000   0.0000   0.0000
     0.0000   0.0000

          k =-0.5868-0.3521-0.0587 (   410 PWs)   bands (ev):

     8.4791   8.7121   9.0312  10.1711  10.8100  16.1864  18.0796  22.2359
    23.9376  37.8172

     occupation numbers 
     1.0000   1.0000   1.0000   1.0000   1.0000   0.0000   0.0000   0.0000
     0.0000   0.0000

          k =-0.5574-0.3227-0.0293 (   408 PWs)   bands (ev):

     8.4523   8.7731   8.9468  10.1983  10.7518  15.0410  19.4504  21.9813
    24.5642  38.1576

     occupation numbers 
     1.0000   1.0000   1.0000   1.0000   1.0000   0.0000   0.0000   0.0000
     0.0000   0.0000

          k =-0.5281-0.2934-0.0000 (   408 PWs)   bands (ev):

     8.3643   8.7484   8.9661  10.2382  10.6705  14.0015  20.6754  22.1431
    25.2998  38.5265

     occupation numbers 
     1.0000   1.0000   1.0000   1.0000   1.0000   0.0000   0.0000   0.0000
     0.0000   0.0000

          k =-0.7041-0.4694-0.1174 (   412 PWs)   bands (ev):

     8.1489   8.5047   9.4281  10.4037  10.8209  14.4600  21.4241  22.4926
    22.7434  36.1661

     occupation numbers 
     1.0000   1.0000   1.0000   1.0000   1.0000   0.0000   0.0000   0.0000
     0.0000   0.0000

          k =-0.6748-0.4401-0.0880 (   411 PWs)   bands (ev):

     8.2411   8.5750   9.3304  10.3234  10.8737  15.5351  20.1905  21.9200
    22.5239  36.8453

     occupation numbers 
     1.0000   1.0000   1.0000   1.0000   1.0000   0.0000   0.0000   0.0000
     0.0000   0.0000

          k =-0.6455-0.4108-0.0587 (   408 PWs)   bands (ev):

     8.3230   8.6543   9.2197  10.2497  10.8919  16.7050  18.7830  21.3908
    22.8095  37.2446

     occupation numbers 
     1.0000   1.0000   1.0000   1.0000   1.0000   0.0000   0.0000   0.0000
     0.0000   0.0000

          k =-0.6161-0.3814-0.0293 (   408 PWs)   bands (ev):

     8.3950   8.7348   9.0910  10.2053  10.8715  17.3509  18.0042  21.0480
    23.2718  37.6089

     occupation numbers 
     1.0000   1.0000   1.0000   1.0000   1.0000   0.0000   0.0000   0.0000
     0.0000   0.0000

          k =-0.5868-0.3521 0.0000 (   408 PWs)   bands (ev):

     8.4467   8.8151   8.9496  10.1944  10.8191  16.1576  18.9927  21.1136
    23.8620  37.9813

     occupation numbers 
     1.0000   1.0000   1.0000   1.0000   1.0000   0.0000   0.0000   0.0000
     0.0000   0.0000

          k =-0.7041-0.4694-0.0587 (   415 PWs)   bands (ev):

     8.1239   8.4618   9.5760  10.3991  10.9222  15.7022  20.8384  21.1176
    22.3817  35.9737

     occupation numbers 
     1.0000   1.0000   1.0000   1.0000   1.0000   0.0000   0.0000   0.0000
     0.0000   0.0000

          k =-0.6748-0.4401-0.0293 (   410 PWs)   bands (ev):

     8.2103   8.5518   9.4260  10.3176  10.9397  16.7063  19.9600  20.4535
    22.3492  36.7339

     occupation numbers 
     1.0000   1.0000   1.0000   1.0000   1.0000   0.0000   0.0000   0.0000
     0.0000   0.0000

          k =-0.6455-0.4108 0.0000 (   409 PWs)   bands (ev):

     8.3016   8.6519   9.2556  10.2509  10.9205  17.5497  18.6459  20.4251
    22.7281  37.2142

     occupation numbers 
     1.0000   1.0000   1.0000   1.0000   1.0000   0.0000   0.0000   0.0000
     0.0000   0.0000

          k = 0.0000 0.2347-0.7041 (   418 PWs)   bands (ev):

     8.1106   8.4471   9.6335  10.3912  10.9579  16.3956  19.9744  21.0134
    22.2971  35.9097

     occupation numbers 
     1.0000   1.0000   1.0000   1.0000   1.0000   0.0000   0.0000   0.0000
     0.0000   0.0000

          k =-0.7041-0.4108-0.1174 (   408 PWs)   bands (ev):

     8.3445   8.7045   9.0935  10.2662  10.8196  15.2685  20.1706  21.7801
    23.1830  38.4087

     occupation numbers 
     1.0000   1.0000   1.0000   1.0000   1.0000   0.0000   0.0000   0.0000
     0.0000   0.0000

          k =-0.6748-0.3814-0.0880 (   409 PWs)   bands (ev):

     8.3826   8.7902   9.0211  10.2172  10.8721  16.4194  19.0476  21.6831
    22.5488  38.9066

     occupation numbers 
     1.0000   1.0000   1.0000   1.0000   1.0000   0.0000   0.0000   0.0000
     0.0000   0.0000

          k =-0.6455-0.3521-0.0587 (   406 PWs)   bands (ev):

     8.3949   8.8298   8.9886  10.1966  10.8912  17.4767  17.9369  21.9160
    22.1349  38.9548

     occupation numbers 
     1.0000   1.0000   1.0000   1.0000   1.0000   0.0000   0.0000   0.0000
     0.0000   0.0000

          k =-0.7041-0.4108-0.0587 (   406 PWs)   bands (ev):

     8.2918   8.6760   9.2146  10.2635  10.9217  16.6160  19.8555  21.2555
    21.6454  38.2097

     occupation numbers 
     1.0000   1.0000   1.0000   1.0000   1.0000   0.0000   0.0000   0.0000
     0.0000   0.0000

          k =-0.6748-0.3814-0.0293 (   407 PWs)   bands (ev):

     8.3324   8.7897   9.0841  10.2169  10.9397  17.7258  18.8292  20.8846
    21.5888  38.9919

     occupation numbers 
     1.0000   1.0000   1.0000   1.0000   1.0000   0.0000   0.0000   0.0000
     0.0000   0.0000

          k =-0.6455-0.3521 0.0000 (   406 PWs)   bands (ev):

     8.3643   8.9048   8.9410  10.2027  10.9211  17.5976  18.6624  20.9068
    21.9713  39.4135

     occupation numbers 
     1.0000   1.0000   1.0000   1.0000   1.0000   0.0000   0.0000   0.0000
     0.0000   0.0000

          k = 0.0000 0.2934-0.7041 (   408 PWs)   bands (ev):

     8.2698   8.6661   9.2615  10.2578  10.9581  17.4283  19.7481  20.3229
    21.5297  38.1434

     occupation numbers 
     1.0000   1.0000   1.0000   1.0000   1.0000   0.0000   0.0000   0.0000
     0.0000   0.0000

          k = 0.0000 0.3521-0.7041 (   412 PWs)   bands (ev):

     8.3345   8.9377   8.9377  10.2026  10.9581  18.5494  18.5494  20.6459
    21.0630  40.5326

     occupation numbers 
     1.0000   1.0000   1.0000   1.0000   1.0000   0.0000   0.0000   0.0000
     0.0000   0.0000

     the Fermi energy is    12.4159 ev

!    total energy              =    -121.48951319 Ry
     Harris-Foulkes estimate   =    -121.48951319 Ry
     estimated scf accuracy    <          2.9E-11 Ry

     The total energy is the sum of the following terms:

     one-electron contribution =     -29.03874455 Ry
     hartree contribution      =      31.22115273 Ry
     xc contribution           =     -42.80311846 Ry
     ewald contribution        =     -80.86884720 Ry
     smearing contrib. (-TS)   =       0.00004429 Ry

     total magnetization       =    -0.00 Bohr mag/cell
     absolute magnetization    =     0.00 Bohr mag/cell

     convergence has been achieved in   8 iterations

     Forces acting on atoms (cartesian axes, Ry/au):

     atom    1 type  1   force =     0.00000000    0.00000000    0.00000000
     The non-local contrib.  to forces
     atom    1 type  1   force =    -0.00000000    0.00000000    0.00000000
     The ionic contribution  to forces
     atom    1 type  1   force =     0.00000000    0.00000000    0.00000000
     The local contribution  to forces
     atom    1 type  1   force =     0.00000000   -0.00000000   -0.00000000
     The core correction contribution to forces
     atom    1 type  1   force =    -0.00000000   -0.00000000    0.00000000
     The Hubbard contrib.    to forces
     atom    1 type  1   force =     0.00000000    0.00000000    0.00000000
     The SCF correction term to forces
     atom    1 type  1   force =    -0.00000000    0.00000000   -0.00000000

     Total force =     0.000000     Total SCF correction =     0.000000


     Computing stress (Cartesian axis) and pressure

          total   stress  (Ry/bohr**3)                   (kbar)     P=    0.55
   0.00000376   0.00000000  -0.00000000          0.55      0.00     -0.00
   0.00000000   0.00000376   0.00000000          0.00      0.55      0.00
  -0.00000000   0.00000000   0.00000376         -0.00      0.00      0.55

     kinetic stress (kbar)  13213.77     -0.00      0.00
                               -0.00  13213.77      0.00
                                0.00     -0.00  13213.77

     local   stress (kbar)  23142.47      0.00      0.00
                                0.00  23142.47     -0.00
                                0.00     -0.00  23142.47

     nonloc. stress (kbar)   6851.06     -0.00      0.00
                               -0.00   6851.06      0.00
                                0.00      0.00   6851.06

     hartree stress (kbar)  18968.11      0.00     -0.00
                                0.00  18968.11      0.00
                               -0.00      0.00  18968.11

     exc-cor stress (kbar)  30037.98     -0.00     -0.00
                               -0.00  30037.98     -0.00
                               -0.00     -0.00  30037.98

     corecor stress (kbar) -43081.76     -0.00     -0.00
                               -0.00 -43081.76     -0.00
                               -0.00     -0.00 -43081.76

     ewald   stress (kbar) -49131.09      0.00     -0.00
                                0.00 -49131.09      0.00
                               -0.00      0.00 -49131.09

     hubbard stress (kbar)      0.00      0.00      0.00
                                0.00      0.00      0.00
                                0.00      0.00      0.00

     london  stress (kbar)      0.00      0.00      0.00
                                0.00      0.00      0.00
                                0.00      0.00      0.00

     DFT-D3  stress (kbar)      0.00      0.00      0.00
                                0.00      0.00      0.00
                                0.00      0.00      0.00

     XDM     stress (kbar)      0.00      0.00      0.00
                                0.00      0.00      0.00
                                0.00      0.00      0.00

     dft-nl  stress (kbar)      0.00      0.00      0.00
                                0.00      0.00      0.00
                                0.00      0.00      0.00

     TS-vdW  stress (kbar)      0.00      0.00      0.00
                                0.00      0.00      0.00
                                0.00      0.00      0.00


 
     init_run     :     43.07s CPU     35.89s WALL (       2 calls)
     electrons    :   4490.48s CPU   3659.98s WALL (       5 calls)
     update_pot   :      0.24s CPU      0.19s WALL (       2 calls)
     forces       :     35.42s CPU     28.59s WALL (       5 calls)
     stress       :     53.64s CPU     43.13s WALL (       5 calls)

     Called by init_run:
     wfcinit      :     42.04s CPU     34.84s WALL (       2 calls)
     wfcinit:atom :      0.31s CPU      0.29s WALL (    1652 calls)
     wfcinit:wfcr :     41.51s CPU     34.39s WALL (    1652 calls)
     potinit      :      0.17s CPU      0.14s WALL (       3 calls)
     hinit0       :      0.81s CPU      0.83s WALL (       2 calls)

     Called by electrons:
     c_bands      :   3754.01s CPU   3061.08s WALL (      63 calls)
     sum_band     :    732.08s CPU    595.21s WALL (      63 calls)
     v_of_rho     :      1.56s CPU      1.27s WALL (      68 calls)
     v_h          :      0.15s CPU      0.12s WALL (      68 calls)
     v_xc         :      1.61s CPU      1.30s WALL (      78 calls)
     newd         :      2.27s CPU      1.84s WALL (      68 calls)
     mix_rho      :      0.31s CPU      0.25s WALL (      63 calls)

     Called by c_bands:
     init_us_2    :     20.57s CPU     16.09s WALL (  113988 calls)
     cegterg      :   3641.68s CPU   2969.49s WALL (   52038 calls)

     Called by sum_band:
     sum_band:bec :      7.89s CPU      6.74s WALL (   52038 calls)
     addusdens    :      4.58s CPU      3.69s WALL (      63 calls)

     Called by *egterg:
     h_psi        :   3043.85s CPU   2478.15s WALL (  149399 calls)
     s_psi        :     12.53s CPU      9.63s WALL (  149399 calls)
     g_psi        :      8.48s CPU      6.87s WALL (   95709 calls)
     cdiaghg      :    193.32s CPU    157.98s WALL (  145269 calls)
     cegterg:over :    160.91s CPU    132.12s WALL (   95709 calls)
     cegterg:upda :     31.51s CPU     26.46s WALL (   95709 calls)
     cegterg:last :     10.74s CPU      9.17s WALL (   53033 calls)

     Called by h_psi:
     h_psi:pot    :   3031.12s CPU   2467.99s WALL (  149399 calls)
     h_psi:calbec :    123.80s CPU    101.42s WALL (  149399 calls)
     vloc_psi     :   2884.58s CPU   2347.76s WALL (  149399 calls)
     add_vuspsi   :     21.27s CPU     18.12s WALL (  149399 calls)

     General routines
     calbec       :    203.88s CPU    167.19s WALL (  222087 calls)
     fft          :      2.07s CPU      1.70s WALL (    1646 calls)
     ffts         :      0.13s CPU      0.11s WALL (     126 calls)
     fftw         :   3085.99s CPU   2518.14s WALL ( 3032094 calls)
 
     Parallel routines
     fft_scatt_xy :    234.25s CPU    186.05s WALL ( 3033866 calls)
     fft_scatt_yz :   1921.54s CPU   1596.74s WALL ( 3033866 calls)
 
     PWSCF        :     1h17m CPU       17h 1m WALL

       2h
 
   This run was terminated on:   6:20:14  21Feb2019            

=------------------------------------------------------------------------------=
   JOB DONE.
=------------------------------------------------------------------------------=
