
     Program PWSCF v.6.3MaX starts on  5Mar2019 at 13: 6:46 

     This program is part of the open-source Quantum ESPRESSO suite
     for quantum simulation of materials; please cite
         "P. Giannozzi et al., J. Phys.:Condens. Matter 21 395502 (2009);
         "P. Giannozzi et al., J. Phys.:Condens. Matter 29 465901 (2017);
          URL http://www.quantum-espresso.org", 
     in publications or presentations arising from this work. More details at
     http://www.quantum-espresso.org/quote

 *** WARNING: using old-style file format, will disappear from next version ***

     Parallel version (MPI & OpenMP), running on      20 processor cores
     Number of MPI processes:                 5
     Threads/MPI process:                     4

     MPI processes distributed on     1 nodes
     R & G space division:  proc/nbgrp/npool/nimage =       5
     Reading input from /home/azadoks/dftman/projects/HW5_1/ConvergenceWorkflows/76b61f81653f/6ed43e510867/pwscf.in

     Current dimensions of program PWSCF are:
     Max number of different atomic species (ntypx) = 10
     Max number of k-points (npk) =  40000
     Max angular momentum in pseudopotentials (lmaxx) =  3
     Message from routine iosys:
     minimal I/O required, wf_collect reset to FALSE

     Subspace diagonalization in iterative solution of the eigenvalue problem:
     a serial algorithm will be used

 
     Parallelization info
     --------------------
     sticks:   dense  smooth     PW     G-vecs:    dense   smooth      PW
     Min         679     679    170                29955    29955    3760
     Max         680     680    171                29958    29958    3763
     Sum        3397    3397    853               149781   149781   18805
 


     bravais-lattice index     =            0
     lattice parameter (alat)  =      18.8973  a.u.
     unit-cell volume          =    6748.3346 (a.u.)^3
     number of atoms/cell      =            2
     number of atomic types    =            1
     number of electrons       =         2.00
     number of Kohn-Sham states=            1
     kinetic-energy cutoff     =      30.0000  Ry
     charge density cutoff     =     120.0000  Ry
     convergence threshold     =      1.0E-08
     mixing beta               =       0.7000
     number of iterations used =            8  plain     mixing
     Exchange-correlation      =  SLA  PW   PBX  PBC ( 1  4  3  4 0 0)
     nstep                     =           50


     celldm(1)=  18.897261  celldm(2)=   0.000000  celldm(3)=   0.000000
     celldm(4)=   0.000000  celldm(5)=   0.000000  celldm(6)=   0.000000

     crystal axes: (cart. coord. in units of alat)
               a(1) = (   1.000000   0.000000   0.000000 )  
               a(2) = (   0.000000   1.000000   0.000000 )  
               a(3) = (   0.000000   0.000000   1.000000 )  

     reciprocal axes: (cart. coord. in units 2 pi/alat)
               b(1) = (  1.000000  0.000000  0.000000 )  
               b(2) = (  0.000000  1.000000  0.000000 )  
               b(3) = (  0.000000  0.000000  1.000000 )  


     PseudoPot. # 1 for H  read from file:
     /home/azadoks/.local/share/pseudo/GBRV_PBE_US/h_pbe_v1.4.uspp.F.UPF
     MD5 check sum: 761ae9a214b05c3daf00ab9f6b793d6f
     Pseudo is Ultrasoft, Zval =  1.0
     Generated by new atomic code, or converted to UPF format
     Using radial grid of  615 points,  2 beta functions with: 
                l(1) =   0
                l(2) =   0
     Q(r) pseudized with  8 coefficients,  rinner =    0.700

     atomic species   valence    mass     pseudopotential
        H              1.00     1.00790     H ( 1.00)

     16 Sym. Ops., with inversion, found


                                    s                        frac. trans.

      isym =  1     identity                                     

 cryst.   s( 1) = (     1          0          0      )
                  (     0          1          0      )
                  (     0          0          1      )

 cart.    s( 1) = (  1.0000000  0.0000000  0.0000000 )
                  (  0.0000000  1.0000000  0.0000000 )
                  (  0.0000000  0.0000000  1.0000000 )


      isym =  2     180 deg rotation - cart. axis [0,0,1]        

 cryst.   s( 2) = (    -1          0          0      )
                  (     0         -1          0      )
                  (     0          0          1      )

 cart.    s( 2) = ( -1.0000000  0.0000000  0.0000000 )
                  (  0.0000000 -1.0000000  0.0000000 )
                  (  0.0000000  0.0000000  1.0000000 )


      isym =  3     180 deg rotation - cart. axis [0,1,0]        

 cryst.   s( 3) = (    -1          0          0      )
                  (     0          1          0      )
                  (     0          0         -1      )

 cart.    s( 3) = ( -1.0000000  0.0000000  0.0000000 )
                  (  0.0000000  1.0000000  0.0000000 )
                  (  0.0000000  0.0000000 -1.0000000 )


      isym =  4     180 deg rotation - cart. axis [1,0,0]        

 cryst.   s( 4) = (     1          0          0      )
                  (     0         -1          0      )
                  (     0          0         -1      )

 cart.    s( 4) = (  1.0000000  0.0000000  0.0000000 )
                  (  0.0000000 -1.0000000  0.0000000 )
                  (  0.0000000  0.0000000 -1.0000000 )


      isym =  5     180 deg rotation - cart. axis [1,1,0]        

 cryst.   s( 5) = (     0          1          0      )
                  (     1          0          0      )
                  (     0          0         -1      )

 cart.    s( 5) = (  0.0000000  1.0000000  0.0000000 )
                  (  1.0000000  0.0000000  0.0000000 )
                  (  0.0000000  0.0000000 -1.0000000 )


      isym =  6     180 deg rotation - cart. axis [1,-1,0]       

 cryst.   s( 6) = (     0         -1          0      )
                  (    -1          0          0      )
                  (     0          0         -1      )

 cart.    s( 6) = (  0.0000000 -1.0000000  0.0000000 )
                  ( -1.0000000  0.0000000  0.0000000 )
                  (  0.0000000  0.0000000 -1.0000000 )


      isym =  7      90 deg rotation - cart. axis [0,0,-1]       

 cryst.   s( 7) = (     0         -1          0      )
                  (     1          0          0      )
                  (     0          0          1      )

 cart.    s( 7) = (  0.0000000  1.0000000  0.0000000 )
                  ( -1.0000000  0.0000000  0.0000000 )
                  (  0.0000000  0.0000000  1.0000000 )


      isym =  8      90 deg rotation - cart. axis [0,0,1]        

 cryst.   s( 8) = (     0          1          0      )
                  (    -1          0          0      )
                  (     0          0          1      )

 cart.    s( 8) = (  0.0000000 -1.0000000  0.0000000 )
                  (  1.0000000  0.0000000  0.0000000 )
                  (  0.0000000  0.0000000  1.0000000 )


      isym =  9     inversion                                    

 cryst.   s( 9) = (    -1          0          0      )
                  (     0         -1          0      )
                  (     0          0         -1      )

 cart.    s( 9) = ( -1.0000000  0.0000000  0.0000000 )
                  (  0.0000000 -1.0000000  0.0000000 )
                  (  0.0000000  0.0000000 -1.0000000 )


      isym = 10     inv. 180 deg rotation - cart. axis [0,0,1]   

 cryst.   s(10) = (     1          0          0      )
                  (     0          1          0      )
                  (     0          0         -1      )

 cart.    s(10) = (  1.0000000  0.0000000  0.0000000 )
                  (  0.0000000  1.0000000  0.0000000 )
                  (  0.0000000  0.0000000 -1.0000000 )


      isym = 11     inv. 180 deg rotation - cart. axis [0,1,0]   

 cryst.   s(11) = (     1          0          0      )
                  (     0         -1          0      )
                  (     0          0          1      )

 cart.    s(11) = (  1.0000000  0.0000000  0.0000000 )
                  (  0.0000000 -1.0000000  0.0000000 )
                  (  0.0000000  0.0000000  1.0000000 )


      isym = 12     inv. 180 deg rotation - cart. axis [1,0,0]   

 cryst.   s(12) = (    -1          0          0      )
                  (     0          1          0      )
                  (     0          0          1      )

 cart.    s(12) = ( -1.0000000  0.0000000  0.0000000 )
                  (  0.0000000  1.0000000  0.0000000 )
                  (  0.0000000  0.0000000  1.0000000 )


      isym = 13     inv. 180 deg rotation - cart. axis [1,1,0]   

 cryst.   s(13) = (     0         -1          0      )
                  (    -1          0          0      )
                  (     0          0          1      )

 cart.    s(13) = (  0.0000000 -1.0000000  0.0000000 )
                  ( -1.0000000  0.0000000  0.0000000 )
                  (  0.0000000  0.0000000  1.0000000 )


      isym = 14     inv. 180 deg rotation - cart. axis [1,-1,0]  

 cryst.   s(14) = (     0          1          0      )
                  (     1          0          0      )
                  (     0          0          1      )

 cart.    s(14) = (  0.0000000  1.0000000  0.0000000 )
                  (  1.0000000  0.0000000  0.0000000 )
                  (  0.0000000  0.0000000  1.0000000 )


      isym = 15     inv.  90 deg rotation - cart. axis [0,0,-1]  

 cryst.   s(15) = (     0          1          0      )
                  (    -1          0          0      )
                  (     0          0         -1      )

 cart.    s(15) = (  0.0000000 -1.0000000  0.0000000 )
                  (  1.0000000  0.0000000  0.0000000 )
                  (  0.0000000  0.0000000 -1.0000000 )


      isym = 16     inv.  90 deg rotation - cart. axis [0,0,1]   

 cryst.   s(16) = (     0         -1          0      )
                  (     1          0          0      )
                  (     0          0         -1      )

 cart.    s(16) = (  0.0000000  1.0000000  0.0000000 )
                  ( -1.0000000  0.0000000  0.0000000 )
                  (  0.0000000  0.0000000 -1.0000000 )


   Cartesian axes

     site n.     atom                  positions (alat units)
         1           H   tau(   1) = (   0.5000000   0.5000000   0.4440000  )
         2           H   tau(   2) = (   0.5000000   0.5000000   0.5560000  )

   Crystallographic axes

     site n.     atom                  positions (cryst. coord.)
         1           H   tau(   1) = (  0.5000000  0.5000000  0.4440000  )
         2           H   tau(   2) = (  0.5000000  0.5000000  0.5560000  )

     number of k points=     1
                       cart. coord. in units 2pi/alat
        k(    1) = (   0.0000000   0.0000000   0.0000000), wk =   2.0000000

                       cryst. coord.
        k(    1) = (   0.0000000   0.0000000   0.0000000), wk =   2.0000000

     Dense  grid:   149781 G-vectors     FFT dimensions: (  72,  72,  72)

     Dynamical RAM for                 wfc:       0.06 MB

     Dynamical RAM for     wfc (w. buffer):       0.06 MB

     Dynamical RAM for           str. fact:       0.46 MB

     Dynamical RAM for           local pot:       0.00 MB

     Dynamical RAM for          nlocal pot:       0.23 MB

     Dynamical RAM for                qrad:       0.15 MB

     Dynamical RAM for          rho,v,vnew:       3.15 MB

     Dynamical RAM for               rhoin:       1.05 MB

     Dynamical RAM for            rho*nmix:       7.31 MB

     Dynamical RAM for           G-vectors:       1.94 MB

     Dynamical RAM for          h,s,v(r/c):       0.00 MB

     Dynamical RAM for          <psi|beta>:       0.00 MB

     Dynamical RAM for                 psi:       0.23 MB

     Dynamical RAM for                hpsi:       0.23 MB

     Dynamical RAM for                spsi:       0.23 MB

     Dynamical RAM for      wfcinit/wfcrot:       0.23 MB

     Dynamical RAM for           addusdens:       3.66 MB

     Dynamical RAM for          addusforce:       4.80 MB

     Dynamical RAM for         addusstress:       4.11 MB

     Estimated static dynamical RAM per process >      18.23 MB

     Estimated max dynamical RAM per process >      23.03 MB

     Estimated total dynamical RAM >     115.16 MB

     Initial potential from superposition of free atoms
     Check: negative starting charge=   -0.004107

     starting charge    1.99998, renormalised to    2.00000

     negative rho (up, down):  4.107E-03 0.000E+00
     Starting wfcs are    2 randomized atomic wfcs

     total cpu time spent up to now is        0.9 secs

     Self-consistent Calculation

     iteration #  1     ecut=    30.00 Ry     beta= 0.70
     Davidson diagonalization with overlap
     ethr =  1.00E-02,  avg # of iterations =  2.0

     negative rho (up, down):  5.376E-03 0.000E+00

     total cpu time spent up to now is        1.0 secs

     total energy              =      -2.24191864 Ry
     Harris-Foulkes estimate   =      -2.25952440 Ry
     estimated scf accuracy    <       0.04067261 Ry

     iteration #  2     ecut=    30.00 Ry     beta= 0.70
     Davidson diagonalization with overlap
     ethr =  2.03E-03,  avg # of iterations =  1.0

     negative rho (up, down):  5.749E-03 0.000E+00

     total cpu time spent up to now is        1.2 secs

     total energy              =      -2.24419285 Ry
     Harris-Foulkes estimate   =      -2.24447085 Ry
     estimated scf accuracy    <       0.00077472 Ry

     iteration #  3     ecut=    30.00 Ry     beta= 0.70
     Davidson diagonalization with overlap
     ethr =  3.87E-05,  avg # of iterations =  2.0

     negative rho (up, down):  5.652E-03 0.000E+00

     total cpu time spent up to now is        1.3 secs

     total energy              =      -2.24433458 Ry
     Harris-Foulkes estimate   =      -2.24433821 Ry
     estimated scf accuracy    <       0.00001567 Ry

     iteration #  4     ecut=    30.00 Ry     beta= 0.70
     Davidson diagonalization with overlap
     ethr =  7.83E-07,  avg # of iterations =  1.0

     negative rho (up, down):  5.658E-03 0.000E+00

     total cpu time spent up to now is        1.4 secs

     total energy              =      -2.24433563 Ry
     Harris-Foulkes estimate   =      -2.24433611 Ry
     estimated scf accuracy    <       0.00000097 Ry

     iteration #  5     ecut=    30.00 Ry     beta= 0.70
     Davidson diagonalization with overlap
     ethr =  4.86E-08,  avg # of iterations =  1.0

     negative rho (up, down):  5.657E-03 0.000E+00

     total cpu time spent up to now is        1.5 secs

     End of self-consistent calculation

          k = 0.0000 0.0000 0.0000 ( 18805 PWs)   bands (ev):

    -8.9268

     occupation numbers 
     1.0000

     highest occupied level (ev):    -8.9268

!    total energy              =      -2.24433571 Ry
     Harris-Foulkes estimate   =      -2.24433572 Ry
     estimated scf accuracy    <          5.9E-09 Ry

     The total energy is the sum of the following terms:

     one-electron contribution =      -3.01562797 Ry
     hartree contribution      =       1.61789414 Ry
     xc contribution           =      -1.19382030 Ry
     ewald contribution        =       0.34721842 Ry

     convergence has been achieved in   5 iterations

     Forces acting on atoms (cartesian axes, Ry/au):

     atom    1 type  1   force =     0.00000000    0.00000000    0.17995854
     atom    2 type  1   force =     0.00000000    0.00000000   -0.17995854
     The non-local contrib.  to forces
     atom    1 type  1   force =     0.00000000    0.00000000    0.06909626
     atom    2 type  1   force =     0.00000000    0.00000000   -0.06909626
     The ionic contribution  to forces
     atom    1 type  1   force =     0.00000000    0.00000000   -0.44374836
     atom    2 type  1   force =    -0.00000000   -0.00000000    0.44374836
     The local contribution  to forces
     atom    1 type  1   force =     0.00000000    0.00000000    0.55462616
     atom    2 type  1   force =     0.00000000    0.00000000   -0.55462616
     The core correction contribution to forces
     atom    1 type  1   force =     0.00000000    0.00000000    0.00000000
     atom    2 type  1   force =     0.00000000    0.00000000    0.00000000
     The Hubbard contrib.    to forces
     atom    1 type  1   force =     0.00000000    0.00000000    0.00000000
     atom    2 type  1   force =     0.00000000    0.00000000    0.00000000
     The SCF correction term to forces
     atom    1 type  1   force =    -0.00000000   -0.00000000   -0.00001552
     atom    2 type  1   force =    -0.00000000    0.00000000    0.00001552

     Total force =     0.254500     Total SCF correction =     0.000022


     Computing stress (Cartesian axis) and pressure

          total   stress  (Ry/bohr**3)                   (kbar)     P=   -2.78
  -0.00000008   0.00000000   0.00000000         -0.01      0.00      0.00
   0.00000000  -0.00000008   0.00000000          0.00     -0.01      0.00
   0.00000000   0.00000000  -0.00005651          0.00      0.00     -8.31

     kinetic stress (kbar)     25.44      0.00      0.00
                                0.00     25.44      0.00
                                0.00      0.00     14.60

     local   stress (kbar)    -20.21     -0.00      0.00
                               -0.00    -20.21      0.00
                                0.00      0.00    -42.92

     nonloc. stress (kbar)     -2.57      0.00      0.00
                                0.00     -2.57      0.00
                                0.00      0.00     -3.55

     hartree stress (kbar)     10.06      0.00      0.00
                                0.00     10.06      0.00
                                0.00      0.00     15.16

     exc-cor stress (kbar)     -8.34      0.00      0.00
                                0.00     -8.34      0.00
                                0.00      0.00     -7.95

     corecor stress (kbar)      0.00      0.00      0.00
                                0.00      0.00      0.00
                                0.00      0.00      0.00

     ewald   stress (kbar)     -4.39      0.00     -0.00
                                0.00     -4.39     -0.00
                               -0.00     -0.00     16.36

     hubbard stress (kbar)      0.00      0.00      0.00
                                0.00      0.00      0.00
                                0.00      0.00      0.00

     london  stress (kbar)      0.00      0.00      0.00
                                0.00      0.00      0.00
                                0.00      0.00      0.00

     DFT-D3  stress (kbar)      0.00      0.00      0.00
                                0.00      0.00      0.00
                                0.00      0.00      0.00

     XDM     stress (kbar)      0.00      0.00      0.00
                                0.00      0.00      0.00
                                0.00      0.00      0.00

     dft-nl  stress (kbar)      0.00      0.00      0.00
                                0.00      0.00      0.00
                                0.00      0.00      0.00

     TS-vdW  stress (kbar)      0.00      0.00      0.00
                                0.00      0.00      0.00
                                0.00      0.00      0.00



     BFGS Geometry Optimization

     number of scf cycles    =   1
     number of bfgs steps    =   0

     enthalpy new            =      -2.2443357088 Ry

     new trust radius        =       0.1799585380 bohr
     new conv_thr            =       0.0000000100 Ry

     new unit-cell volume =   6738.77264 a.u.^3 (   998.58307 Ang^3 )
     density =      0.00335 g/cm^3

CELL_PARAMETERS (angstrom)
   9.999978911   0.000000000   0.000000000
   0.000000000   9.999978911   0.000000000
   0.000000000   0.000000000   9.985872780

ATOMIC_POSITIONS (crystal)
H        0.500000000   0.500000000   0.453522996
H        0.500000000   0.500000000   0.546477004


     Check: negative starting charge=   -0.004107
     NEW-OLD atomic charge density approx. for the potential
     Check: negative starting charge=   -0.004156

     negative rho (up, down):  5.570E-03 0.000E+00
     extrapolated charge    1.99716, renormalised to    2.00000

     total cpu time spent up to now is        3.6 secs

     Self-consistent Calculation

     iteration #  1     ecut=    30.00 Ry     beta= 0.70
     Davidson diagonalization with overlap
     ethr =  1.00E-06,  avg # of iterations =  4.0

     negative rho (up, down):  6.684E-03 0.000E+00

     total cpu time spent up to now is        4.1 secs

     total energy              =      -2.30390884 Ry
     Harris-Foulkes estimate   =      -2.30813687 Ry
     estimated scf accuracy    <       0.00363548 Ry

     iteration #  2     ecut=    30.00 Ry     beta= 0.70
     Davidson diagonalization with overlap
     ethr =  1.82E-04,  avg # of iterations =  1.0

     negative rho (up, down):  6.930E-03 0.000E+00

     total cpu time spent up to now is        4.4 secs

     total energy              =      -2.30422087 Ry
     Harris-Foulkes estimate   =      -2.30421023 Ry
     estimated scf accuracy    <       0.00004972 Ry

     iteration #  3     ecut=    30.00 Ry     beta= 0.70
     Davidson diagonalization with overlap
     ethr =  2.49E-06,  avg # of iterations =  2.0

     negative rho (up, down):  6.939E-03 0.000E+00

     total cpu time spent up to now is        4.8 secs

     total energy              =      -2.30423172 Ry
     Harris-Foulkes estimate   =      -2.30423025 Ry
     estimated scf accuracy    <       0.00000209 Ry

     iteration #  4     ecut=    30.00 Ry     beta= 0.70
     Davidson diagonalization with overlap
     ethr =  1.05E-07,  avg # of iterations =  1.0

     negative rho (up, down):  6.939E-03 0.000E+00

     total cpu time spent up to now is        5.0 secs

     End of self-consistent calculation

          k = 0.0000 0.0000 0.0000 ( 18805 PWs)   bands (ev):

    -9.5545

     occupation numbers 
     1.0000

     highest occupied level (ev):    -9.5545

!    total energy              =      -2.30423181 Ry
     Harris-Foulkes estimate   =      -2.30423182 Ry
     estimated scf accuracy    <          9.7E-09 Ry

     The total energy is the sum of the following terms:

     one-electron contribution =      -3.37312486 Ry
     hartree contribution      =       1.80322419 Ry
     xc contribution           =      -1.27560896 Ry
     ewald contribution        =       0.54127782 Ry

     convergence has been achieved in   4 iterations

     Forces acting on atoms (cartesian axes, Ry/au):

     atom    1 type  1   force =     0.00000000    0.00000000    0.13872091
     atom    2 type  1   force =     0.00000000    0.00000000   -0.13872091
     The non-local contrib.  to forces
     atom    1 type  1   force =     0.00000000    0.00000000    0.10510692
     atom    2 type  1   force =     0.00000000    0.00000000   -0.10510692
     The ionic contribution  to forces
     atom    1 type  1   force =    -0.00000000   -0.00000000   -0.64776981
     atom    2 type  1   force =     0.00000000    0.00000000    0.64776981
     The local contribution  to forces
     atom    1 type  1   force =     0.00000000    0.00000000    0.68140570
     atom    2 type  1   force =     0.00000000    0.00000000   -0.68140570
     The core correction contribution to forces
     atom    1 type  1   force =     0.00000000    0.00000000    0.00000000
     atom    2 type  1   force =     0.00000000    0.00000000    0.00000000
     The Hubbard contrib.    to forces
     atom    1 type  1   force =     0.00000000    0.00000000    0.00000000
     atom    2 type  1   force =     0.00000000    0.00000000    0.00000000
     The SCF correction term to forces
     atom    1 type  1   force =     0.00000000    0.00000000   -0.00002191
     atom    2 type  1   force =    -0.00000000    0.00000000    0.00002191

     Total force =     0.196181     Total SCF correction =     0.000031


     Computing stress (Cartesian axis) and pressure

          total   stress  (Ry/bohr**3)                   (kbar)     P=   -1.79
  -0.00000011   0.00000000   0.00000000         -0.02      0.00      0.00
   0.00000000  -0.00000011   0.00000000          0.00     -0.02      0.00
   0.00000000   0.00000000  -0.00003621          0.00      0.00     -5.33

     kinetic stress (kbar)     27.62      0.00      0.00
                                0.00     27.62      0.00
                                0.00      0.00     16.89

     local   stress (kbar)    -23.12     -0.00     -0.00
                               -0.00    -23.12     -0.00
                               -0.00     -0.00    -45.94

     nonloc. stress (kbar)     -2.84      0.00      0.00
                                0.00     -2.84      0.00
                                0.00      0.00     -4.42

     hartree stress (kbar)     11.64     -0.00     -0.00
                               -0.00     11.64      0.00
                               -0.00      0.00     16.08

     exc-cor stress (kbar)     -8.92      0.00      0.00
                                0.00     -8.92     -0.00
                                0.00     -0.00     -8.55

     corecor stress (kbar)      0.00      0.00      0.00
                                0.00      0.00      0.00
                                0.00      0.00      0.00

     ewald   stress (kbar)     -4.40      0.00      0.00
                                0.00     -4.40      0.00
                                0.00      0.00     20.61

     hubbard stress (kbar)      0.00      0.00      0.00
                                0.00      0.00      0.00
                                0.00      0.00      0.00

     london  stress (kbar)      0.00      0.00      0.00
                                0.00      0.00      0.00
                                0.00      0.00      0.00

     DFT-D3  stress (kbar)      0.00      0.00      0.00
                                0.00      0.00      0.00
                                0.00      0.00      0.00

     XDM     stress (kbar)      0.00      0.00      0.00
                                0.00      0.00      0.00
                                0.00      0.00      0.00

     dft-nl  stress (kbar)      0.00      0.00      0.00
                                0.00      0.00      0.00
                                0.00      0.00      0.00

     TS-vdW  stress (kbar)      0.00      0.00      0.00
                                0.00      0.00      0.00
                                0.00      0.00      0.00



     number of scf cycles    =   2
     number of bfgs steps    =   1

     enthalpy old            =      -2.2443357088 Ry
     enthalpy new            =      -2.3042318134 Ry

     CASE: enthalpy_new < enthalpy_old

     new trust radius        =       0.2695564599 bohr
     new conv_thr            =       0.0000000100 Ry

     new unit-cell volume =   6726.79452 a.u.^3 (   996.80809 Ang^3 )
     density =      0.00336 g/cm^3

CELL_PARAMETERS (angstrom)
   9.999925380   0.000000000   0.000000000
   0.000000000   9.999925380   0.000000000
   0.000000000   0.000000000   9.968229678

ATOMIC_POSITIONS (crystal)
H        0.500000000   0.500000000   0.467807489
H        0.500000000   0.500000000   0.532192511


     Check: negative starting charge=   -0.004156
     NEW-OLD atomic charge density approx. for the potential
     Check: negative starting charge=   -0.004258

     negative rho (up, down):  5.949E-03 0.000E+00
     extrapolated charge    1.99644, renormalised to    2.00000

     total cpu time spent up to now is        7.7 secs

     Self-consistent Calculation

     iteration #  1     ecut=    30.00 Ry     beta= 0.70
     Davidson diagonalization with overlap
     ethr =  1.00E-06,  avg # of iterations =  4.0

     negative rho (up, down):  9.842E-03 0.000E+00

     total cpu time spent up to now is        8.1 secs

     total energy              =      -2.30368845 Ry
     Harris-Foulkes estimate   =      -2.31669548 Ry
     estimated scf accuracy    <       0.01964149 Ry

     iteration #  2     ecut=    30.00 Ry     beta= 0.70
     Davidson diagonalization with overlap
     ethr =  9.82E-04,  avg # of iterations =  1.0

     negative rho (up, down):  1.076E-02 0.000E+00

     total cpu time spent up to now is        8.2 secs

     total energy              =      -2.30539658 Ry
     Harris-Foulkes estimate   =      -2.30538471 Ry
     estimated scf accuracy    <       0.00018880 Ry

     iteration #  3     ecut=    30.00 Ry     beta= 0.70
     Davidson diagonalization with overlap
     ethr =  9.44E-06,  avg # of iterations =  2.0

     negative rho (up, down):  1.090E-02 0.000E+00

     total cpu time spent up to now is        8.4 secs

     total energy              =      -2.30544439 Ry
     Harris-Foulkes estimate   =      -2.30543985 Ry
     estimated scf accuracy    <       0.00000759 Ry

     iteration #  4     ecut=    30.00 Ry     beta= 0.70
     Davidson diagonalization with overlap
     ethr =  3.79E-07,  avg # of iterations =  1.0

     negative rho (up, down):  1.090E-02 0.000E+00

     total cpu time spent up to now is        8.6 secs

     total energy              =      -2.30544470 Ry
     Harris-Foulkes estimate   =      -2.30544475 Ry
     estimated scf accuracy    <       0.00000011 Ry

     iteration #  5     ecut=    30.00 Ry     beta= 0.70
     Davidson diagonalization with overlap
     ethr =  5.36E-09,  avg # of iterations =  1.0

     negative rho (up, down):  1.089E-02 0.000E+00

     total cpu time spent up to now is        8.9 secs

     End of self-consistent calculation

          k = 0.0000 0.0000 0.0000 ( 18805 PWs)   bands (ev):

   -10.8689

     occupation numbers 
     1.0000

     highest occupied level (ev):   -10.8689

!    total energy              =      -2.30544471 Ry
     Harris-Foulkes estimate   =      -2.30544471 Ry
     estimated scf accuracy    <          3.3E-09 Ry

     The total energy is the sum of the following terms:

     one-electron contribution =      -4.07626965 Ry
     hartree contribution      =       2.16643089 Ry
     xc contribution           =      -1.44435361 Ry
     ewald contribution        =       1.04874765 Ry

     convergence has been achieved in   5 iterations

     Forces acting on atoms (cartesian axes, Ry/au):

     atom    1 type  1   force =     0.00000000    0.00000000   -0.24940557
     atom    2 type  1   force =     0.00000000    0.00000000    0.24940557
     The non-local contrib.  to forces
     atom    1 type  1   force =     0.00000000    0.00000000    0.20376078
     atom    2 type  1   force =     0.00000000    0.00000000   -0.20376078
     The ionic contribution  to forces
     atom    1 type  1   force =     0.00000000    0.00000000   -1.35810442
     atom    2 type  1   force =    -0.00000000   -0.00000000    1.35810442
     The local contribution  to forces
     atom    1 type  1   force =     0.00000000    0.00000000    0.90495048
     atom    2 type  1   force =     0.00000000    0.00000000   -0.90495048
     The core correction contribution to forces
     atom    1 type  1   force =     0.00000000    0.00000000    0.00000000
     atom    2 type  1   force =     0.00000000    0.00000000    0.00000000
     The Hubbard contrib.    to forces
     atom    1 type  1   force =     0.00000000    0.00000000    0.00000000
     atom    2 type  1   force =     0.00000000    0.00000000    0.00000000
     The SCF correction term to forces
     atom    1 type  1   force =    -0.00000000   -0.00000000   -0.00001241
     atom    2 type  1   force =     0.00000000    0.00000000    0.00001241

     Total force =     0.352713     Total SCF correction =     0.000018


     Computing stress (Cartesian axis) and pressure

          total   stress  (Ry/bohr**3)                   (kbar)     P=    2.19
  -0.00000015   0.00000000   0.00000000         -0.02      0.00      0.00
   0.00000000  -0.00000015   0.00000000          0.00     -0.02      0.00
   0.00000000   0.00000000   0.00004491          0.00      0.00      6.61

     kinetic stress (kbar)     32.05      0.00      0.00
                                0.00     32.05      0.00
                                0.00      0.00     23.35

     local   stress (kbar)    -29.11      0.00     -0.00
                                0.00    -29.11     -0.00
                               -0.00     -0.00    -50.49

     nonloc. stress (kbar)     -3.15      0.00      0.00
                                0.00     -3.15      0.00
                                0.00      0.00     -6.14

     hartree stress (kbar)     14.72     -0.00     -0.00
                               -0.00     14.72     -0.00
                               -0.00     -0.00     17.94

     exc-cor stress (kbar)    -10.12     -0.00     -0.00
                               -0.00    -10.12     -0.00
                               -0.00     -0.00     -9.80

     corecor stress (kbar)      0.00      0.00      0.00
                                0.00      0.00      0.00
                                0.00      0.00      0.00

     ewald   stress (kbar)     -4.41      0.00      0.00
                                0.00     -4.41      0.00
                                0.00      0.00     31.75

     hubbard stress (kbar)      0.00      0.00      0.00
                                0.00      0.00      0.00
                                0.00      0.00      0.00

     london  stress (kbar)      0.00      0.00      0.00
                                0.00      0.00      0.00
                                0.00      0.00      0.00

     DFT-D3  stress (kbar)      0.00      0.00      0.00
                                0.00      0.00      0.00
                                0.00      0.00      0.00

     XDM     stress (kbar)      0.00      0.00      0.00
                                0.00      0.00      0.00
                                0.00      0.00      0.00

     dft-nl  stress (kbar)      0.00      0.00      0.00
                                0.00      0.00      0.00
                                0.00      0.00      0.00

     TS-vdW  stress (kbar)      0.00      0.00      0.00
                                0.00      0.00      0.00
                                0.00      0.00      0.00



     number of scf cycles    =   3
     number of bfgs steps    =   2

     enthalpy old            =      -2.3042318134 Ry
     enthalpy new            =      -2.3054447131 Ry

     CASE: enthalpy_new < enthalpy_old

     new trust radius        =       0.1728149170 bohr
     new conv_thr            =       0.0000000012 Ry

     new unit-cell volume =   6733.23263 a.u.^3 (   997.76212 Ang^3 )
     density =      0.00335 g/cm^3

CELL_PARAMETERS (angstrom)
   9.999928591   0.000000000   0.000000000
   0.000000000   9.999928591   0.000000000
   0.000000000   0.000000000   9.977763716

ATOMIC_POSITIONS (crystal)
H        0.500000000   0.500000000   0.458633371
H        0.500000000   0.500000000   0.541366629


     Check: negative starting charge=   -0.004258
     NEW-OLD atomic charge density approx. for the potential
     Check: negative starting charge=   -0.004045

     negative rho (up, down):  8.984E-03 0.000E+00
     extrapolated charge    2.00191, renormalised to    2.00000

     total cpu time spent up to now is       11.6 secs

     Self-consistent Calculation

     iteration #  1     ecut=    30.00 Ry     beta= 0.70
     Davidson diagonalization with overlap
     ethr =  1.00E-06,  avg # of iterations =  4.0

     negative rho (up, down):  7.469E-03 0.000E+00

     total cpu time spent up to now is       12.0 secs

     total energy              =      -2.32442170 Ry
     Harris-Foulkes estimate   =      -2.32663505 Ry
     estimated scf accuracy    <       0.00957321 Ry

     iteration #  2     ecut=    30.00 Ry     beta= 0.70
     Davidson diagonalization with overlap
     ethr =  4.79E-04,  avg # of iterations =  2.0

     negative rho (up, down):  7.549E-03 0.000E+00

     total cpu time spent up to now is       12.1 secs

     total energy              =      -2.32544907 Ry
     Harris-Foulkes estimate   =      -2.32539812 Ry
     estimated scf accuracy    <       0.00011250 Ry

     iteration #  3     ecut=    30.00 Ry     beta= 0.70
     Davidson diagonalization with overlap
     ethr =  5.63E-06,  avg # of iterations =  1.0

     negative rho (up, down):  7.633E-03 0.000E+00

     total cpu time spent up to now is       12.3 secs

     total energy              =      -2.32545811 Ry
     Harris-Foulkes estimate   =      -2.32545279 Ry
     estimated scf accuracy    <       0.00000777 Ry

     iteration #  4     ecut=    30.00 Ry     beta= 0.70
     Davidson diagonalization with overlap
     ethr =  3.89E-07,  avg # of iterations =  1.0

     negative rho (up, down):  7.636E-03 0.000E+00

     total cpu time spent up to now is       12.5 secs

     total energy              =      -2.32545851 Ry
     Harris-Foulkes estimate   =      -2.32545855 Ry
     estimated scf accuracy    <       0.00000010 Ry

     iteration #  5     ecut=    30.00 Ry     beta= 0.70
     Davidson diagonalization with overlap
     ethr =  4.97E-09,  avg # of iterations =  2.0

     negative rho (up, down):  7.637E-03 0.000E+00

     total cpu time spent up to now is       12.7 secs

     total energy              =      -2.32545852 Ry
     Harris-Foulkes estimate   =      -2.32545853 Ry
     estimated scf accuracy    <          1.2E-09 Ry

     iteration #  6     ecut=    30.00 Ry     beta= 0.70
     Davidson diagonalization with overlap
     ethr =  6.10E-11,  avg # of iterations =  1.0

     negative rho (up, down):  7.638E-03 0.000E+00

     total cpu time spent up to now is       12.9 secs

     End of self-consistent calculation

          k = 0.0000 0.0000 0.0000 ( 18805 PWs)   bands (ev):

    -9.9657

     occupation numbers 
     1.0000

     highest occupied level (ev):    -9.9657

!    total energy              =      -2.32545852 Ry
     Harris-Foulkes estimate   =      -2.32545852 Ry
     estimated scf accuracy    <          2.8E-11 Ry

     The total energy is the sum of the following terms:

     one-electron contribution =      -3.59938769 Ry
     hartree contribution      =       1.92040414 Ry
     xc contribution           =      -1.32908132 Ry
     ewald contribution        =       0.68260634 Ry

     convergence has been achieved in   6 iterations

     Forces acting on atoms (cartesian axes, Ry/au):

     atom    1 type  1   force =     0.00000000    0.00000000    0.07198135
     atom    2 type  1   force =     0.00000000    0.00000000   -0.07198135
     The non-local contrib.  to forces
     atom    1 type  1   force =     0.00000000    0.00000000    0.13264297
     atom    2 type  1   force =     0.00000000    0.00000000   -0.13264297
     The ionic contribution  to forces
     atom    1 type  1   force =     0.00000000    0.00000000   -0.81988118
     atom    2 type  1   force =    -0.00000000   -0.00000000    0.81988118
     The local contribution  to forces
     atom    1 type  1   force =     0.00000000    0.00000000    0.75922008
     atom    2 type  1   force =     0.00000000    0.00000000   -0.75922008
     The core correction contribution to forces
     atom    1 type  1   force =     0.00000000    0.00000000    0.00000000
     atom    2 type  1   force =     0.00000000    0.00000000    0.00000000
     The Hubbard contrib.    to forces
     atom    1 type  1   force =     0.00000000    0.00000000    0.00000000
     atom    2 type  1   force =     0.00000000    0.00000000    0.00000000
     The SCF correction term to forces
     atom    1 type  1   force =    -0.00000000   -0.00000000   -0.00000053
     atom    2 type  1   force =    -0.00000000   -0.00000000    0.00000053

     Total force =     0.101797     Total SCF correction =     0.000001


     Computing stress (Cartesian axis) and pressure

          total   stress  (Ry/bohr**3)                   (kbar)     P=   -0.84
  -0.00000012   0.00000000   0.00000000         -0.02      0.00      0.00
   0.00000000  -0.00000012   0.00000000          0.00     -0.02      0.00
   0.00000000   0.00000000  -0.00001680          0.00      0.00     -2.47

     kinetic stress (kbar)     29.06      0.00      0.00
                                0.00     29.06      0.00
                                0.00      0.00     18.74

     local   stress (kbar)    -25.02      0.00     -0.00
                                0.00    -25.02     -0.00
                               -0.00     -0.00    -47.65

     nonloc. stress (kbar)     -2.99      0.00      0.00
                                0.00     -2.99      0.00
                                0.00      0.00     -5.01

     hartree stress (kbar)     12.64      0.00     -0.00
                                0.00     12.64     -0.00
                               -0.00     -0.00     16.67

     exc-cor stress (kbar)     -9.30     -0.00     -0.00
                               -0.00     -9.30     -0.00
                               -0.00     -0.00     -8.94

     corecor stress (kbar)      0.00      0.00      0.00
                                0.00      0.00      0.00
                                0.00      0.00      0.00

     ewald   stress (kbar)     -4.40      0.00      0.00
                                0.00     -4.40      0.00
                                0.00      0.00     23.72

     hubbard stress (kbar)      0.00      0.00      0.00
                                0.00      0.00      0.00
                                0.00      0.00      0.00

     london  stress (kbar)      0.00      0.00      0.00
                                0.00      0.00      0.00
                                0.00      0.00      0.00

     DFT-D3  stress (kbar)      0.00      0.00      0.00
                                0.00      0.00      0.00
                                0.00      0.00      0.00

     XDM     stress (kbar)      0.00      0.00      0.00
                                0.00      0.00      0.00
                                0.00      0.00      0.00

     dft-nl  stress (kbar)      0.00      0.00      0.00
                                0.00      0.00      0.00
                                0.00      0.00      0.00

     TS-vdW  stress (kbar)      0.00      0.00      0.00
                                0.00      0.00      0.00
                                0.00      0.00      0.00



     number of scf cycles    =   4
     number of bfgs steps    =   3

     enthalpy old            =      -2.3054447131 Ry
     enthalpy new            =      -2.3254585221 Ry

     CASE: enthalpy_new < enthalpy_old

     new trust radius        =       0.0387529934 bohr
     new conv_thr            =       0.0000000072 Ry

     new unit-cell volume =   6731.24639 a.u.^3 (   997.46779 Ang^3 )
     density =      0.00336 g/cm^3

CELL_PARAMETERS (angstrom)
   9.999895826   0.000000000   0.000000000
   0.000000000   9.999895826   0.000000000
   0.000000000   0.000000000   9.974885735

ATOMIC_POSITIONS (crystal)
H        0.500000000   0.500000000   0.460688661
H        0.500000000   0.500000000   0.539311339


     Check: negative starting charge=   -0.004045
     NEW-OLD atomic charge density approx. for the potential
     Check: negative starting charge=   -0.004135

     negative rho (up, down):  7.716E-03 0.000E+00
     extrapolated charge    1.99941, renormalised to    2.00000

     total cpu time spent up to now is       16.2 secs

     Self-consistent Calculation

     iteration #  1     ecut=    30.00 Ry     beta= 0.70
     Davidson diagonalization with overlap
     ethr =  1.00E-06,  avg # of iterations =  3.0

     negative rho (up, down):  8.155E-03 0.000E+00

     total cpu time spent up to now is       16.4 secs

     total energy              =      -2.32943114 Ry
     Harris-Foulkes estimate   =      -2.33024478 Ry
     estimated scf accuracy    <       0.00037761 Ry

     iteration #  2     ecut=    30.00 Ry     beta= 0.70
     Davidson diagonalization with overlap
     ethr =  1.89E-05,  avg # of iterations =  1.0

     negative rho (up, down):  8.248E-03 0.000E+00

     total cpu time spent up to now is       16.5 secs

     total energy              =      -2.32946727 Ry
     Harris-Foulkes estimate   =      -2.32946609 Ry
     estimated scf accuracy    <       0.00000411 Ry

     iteration #  3     ecut=    30.00 Ry     beta= 0.70
     Davidson diagonalization with overlap
     ethr =  2.05E-07,  avg # of iterations =  2.0

     negative rho (up, down):  8.259E-03 0.000E+00

     total cpu time spent up to now is       16.7 secs

     total energy              =      -2.32946829 Ry
     Harris-Foulkes estimate   =      -2.32946813 Ry
     estimated scf accuracy    <       0.00000022 Ry

     iteration #  4     ecut=    30.00 Ry     beta= 0.70
     Davidson diagonalization with overlap
     ethr =  1.12E-08,  avg # of iterations =  1.0

     negative rho (up, down):  8.259E-03 0.000E+00

     total cpu time spent up to now is       16.8 secs

     End of self-consistent calculation

          k = 0.0000 0.0000 0.0000 ( 18805 PWs)   bands (ev):

   -10.1491

     occupation numbers 
     1.0000

     highest occupied level (ev):   -10.1491

!    total energy              =      -2.32946831 Ry
     Harris-Foulkes estimate   =      -2.32946830 Ry
     estimated scf accuracy    <          6.8E-10 Ry

     The total energy is the sum of the following terms:

     one-electron contribution =      -3.69801682 Ry
     hartree contribution      =       1.97141105 Ry
     xc contribution           =      -1.35268016 Ry
     ewald contribution        =       0.74981763 Ry

     convergence has been achieved in   4 iterations

     Forces acting on atoms (cartesian axes, Ry/au):

     atom    1 type  1   force =     0.00000000    0.00000000    0.02896533
     atom    2 type  1   force =     0.00000000    0.00000000   -0.02896533
     The non-local contrib.  to forces
     atom    1 type  1   force =     0.00000000    0.00000000    0.14580478
     atom    2 type  1   force =     0.00000000    0.00000000   -0.14580478
     The ionic contribution  to forces
     atom    1 type  1   force =    -0.00000000   -0.00000000   -0.90869315
     atom    2 type  1   force =     0.00000000    0.00000000    0.90869315
     The local contribution  to forces
     atom    1 type  1   force =     0.00000000    0.00000000    0.79185916
     atom    2 type  1   force =     0.00000000    0.00000000   -0.79185916
     The core correction contribution to forces
     atom    1 type  1   force =     0.00000000    0.00000000    0.00000000
     atom    2 type  1   force =     0.00000000    0.00000000    0.00000000
     The Hubbard contrib.    to forces
     atom    1 type  1   force =     0.00000000    0.00000000    0.00000000
     atom    2 type  1   force =     0.00000000    0.00000000    0.00000000
     The SCF correction term to forces
     atom    1 type  1   force =     0.00000000    0.00000000   -0.00000546
     atom    2 type  1   force =     0.00000000   -0.00000000    0.00000546

     Total force =     0.040963     Total SCF correction =     0.000008


     Computing stress (Cartesian axis) and pressure

          total   stress  (Ry/bohr**3)                   (kbar)     P=   -0.33
  -0.00000013   0.00000000   0.00000000         -0.02      0.00      0.00
   0.00000000  -0.00000013   0.00000000          0.00     -0.02      0.00
   0.00000000   0.00000000  -0.00000650          0.00      0.00     -0.96

     kinetic stress (kbar)     29.70      0.00      0.00
                                0.00     29.70      0.00
                                0.00      0.00     19.63

     local   stress (kbar)    -25.87      0.00     -0.00
                                0.00    -25.87     -0.00
                               -0.00     -0.00    -48.32

     nonloc. stress (kbar)     -3.05      0.00      0.00
                                0.00     -3.05      0.00
                                0.00      0.00     -5.27

     hartree stress (kbar)     13.07      0.00      0.00
                                0.00     13.07     -0.00
                                0.00     -0.00     16.94

     exc-cor stress (kbar)     -9.47     -0.00     -0.00
                               -0.00     -9.47     -0.00
                               -0.00     -0.00     -9.12

     corecor stress (kbar)      0.00      0.00      0.00
                                0.00      0.00      0.00
                                0.00      0.00      0.00

     ewald   stress (kbar)     -4.40      0.00      0.00
                                0.00     -4.40      0.00
                                0.00      0.00     25.20

     hubbard stress (kbar)      0.00      0.00      0.00
                                0.00      0.00      0.00
                                0.00      0.00      0.00

     london  stress (kbar)      0.00      0.00      0.00
                                0.00      0.00      0.00
                                0.00      0.00      0.00

     DFT-D3  stress (kbar)      0.00      0.00      0.00
                                0.00      0.00      0.00
                                0.00      0.00      0.00

     XDM     stress (kbar)      0.00      0.00      0.00
                                0.00      0.00      0.00
                                0.00      0.00      0.00

     dft-nl  stress (kbar)      0.00      0.00      0.00
                                0.00      0.00      0.00
                                0.00      0.00      0.00

     TS-vdW  stress (kbar)      0.00      0.00      0.00
                                0.00      0.00      0.00
                                0.00      0.00      0.00



     number of scf cycles    =   5
     number of bfgs steps    =   4

     enthalpy old            =      -2.3254585221 Ry
     enthalpy new            =      -2.3294683082 Ry

     CASE: enthalpy_new < enthalpy_old

     new trust radius        =       0.0260736959 bohr
     new conv_thr            =       0.0000000029 Ry

     new unit-cell volume =   6729.93892 a.u.^3 (   997.27404 Ang^3 )
     density =      0.00336 g/cm^3

CELL_PARAMETERS (angstrom)
   9.999841151   0.000000000   0.000000000
   0.000000000   9.999841151   0.000000000
   0.000000000   0.000000000   9.973057281

ATOMIC_POSITIONS (crystal)
H        0.500000000   0.500000000   0.462071896
H        0.500000000   0.500000000   0.537928104


     Check: negative starting charge=   -0.004135
     NEW-OLD atomic charge density approx. for the potential
     Check: negative starting charge=   -0.004220

     negative rho (up, down):  8.374E-03 0.000E+00
     extrapolated charge    1.99961, renormalised to    2.00000

     total cpu time spent up to now is       19.5 secs

     Self-consistent Calculation

     iteration #  1     ecut=    30.00 Ry     beta= 0.70
     Davidson diagonalization with overlap
     ethr =  1.00E-06,  avg # of iterations =  3.0

     negative rho (up, down):  8.711E-03 0.000E+00

     total cpu time spent up to now is       19.8 secs

     total energy              =      -2.33004614 Ry
     Harris-Foulkes estimate   =      -2.33056860 Ry
     estimated scf accuracy    <       0.00019259 Ry

     iteration #  2     ecut=    30.00 Ry     beta= 0.70
     Davidson diagonalization with overlap
     ethr =  9.63E-06,  avg # of iterations =  1.0

     negative rho (up, down):  8.781E-03 0.000E+00

     total cpu time spent up to now is       20.1 secs

     total energy              =      -2.33006501 Ry
     Harris-Foulkes estimate   =      -2.33006437 Ry
     estimated scf accuracy    <       0.00000201 Ry

     iteration #  3     ecut=    30.00 Ry     beta= 0.70
     Davidson diagonalization with overlap
     ethr =  1.00E-07,  avg # of iterations =  2.0

     negative rho (up, down):  8.790E-03 0.000E+00

     total cpu time spent up to now is       20.4 secs

     total energy              =      -2.33006549 Ry
     Harris-Foulkes estimate   =      -2.33006542 Ry
     estimated scf accuracy    <       0.00000011 Ry

     iteration #  4     ecut=    30.00 Ry     beta= 0.70
     Davidson diagonalization with overlap
     ethr =  5.75E-09,  avg # of iterations =  1.0

     negative rho (up, down):  8.790E-03 0.000E+00

     total cpu time spent up to now is       20.6 secs

     End of self-consistent calculation

          k = 0.0000 0.0000 0.0000 ( 18805 PWs)   bands (ev):

   -10.2783

     occupation numbers 
     1.0000

     highest occupied level (ev):   -10.2783

!    total energy              =      -2.33006549 Ry
     Harris-Foulkes estimate   =      -2.33006550 Ry
     estimated scf accuracy    <          2.9E-10 Ry

     The total energy is the sum of the following terms:

     one-electron contribution =      -3.76698814 Ry
     hartree contribution      =       2.00702947 Ry
     xc contribution           =      -1.36926215 Ry
     ewald contribution        =       0.79915533 Ry

     convergence has been achieved in   4 iterations

     Forces acting on atoms (cartesian axes, Ry/au):

     atom    1 type  1   force =     0.00000000    0.00000000   -0.00727862
     atom    2 type  1   force =     0.00000000    0.00000000    0.00727862
     The non-local contrib.  to forces
     atom    1 type  1   force =     0.00000000    0.00000000    0.15542801
     atom    2 type  1   force =     0.00000000    0.00000000   -0.15542801
     The ionic contribution  to forces
     atom    1 type  1   force =     0.00000000    0.00000000   -0.97674882
     atom    2 type  1   force =    -0.00000000   -0.00000000    0.97674882
     The local contribution  to forces
     atom    1 type  1   force =     0.00000000    0.00000000    0.81404562
     atom    2 type  1   force =     0.00000000    0.00000000   -0.81404562
     The core correction contribution to forces
     atom    1 type  1   force =     0.00000000    0.00000000    0.00000000
     atom    2 type  1   force =     0.00000000    0.00000000    0.00000000
     The Hubbard contrib.    to forces
     atom    1 type  1   force =     0.00000000    0.00000000    0.00000000
     atom    2 type  1   force =     0.00000000    0.00000000    0.00000000
     The SCF correction term to forces
     atom    1 type  1   force =     0.00000000    0.00000000   -0.00000344
     atom    2 type  1   force =     0.00000000    0.00000000    0.00000344

     Total force =     0.010294     Total SCF correction =     0.000005


     Computing stress (Cartesian axis) and pressure

          total   stress  (Ry/bohr**3)                   (kbar)     P=    0.06
  -0.00000013   0.00000000   0.00000000         -0.02      0.00      0.00
   0.00000000  -0.00000013   0.00000000          0.00     -0.02      0.00
   0.00000000   0.00000000   0.00000141          0.00      0.00      0.21

     kinetic stress (kbar)     30.13      0.00      0.00
                                0.00     30.13      0.00
                                0.00      0.00     20.27

     local   stress (kbar)    -26.46     -0.00      0.00
                               -0.00    -26.46     -0.00
                                0.00     -0.00    -48.77

     nonloc. stress (kbar)     -3.08      0.00      0.00
                                0.00     -3.08      0.00
                                0.00      0.00     -5.45

     hartree stress (kbar)     13.38      0.00     -0.00
                                0.00     13.38      0.00
                               -0.00      0.00     17.12

     exc-cor stress (kbar)     -9.59     -0.00     -0.00
                               -0.00     -9.59     -0.00
                               -0.00     -0.00     -9.24

     corecor stress (kbar)      0.00      0.00      0.00
                                0.00      0.00      0.00
                                0.00      0.00      0.00

     ewald   stress (kbar)     -4.41      0.00     -0.00
                                0.00     -4.41     -0.00
                               -0.00     -0.00     26.28

     hubbard stress (kbar)      0.00      0.00      0.00
                                0.00      0.00      0.00
                                0.00      0.00      0.00

     london  stress (kbar)      0.00      0.00      0.00
                                0.00      0.00      0.00
                                0.00      0.00      0.00

     DFT-D3  stress (kbar)      0.00      0.00      0.00
                                0.00      0.00      0.00
                                0.00      0.00      0.00

     XDM     stress (kbar)      0.00      0.00      0.00
                                0.00      0.00      0.00
                                0.00      0.00      0.00

     dft-nl  stress (kbar)      0.00      0.00      0.00
                                0.00      0.00      0.00
                                0.00      0.00      0.00

     TS-vdW  stress (kbar)      0.00      0.00      0.00
                                0.00      0.00      0.00
                                0.00      0.00      0.00



     number of scf cycles    =   6
     number of bfgs steps    =   5

     enthalpy old            =      -2.3294683082 Ry
     enthalpy new            =      -2.3300654934 Ry

     CASE: enthalpy_new < enthalpy_old

     new trust radius        =       0.0052345840 bohr
     new conv_thr            =       0.0000000006 Ry

     new unit-cell volume =   6730.12711 a.u.^3 (   997.30193 Ang^3 )
     density =      0.00336 g/cm^3

CELL_PARAMETERS (angstrom)
   9.999819110   0.000000000   0.000000000
   0.000000000   9.999819110   0.000000000
   0.000000000   0.000000000   9.973380121

ATOMIC_POSITIONS (crystal)
H        0.500000000   0.500000000   0.461794145
H        0.500000000   0.500000000   0.538205855


     Check: negative starting charge=   -0.004220
     NEW-OLD atomic charge density approx. for the potential
     Check: negative starting charge=   -0.004203

     negative rho (up, down):  8.759E-03 0.000E+00
     extrapolated charge    2.00006, renormalised to    2.00000

     total cpu time spent up to now is       22.8 secs

     Self-consistent Calculation

     iteration #  1     ecut=    30.00 Ry     beta= 0.70
     Davidson diagonalization with overlap
     ethr =  1.00E-06,  avg # of iterations =  2.0

     negative rho (up, down):  8.694E-03 0.000E+00

     total cpu time spent up to now is       23.0 secs

     total energy              =      -2.33010000 Ry
     Harris-Foulkes estimate   =      -2.33004066 Ry
     estimated scf accuracy    <       0.00000796 Ry

     iteration #  2     ecut=    30.00 Ry     beta= 0.70
     Davidson diagonalization with overlap
     ethr =  3.98E-07,  avg # of iterations =  1.0

     negative rho (up, down):  8.680E-03 0.000E+00

     total cpu time spent up to now is       23.2 secs

     total energy              =      -2.33010071 Ry
     Harris-Foulkes estimate   =      -2.33010073 Ry
     estimated scf accuracy    <       0.00000010 Ry

     iteration #  3     ecut=    30.00 Ry     beta= 0.70
     Davidson diagonalization with overlap
     ethr =  5.15E-09,  avg # of iterations =  2.0

     negative rho (up, down):  8.679E-03 0.000E+00

     total cpu time spent up to now is       23.4 secs

     total energy              =      -2.33010071 Ry
     Harris-Foulkes estimate   =      -2.33010073 Ry
     estimated scf accuracy    <          5.1E-09 Ry

     iteration #  4     ecut=    30.00 Ry     beta= 0.70
     Davidson diagonalization with overlap
     ethr =  2.53E-10,  avg # of iterations =  1.0

     negative rho (up, down):  8.678E-03 0.000E+00

     total cpu time spent up to now is       23.5 secs

     End of self-consistent calculation

          k = 0.0000 0.0000 0.0000 ( 18805 PWs)   bands (ev):

   -10.2516

     occupation numbers 
     1.0000

     highest occupied level (ev):   -10.2516

!    total energy              =      -2.33010071 Ry
     Harris-Foulkes estimate   =      -2.33010071 Ry
     estimated scf accuracy    <          1.3E-10 Ry

     The total energy is the sum of the following terms:

     one-electron contribution =      -3.75296745 Ry
     hartree contribution      =       1.99978661 Ry
     xc contribution           =      -1.36588454 Ry
     ewald contribution        =       0.78896466 Ry

     convergence has been achieved in   4 iterations

     Forces acting on atoms (cartesian axes, Ry/au):

     atom    1 type  1   force =     0.00000000    0.00000000    0.00052473
     atom    2 type  1   force =     0.00000000    0.00000000   -0.00052473
     The non-local contrib.  to forces
     atom    1 type  1   force =     0.00000000    0.00000000    0.15343891
     atom    2 type  1   force =     0.00000000    0.00000000   -0.15343891
     The ionic contribution  to forces
     atom    1 type  1   force =     0.00000000    0.00000000   -0.96249632
     atom    2 type  1   force =    -0.00000000   -0.00000000    0.96249632
     The local contribution  to forces
     atom    1 type  1   force =     0.00000000    0.00000000    0.80957970
     atom    2 type  1   force =     0.00000000    0.00000000   -0.80957970
     The core correction contribution to forces
     atom    1 type  1   force =     0.00000000    0.00000000    0.00000000
     atom    2 type  1   force =     0.00000000    0.00000000    0.00000000
     The Hubbard contrib.    to forces
     atom    1 type  1   force =     0.00000000    0.00000000    0.00000000
     atom    2 type  1   force =     0.00000000    0.00000000    0.00000000
     The SCF correction term to forces
     atom    1 type  1   force =     0.00000000    0.00000000    0.00000243
     atom    2 type  1   force =     0.00000000   -0.00000000   -0.00000243

     Total force =     0.000742     Total SCF correction =     0.000003


     Computing stress (Cartesian axis) and pressure

          total   stress  (Ry/bohr**3)                   (kbar)     P=   -0.03
  -0.00000013   0.00000000   0.00000000         -0.02      0.00      0.00
   0.00000000  -0.00000013   0.00000000          0.00     -0.02      0.00
   0.00000000   0.00000000  -0.00000025          0.00      0.00     -0.04

     kinetic stress (kbar)     30.05      0.00      0.00
                                0.00     30.05      0.00
                                0.00      0.00     20.14

     local   stress (kbar)    -26.34      0.00      0.00
                                0.00    -26.34      0.00
                                0.00      0.00    -48.68

     nonloc. stress (kbar)     -3.07      0.00      0.00
                                0.00     -3.07      0.00
                                0.00      0.00     -5.41

     hartree stress (kbar)     13.31     -0.00      0.00
                               -0.00     13.31     -0.00
                                0.00     -0.00     17.08

     exc-cor stress (kbar)     -9.56      0.00     -0.00
                                0.00     -9.56      0.00
                               -0.00      0.00     -9.22

     corecor stress (kbar)      0.00      0.00      0.00
                                0.00      0.00      0.00
                                0.00      0.00      0.00

     ewald   stress (kbar)     -4.41      0.00     -0.00
                                0.00     -4.41     -0.00
                               -0.00     -0.00     26.06

     hubbard stress (kbar)      0.00      0.00      0.00
                                0.00      0.00      0.00
                                0.00      0.00      0.00

     london  stress (kbar)      0.00      0.00      0.00
                                0.00      0.00      0.00
                                0.00      0.00      0.00

     DFT-D3  stress (kbar)      0.00      0.00      0.00
                                0.00      0.00      0.00
                                0.00      0.00      0.00

     XDM     stress (kbar)      0.00      0.00      0.00
                                0.00      0.00      0.00
                                0.00      0.00      0.00

     dft-nl  stress (kbar)      0.00      0.00      0.00
                                0.00      0.00      0.00
                                0.00      0.00      0.00

     TS-vdW  stress (kbar)      0.00      0.00      0.00
                                0.00      0.00      0.00
                                0.00      0.00      0.00



     bfgs converged in   7 scf cycles and   6 bfgs steps
     (criteria: energy <  1.0E-04 Ry, force <  1.0E-03Ry/Bohr, cell <  5.0E-01kbar)

     End of BFGS Geometry Optimization

     Final enthalpy =      -2.3301007126 Ry
Begin final coordinates
     new unit-cell volume =   6730.12711 a.u.^3 (   997.30193 Ang^3 )
     density =      0.00336 g/cm^3

CELL_PARAMETERS (angstrom)
   9.999819110   0.000000000   0.000000000
   0.000000000   9.999819110   0.000000000
   0.000000000   0.000000000   9.973380121

ATOMIC_POSITIONS (crystal)
H        0.500000000   0.500000000   0.461794145
H        0.500000000   0.500000000   0.538205855
End final coordinates



     A final scf calculation at the relaxed structure.
     The G-vectors are recalculated for the final unit cell
     Results may differ from those at the preceding step.
 
     Parallelization info
     --------------------
     sticks:   dense  smooth     PW     G-vecs:    dense   smooth      PW
     Min         679     679    170                29869    29869    3760
     Max         680     680    171                29872    29872    3763
     Sum        3397    3397    853               149349   149349   18805
 


     bravais-lattice index     =            0
     lattice parameter (alat)  =      18.8973  a.u.
     unit-cell volume          =    6730.1271 (a.u.)^3
     number of atoms/cell      =            2
     number of atomic types    =            1
     number of electrons       =         2.00
     number of Kohn-Sham states=            1
     kinetic-energy cutoff     =      30.0000  Ry
     charge density cutoff     =     120.0000  Ry
     convergence threshold     =      6.0E-10
     mixing beta               =       0.7000
     number of iterations used =            8  plain     mixing
     Exchange-correlation      =  SLA  PW   PBX  PBC ( 1  4  3  4 0 0)

     celldm(1)=  18.897261  celldm(2)=   0.000000  celldm(3)=   0.000000
     celldm(4)=   0.000000  celldm(5)=   0.000000  celldm(6)=   0.000000

     crystal axes: (cart. coord. in units of alat)
               a(1) = (   0.999982   0.000000   0.000000 )  
               a(2) = (   0.000000   0.999982   0.000000 )  
               a(3) = (   0.000000   0.000000   0.997338 )  

     reciprocal axes: (cart. coord. in units 2 pi/alat)
               b(1) = (  1.000018  0.000000  0.000000 )  
               b(2) = (  0.000000  1.000018  0.000000 )  
               b(3) = (  0.000000  0.000000  1.002669 )  


     PseudoPot. # 1 for H  read from file:
     /home/azadoks/.local/share/pseudo/GBRV_PBE_US/h_pbe_v1.4.uspp.F.UPF
     MD5 check sum: 761ae9a214b05c3daf00ab9f6b793d6f
     Pseudo is Ultrasoft, Zval =  1.0
     Generated by new atomic code, or converted to UPF format
     Using radial grid of  615 points,  2 beta functions with: 
                l(1) =   0
                l(2) =   0
     Q(r) pseudized with  8 coefficients,  rinner =    0.700

     atomic species   valence    mass     pseudopotential
        H              1.00     1.00790     H ( 1.00)

     16 Sym. Ops., with inversion, found


                                    s                        frac. trans.

      isym =  1     identity                                     

 cryst.   s( 1) = (     1          0          0      )
                  (     0          1          0      )
                  (     0          0          1      )

 cart.    s( 1) = (  1.0000000  0.0000000  0.0000000 )
                  (  0.0000000  1.0000000  0.0000000 )
                  (  0.0000000  0.0000000  1.0000000 )


      isym =  2     180 deg rotation - cart. axis [0,0,1]        

 cryst.   s( 2) = (    -1          0          0      )
                  (     0         -1          0      )
                  (     0          0          1      )

 cart.    s( 2) = ( -1.0000000  0.0000000  0.0000000 )
                  (  0.0000000 -1.0000000  0.0000000 )
                  (  0.0000000  0.0000000  1.0000000 )


      isym =  3     180 deg rotation - cart. axis [0,1,0]        

 cryst.   s( 3) = (    -1          0          0      )
                  (     0          1          0      )
                  (     0          0         -1      )

 cart.    s( 3) = ( -1.0000000  0.0000000  0.0000000 )
                  (  0.0000000  1.0000000  0.0000000 )
                  (  0.0000000  0.0000000 -1.0000000 )


      isym =  4     180 deg rotation - cart. axis [1,0,0]        

 cryst.   s( 4) = (     1          0          0      )
                  (     0         -1          0      )
                  (     0          0         -1      )

 cart.    s( 4) = (  1.0000000  0.0000000  0.0000000 )
                  (  0.0000000 -1.0000000  0.0000000 )
                  (  0.0000000  0.0000000 -1.0000000 )


      isym =  5     180 deg rotation - cart. axis [1,1,0]        

 cryst.   s( 5) = (     0          1          0      )
                  (     1          0          0      )
                  (     0          0         -1      )

 cart.    s( 5) = (  0.0000000  1.0000000  0.0000000 )
                  (  1.0000000  0.0000000  0.0000000 )
                  (  0.0000000  0.0000000 -1.0000000 )


      isym =  6     180 deg rotation - cart. axis [1,-1,0]       

 cryst.   s( 6) = (     0         -1          0      )
                  (    -1          0          0      )
                  (     0          0         -1      )

 cart.    s( 6) = (  0.0000000 -1.0000000  0.0000000 )
                  ( -1.0000000  0.0000000  0.0000000 )
                  (  0.0000000  0.0000000 -1.0000000 )


      isym =  7      90 deg rotation - cart. axis [0,0,-1]       

 cryst.   s( 7) = (     0         -1          0      )
                  (     1          0          0      )
                  (     0          0          1      )

 cart.    s( 7) = (  0.0000000  1.0000000  0.0000000 )
                  ( -1.0000000  0.0000000  0.0000000 )
                  (  0.0000000  0.0000000  1.0000000 )


      isym =  8      90 deg rotation - cart. axis [0,0,1]        

 cryst.   s( 8) = (     0          1          0      )
                  (    -1          0          0      )
                  (     0          0          1      )

 cart.    s( 8) = (  0.0000000 -1.0000000  0.0000000 )
                  (  1.0000000  0.0000000  0.0000000 )
                  (  0.0000000  0.0000000  1.0000000 )


      isym =  9     inversion                                    

 cryst.   s( 9) = (    -1          0          0      )
                  (     0         -1          0      )
                  (     0          0         -1      )

 cart.    s( 9) = ( -1.0000000  0.0000000  0.0000000 )
                  (  0.0000000 -1.0000000  0.0000000 )
                  (  0.0000000  0.0000000 -1.0000000 )


      isym = 10     inv. 180 deg rotation - cart. axis [0,0,1]   

 cryst.   s(10) = (     1          0          0      )
                  (     0          1          0      )
                  (     0          0         -1      )

 cart.    s(10) = (  1.0000000  0.0000000  0.0000000 )
                  (  0.0000000  1.0000000  0.0000000 )
                  (  0.0000000  0.0000000 -1.0000000 )


      isym = 11     inv. 180 deg rotation - cart. axis [0,1,0]   

 cryst.   s(11) = (     1          0          0      )
                  (     0         -1          0      )
                  (     0          0          1      )

 cart.    s(11) = (  1.0000000  0.0000000  0.0000000 )
                  (  0.0000000 -1.0000000  0.0000000 )
                  (  0.0000000  0.0000000  1.0000000 )


      isym = 12     inv. 180 deg rotation - cart. axis [1,0,0]   

 cryst.   s(12) = (    -1          0          0      )
                  (     0          1          0      )
                  (     0          0          1      )

 cart.    s(12) = ( -1.0000000  0.0000000  0.0000000 )
                  (  0.0000000  1.0000000  0.0000000 )
                  (  0.0000000  0.0000000  1.0000000 )


      isym = 13     inv. 180 deg rotation - cart. axis [1,1,0]   

 cryst.   s(13) = (     0         -1          0      )
                  (    -1          0          0      )
                  (     0          0          1      )

 cart.    s(13) = (  0.0000000 -1.0000000  0.0000000 )
                  ( -1.0000000  0.0000000  0.0000000 )
                  (  0.0000000  0.0000000  1.0000000 )


      isym = 14     inv. 180 deg rotation - cart. axis [1,-1,0]  

 cryst.   s(14) = (     0          1          0      )
                  (     1          0          0      )
                  (     0          0          1      )

 cart.    s(14) = (  0.0000000  1.0000000  0.0000000 )
                  (  1.0000000  0.0000000  0.0000000 )
                  (  0.0000000  0.0000000  1.0000000 )


      isym = 15     inv.  90 deg rotation - cart. axis [0,0,-1]  

 cryst.   s(15) = (     0          1          0      )
                  (    -1          0          0      )
                  (     0          0         -1      )

 cart.    s(15) = (  0.0000000 -1.0000000  0.0000000 )
                  (  1.0000000  0.0000000  0.0000000 )
                  (  0.0000000  0.0000000 -1.0000000 )


      isym = 16     inv.  90 deg rotation - cart. axis [0,0,1]   

 cryst.   s(16) = (     0         -1          0      )
                  (     1          0          0      )
                  (     0          0         -1      )

 cart.    s(16) = (  0.0000000  1.0000000  0.0000000 )
                  ( -1.0000000  0.0000000  0.0000000 )
                  (  0.0000000  0.0000000 -1.0000000 )


   Cartesian axes

     site n.     atom                  positions (alat units)
         1           H   tau(   1) = (   0.4999910   0.4999910   0.4605649  )
         2           H   tau(   2) = (   0.4999910   0.4999910   0.5367732  )

   Crystallographic axes

     site n.     atom                  positions (cryst. coord.)
         1           H   tau(   1) = (  0.5000000  0.5000000  0.4617941  )
         2           H   tau(   2) = (  0.5000000  0.5000000  0.5382059  )

     number of k points=     1
                       cart. coord. in units 2pi/alat
        k(    1) = (   0.0000000   0.0000000   0.0000000), wk =   2.0000000

                       cryst. coord.
        k(    1) = (   0.0000000   0.0000000   0.0000000), wk =   2.0000000

     Dense  grid:   149349 G-vectors     FFT dimensions: (  72,  72,  72)

     Dynamical RAM for                 wfc:       0.06 MB

     Dynamical RAM for     wfc (w. buffer):       0.06 MB

     Dynamical RAM for           str. fact:       0.46 MB

     Dynamical RAM for           local pot:       0.23 MB

     Dynamical RAM for          nlocal pot:       0.23 MB

     Dynamical RAM for                qrad:       0.15 MB

     Dynamical RAM for          rho,v,vnew:       3.15 MB

     Dynamical RAM for               rhoin:       1.05 MB

     Dynamical RAM for            rho*nmix:       7.29 MB

     Dynamical RAM for           G-vectors:       1.94 MB

     Dynamical RAM for          h,s,v(r/c):       0.00 MB

     Dynamical RAM for          <psi|beta>:       0.00 MB

     Dynamical RAM for                 psi:       0.23 MB

     Dynamical RAM for                hpsi:       0.23 MB

     Dynamical RAM for                spsi:       0.23 MB

     Dynamical RAM for      wfcinit/wfcrot:       0.23 MB

     Dynamical RAM for           addusdens:       3.65 MB

     Dynamical RAM for          addusforce:       4.79 MB

     Dynamical RAM for         addusstress:       4.10 MB

     Estimated static dynamical RAM per process >      18.42 MB

     Estimated max dynamical RAM per process >      23.21 MB

     Estimated total dynamical RAM >     116.05 MB

     Initial potential from superposition of free atoms
     Check: negative starting charge=   -0.004272

     starting charge    1.99998, renormalised to    2.00000

     negative rho (up, down):  4.272E-03 0.000E+00
     Starting wfcs are    2 randomized atomic wfcs

     total cpu time spent up to now is       25.5 secs

     Self-consistent Calculation

     iteration #  1     ecut=    30.00 Ry     beta= 0.70
     Davidson diagonalization with overlap
     ethr =  1.00E-06,  avg # of iterations =  4.0

     negative rho (up, down):  7.854E-03 0.000E+00

     total cpu time spent up to now is       25.8 secs

     total energy              =      -2.32251684 Ry
     Harris-Foulkes estimate   =      -2.37683892 Ry
     estimated scf accuracy    <       0.10774940 Ry

     iteration #  2     ecut=    30.00 Ry     beta= 0.70
     Davidson diagonalization with overlap
     ethr =  5.39E-03,  avg # of iterations =  1.0

     negative rho (up, down):  8.797E-03 0.000E+00

     total cpu time spent up to now is       25.9 secs

     total energy              =      -2.32978325 Ry
     Harris-Foulkes estimate   =      -2.33043993 Ry
     estimated scf accuracy    <       0.00121562 Ry

     iteration #  3     ecut=    30.00 Ry     beta= 0.70
     Davidson diagonalization with overlap
     ethr =  6.08E-05,  avg # of iterations =  2.0

     negative rho (up, down):  8.766E-03 0.000E+00

     total cpu time spent up to now is       26.2 secs

     total energy              =      -2.33009760 Ry
     Harris-Foulkes estimate   =      -2.33010195 Ry
     estimated scf accuracy    <       0.00001070 Ry

     iteration #  4     ecut=    30.00 Ry     beta= 0.70
     Davidson diagonalization with overlap
     ethr =  5.35E-07,  avg # of iterations =  2.0

     negative rho (up, down):  8.785E-03 0.000E+00

     total cpu time spent up to now is       26.5 secs

     total energy              =      -2.33009931 Ry
     Harris-Foulkes estimate   =      -2.33009933 Ry
     estimated scf accuracy    <       0.00000044 Ry

     iteration #  5     ecut=    30.00 Ry     beta= 0.70
     Davidson diagonalization with overlap
     ethr =  2.19E-08,  avg # of iterations =  1.0

     negative rho (up, down):  8.784E-03 0.000E+00

     total cpu time spent up to now is       26.7 secs

     total energy              =      -2.33009934 Ry
     Harris-Foulkes estimate   =      -2.33009935 Ry
     estimated scf accuracy    <          2.9E-09 Ry

     iteration #  6     ecut=    30.00 Ry     beta= 0.70
     Davidson diagonalization with overlap
     ethr =  1.47E-10,  avg # of iterations =  2.0

     negative rho (up, down):  8.784E-03 0.000E+00

     total cpu time spent up to now is       26.9 secs

     End of self-consistent calculation

          k = 0.0000 0.0000 0.0000 ( 18805 PWs)   bands (ev):

   -10.2517

     occupation numbers 
     1.0000

     highest occupied level (ev):   -10.2517

!    total energy              =      -2.33009935 Ry
     Harris-Foulkes estimate   =      -2.33009935 Ry
     estimated scf accuracy    <          1.1E-10 Ry

     The total energy is the sum of the following terms:

     one-electron contribution =      -3.75297782 Ry
     hartree contribution      =       1.99980771 Ry
     xc contribution           =      -1.36589389 Ry
     ewald contribution        =       0.78896466 Ry

     convergence has been achieved in   6 iterations

     Forces acting on atoms (cartesian axes, Ry/au):

     atom    1 type  1   force =     0.00000000    0.00000000    0.00053056
     atom    2 type  1   force =     0.00000000    0.00000000   -0.00053056
     The non-local contrib.  to forces
     atom    1 type  1   force =     0.00000000    0.00000000    0.15344093
     atom    2 type  1   force =     0.00000000    0.00000000   -0.15344093
     The ionic contribution  to forces
     atom    1 type  1   force =     0.00000000    0.00000000   -0.96249632
     atom    2 type  1   force =    -0.00000000   -0.00000000    0.96249632
     The local contribution  to forces
     atom    1 type  1   force =     0.00000000    0.00000000    0.80958815
     atom    2 type  1   force =     0.00000000    0.00000000   -0.80958815
     The core correction contribution to forces
     atom    1 type  1   force =     0.00000000    0.00000000    0.00000000
     atom    2 type  1   force =     0.00000000    0.00000000    0.00000000
     The Hubbard contrib.    to forces
     atom    1 type  1   force =     0.00000000    0.00000000    0.00000000
     atom    2 type  1   force =     0.00000000    0.00000000    0.00000000
     The SCF correction term to forces
     atom    1 type  1   force =    -0.00000000   -0.00000000   -0.00000221
     atom    2 type  1   force =    -0.00000000   -0.00000000    0.00000221

     Total force =     0.000750     Total SCF correction =     0.000003


     Computing stress (Cartesian axis) and pressure

          total   stress  (Ry/bohr**3)                   (kbar)     P=   -0.02
  -0.00000013   0.00000000   0.00000000         -0.02      0.00      0.00
   0.00000000  -0.00000013   0.00000000          0.00     -0.02      0.00
   0.00000000   0.00000000  -0.00000025          0.00      0.00     -0.04

     kinetic stress (kbar)     30.05      0.00      0.00
                                0.00     30.05      0.00
                                0.00      0.00     20.14

     local   stress (kbar)    -26.34      0.00     -0.00
                                0.00    -26.34     -0.00
                               -0.00     -0.00    -48.68

     nonloc. stress (kbar)     -3.07      0.00      0.00
                                0.00     -3.07      0.00
                                0.00      0.00     -5.41

     hartree stress (kbar)     13.31     -0.00      0.00
                               -0.00     13.31      0.00
                                0.00      0.00     17.08

     exc-cor stress (kbar)     -9.56      0.00     -0.00
                                0.00     -9.56      0.00
                               -0.00      0.00     -9.22

     corecor stress (kbar)      0.00      0.00      0.00
                                0.00      0.00      0.00
                                0.00      0.00      0.00

     ewald   stress (kbar)     -4.41      0.00     -0.00
                                0.00     -4.41     -0.00
                               -0.00     -0.00     26.06

     hubbard stress (kbar)      0.00      0.00      0.00
                                0.00      0.00      0.00
                                0.00      0.00      0.00

     london  stress (kbar)      0.00      0.00      0.00
                                0.00      0.00      0.00
                                0.00      0.00      0.00

     DFT-D3  stress (kbar)      0.00      0.00      0.00
                                0.00      0.00      0.00
                                0.00      0.00      0.00

     XDM     stress (kbar)      0.00      0.00      0.00
                                0.00      0.00      0.00
                                0.00      0.00      0.00

     dft-nl  stress (kbar)      0.00      0.00      0.00
                                0.00      0.00      0.00
                                0.00      0.00      0.00

     TS-vdW  stress (kbar)      0.00      0.00      0.00
                                0.00      0.00      0.00
                                0.00      0.00      0.00


 
     init_run     :      3.38s CPU      1.55s WALL (       2 calls)
     electrons    :     15.34s CPU      8.34s WALL (       8 calls)
     update_pot   :     10.32s CPU      7.97s WALL (       6 calls)
     forces       :      4.44s CPU      3.31s WALL (       8 calls)
     stress       :      7.57s CPU      6.02s WALL (       8 calls)

     Called by init_run:
     wfcinit      :      0.20s CPU      0.08s WALL (       2 calls)
     wfcinit:atom :      0.00s CPU      0.00s WALL (       2 calls)
     wfcinit:wfcr :      0.19s CPU      0.08s WALL (       2 calls)
     potinit      :      2.16s CPU      0.85s WALL (       2 calls)
     hinit0       :      0.69s CPU      0.45s WALL (       2 calls)

     Called by electrons:
     c_bands      :      4.15s CPU      2.16s WALL (      38 calls)
     sum_band     :      2.31s CPU      1.27s WALL (      38 calls)
     v_of_rho     :      7.74s CPU      4.15s WALL (      46 calls)
     v_h          :      0.94s CPU      0.48s WALL (      46 calls)
     v_xc         :      6.80s CPU      3.66s WALL (      46 calls)
     newd         :      1.30s CPU      0.69s WALL (      46 calls)
     mix_rho      :      1.25s CPU      0.71s WALL (      38 calls)

     Called by c_bands:
     init_us_2    :      0.08s CPU      0.04s WALL (      78 calls)
     cegterg      :      3.70s CPU      1.93s WALL (      38 calls)

     Called by sum_band:
     sum_band:bec :      0.02s CPU      0.01s WALL (      38 calls)
     addusdens    :      0.14s CPU      0.08s WALL (      38 calls)

     Called by *egterg:
     h_psi        :      2.66s CPU      1.35s WALL (     107 calls)
     s_psi        :      0.01s CPU      0.01s WALL (     107 calls)
     g_psi        :      0.02s CPU      0.01s WALL (      67 calls)
     cdiaghg      :      0.06s CPU      0.04s WALL (      99 calls)
     cegterg:over :      0.49s CPU      0.26s WALL (      67 calls)
     cegterg:upda :      0.05s CPU      0.03s WALL (      67 calls)
     cegterg:last :      0.04s CPU      0.02s WALL (      42 calls)

     Called by h_psi:
     h_psi:pot    :      2.62s CPU      1.33s WALL (     107 calls)
     h_psi:calbec :      0.52s CPU      0.24s WALL (     107 calls)
     vloc_psi     :      2.02s CPU      1.04s WALL (     107 calls)
     add_vuspsi   :      0.07s CPU      0.05s WALL (     107 calls)

     General routines
     calbec       :      0.88s CPU      0.44s WALL (     185 calls)
     fft          :     11.63s CPU      6.83s WALL (     584 calls)
     ffts         :      0.35s CPU      0.19s WALL (      38 calls)
     fftw         :      2.15s CPU      1.12s WALL (     256 calls)
 
     Parallel routines
     fft_scatt_xy :      0.26s CPU      0.15s WALL (     878 calls)
     fft_scatt_yz :     11.23s CPU      6.40s WALL (     878 calls)
 
     PWSCF        :    41.57s CPU        27.49s WALL

 
   This run was terminated on:  13: 7:14   5Mar2019            

=------------------------------------------------------------------------------=
   JOB DONE.
=------------------------------------------------------------------------------=
