
     Program PWSCF v.6.3MaX starts on  5Mar2019 at 23:45:29 

     This program is part of the open-source Quantum ESPRESSO suite
     for quantum simulation of materials; please cite
         "P. Giannozzi et al., J. Phys.:Condens. Matter 21 395502 (2009);
         "P. Giannozzi et al., J. Phys.:Condens. Matter 29 465901 (2017);
          URL http://www.quantum-espresso.org", 
     in publications or presentations arising from this work. More details at
     http://www.quantum-espresso.org/quote

 *** WARNING: using old-style file format, will disappear from next version ***

     Parallel version (MPI & OpenMP), running on      20 processor cores
     Number of MPI processes:                 5
     Threads/MPI process:                     4

     MPI processes distributed on     1 nodes
     R & G space division:  proc/nbgrp/npool/nimage =       5
     Reading input from /home/azadoks/dftman/projects/HW5_1/LocalJobs/dftman_251928_e0a564331d0a/pwscf.in

     Current dimensions of program PWSCF are:
     Max number of different atomic species (ntypx) = 10
     Max number of k-points (npk) =  40000
     Max angular momentum in pseudopotentials (lmaxx) =  3
     Message from routine iosys:
     minimal I/O required, wf_collect reset to FALSE

     Subspace diagonalization in iterative solution of the eigenvalue problem:
     a serial algorithm will be used

     Found symmetry operation: I + (  0.0000 -0.5000 -0.5000)
     This is a supercell, fractional translations are disabled
 
     Parallelization info
     --------------------
     sticks:   dense  smooth     PW     G-vecs:    dense   smooth      PW
     Min         133     133     42                 2593     2593     458
     Max         133     133     43                 2593     2593     461
     Sum         665     665    213                12965    12965    2301
 


     bravais-lattice index     =            0
     lattice parameter (alat)  =       7.7165  a.u.
     unit-cell volume          =     459.4755 (a.u.)^3
     number of atoms/cell      =            8
     number of atomic types    =            2
     number of electrons       =        16.00
     number of Kohn-Sham states=           12
     kinetic-energy cutoff     =      35.0000  Ry
     charge density cutoff     =     140.0000  Ry
     convergence threshold     =      1.0E-08
     mixing beta               =       0.7000
     number of iterations used =            8  plain     mixing
     Exchange-correlation      =  SLA  PW   PBX  PBC ( 1  4  3  4 0 0)
     nstep                     =           50


     celldm(1)=   7.716508  celldm(2)=   0.000000  celldm(3)=   0.000000
     celldm(4)=   0.000000  celldm(5)=   0.000000  celldm(6)=   0.000000

     crystal axes: (cart. coord. in units of alat)
               a(1) = (   1.000000   0.000000   0.000000 )  
               a(2) = (   0.000000   1.000000   0.000000 )  
               a(3) = (   0.000000   0.000000   1.000000 )  

     reciprocal axes: (cart. coord. in units 2 pi/alat)
               b(1) = (  1.000000  0.000000  0.000000 )  
               b(2) = (  0.000000  1.000000  0.000000 )  
               b(3) = (  0.000000  0.000000  1.000000 )  


     PseudoPot. # 1 for H  read from file:
     /home/azadoks/.local/share/pseudo/GBRV_PBE_US/h_pbe_v1.4.uspp.F.UPF
     MD5 check sum: 761ae9a214b05c3daf00ab9f6b793d6f
     Pseudo is Ultrasoft, Zval =  1.0
     Generated by new atomic code, or converted to UPF format
     Using radial grid of  615 points,  2 beta functions with: 
                l(1) =   0
                l(2) =   0
     Q(r) pseudized with  8 coefficients,  rinner =    0.700

     PseudoPot. # 2 for Li read from file:
     /home/azadoks/.local/share/pseudo/GBRV_PBE_US/li_pbe_v1.4.uspp.F.UPF
     MD5 check sum: e912e257baa3777c20ea3d68f190483c
     Pseudo is Ultrasoft, Zval =  3.0
     Generated by new atomic code, or converted to UPF format
     Using radial grid of  751 points,  5 beta functions with: 
                l(1) =   0
                l(2) =   0
                l(3) =   0
                l(4) =   1
                l(5) =   1
     Q(r) pseudized with 10 coefficients,  rinner =    1.150   1.150   1.150


     atomic species   valence    mass     pseudopotential
        H              1.00     1.00790     H ( 1.00)
        Li             3.00     6.94100     Li( 1.00)

     48 Sym. Ops., with inversion, found


                                    s                        frac. trans.

      isym =  1     identity                                     

 cryst.   s( 1) = (     1          0          0      )
                  (     0          1          0      )
                  (     0          0          1      )

 cart.    s( 1) = (  1.0000000  0.0000000  0.0000000 )
                  (  0.0000000  1.0000000  0.0000000 )
                  (  0.0000000  0.0000000  1.0000000 )


      isym =  2     180 deg rotation - cart. axis [0,0,1]        

 cryst.   s( 2) = (    -1          0          0      )
                  (     0         -1          0      )
                  (     0          0          1      )

 cart.    s( 2) = ( -1.0000000  0.0000000  0.0000000 )
                  (  0.0000000 -1.0000000  0.0000000 )
                  (  0.0000000  0.0000000  1.0000000 )


      isym =  3     180 deg rotation - cart. axis [0,1,0]        

 cryst.   s( 3) = (    -1          0          0      )
                  (     0          1          0      )
                  (     0          0         -1      )

 cart.    s( 3) = ( -1.0000000  0.0000000  0.0000000 )
                  (  0.0000000  1.0000000  0.0000000 )
                  (  0.0000000  0.0000000 -1.0000000 )


      isym =  4     180 deg rotation - cart. axis [1,0,0]        

 cryst.   s( 4) = (     1          0          0      )
                  (     0         -1          0      )
                  (     0          0         -1      )

 cart.    s( 4) = (  1.0000000  0.0000000  0.0000000 )
                  (  0.0000000 -1.0000000  0.0000000 )
                  (  0.0000000  0.0000000 -1.0000000 )


      isym =  5     180 deg rotation - cart. axis [1,1,0]        

 cryst.   s( 5) = (     0          1          0      )
                  (     1          0          0      )
                  (     0          0         -1      )

 cart.    s( 5) = (  0.0000000  1.0000000  0.0000000 )
                  (  1.0000000  0.0000000  0.0000000 )
                  (  0.0000000  0.0000000 -1.0000000 )


      isym =  6     180 deg rotation - cart. axis [1,-1,0]       

 cryst.   s( 6) = (     0         -1          0      )
                  (    -1          0          0      )
                  (     0          0         -1      )

 cart.    s( 6) = (  0.0000000 -1.0000000  0.0000000 )
                  ( -1.0000000  0.0000000  0.0000000 )
                  (  0.0000000  0.0000000 -1.0000000 )


      isym =  7      90 deg rotation - cart. axis [0,0,-1]       

 cryst.   s( 7) = (     0         -1          0      )
                  (     1          0          0      )
                  (     0          0          1      )

 cart.    s( 7) = (  0.0000000  1.0000000  0.0000000 )
                  ( -1.0000000  0.0000000  0.0000000 )
                  (  0.0000000  0.0000000  1.0000000 )


      isym =  8      90 deg rotation - cart. axis [0,0,1]        

 cryst.   s( 8) = (     0          1          0      )
                  (    -1          0          0      )
                  (     0          0          1      )

 cart.    s( 8) = (  0.0000000 -1.0000000  0.0000000 )
                  (  1.0000000  0.0000000  0.0000000 )
                  (  0.0000000  0.0000000  1.0000000 )


      isym =  9     180 deg rotation - cart. axis [1,0,1]        

 cryst.   s( 9) = (     0          0          1      )
                  (     0         -1          0      )
                  (     1          0          0      )

 cart.    s( 9) = (  0.0000000  0.0000000  1.0000000 )
                  (  0.0000000 -1.0000000  0.0000000 )
                  (  1.0000000  0.0000000  0.0000000 )


      isym = 10     180 deg rotation - cart. axis [-1,0,1]       

 cryst.   s(10) = (     0          0         -1      )
                  (     0         -1          0      )
                  (    -1          0          0      )

 cart.    s(10) = (  0.0000000  0.0000000 -1.0000000 )
                  (  0.0000000 -1.0000000  0.0000000 )
                  ( -1.0000000  0.0000000  0.0000000 )


      isym = 11      90 deg rotation - cart. axis [0,1,0]        

 cryst.   s(11) = (     0          0         -1      )
                  (     0          1          0      )
                  (     1          0          0      )

 cart.    s(11) = (  0.0000000  0.0000000  1.0000000 )
                  (  0.0000000  1.0000000  0.0000000 )
                  ( -1.0000000  0.0000000  0.0000000 )


      isym = 12      90 deg rotation - cart. axis [0,-1,0]       

 cryst.   s(12) = (     0          0          1      )
                  (     0          1          0      )
                  (    -1          0          0      )

 cart.    s(12) = (  0.0000000  0.0000000 -1.0000000 )
                  (  0.0000000  1.0000000  0.0000000 )
                  (  1.0000000  0.0000000  0.0000000 )


      isym = 13     180 deg rotation - cart. axis [0,1,1]        

 cryst.   s(13) = (    -1          0          0      )
                  (     0          0          1      )
                  (     0          1          0      )

 cart.    s(13) = ( -1.0000000  0.0000000  0.0000000 )
                  (  0.0000000  0.0000000  1.0000000 )
                  (  0.0000000  1.0000000  0.0000000 )


      isym = 14     180 deg rotation - cart. axis [0,1,-1]       

 cryst.   s(14) = (    -1          0          0      )
                  (     0          0         -1      )
                  (     0         -1          0      )

 cart.    s(14) = ( -1.0000000  0.0000000  0.0000000 )
                  (  0.0000000  0.0000000 -1.0000000 )
                  (  0.0000000 -1.0000000  0.0000000 )


      isym = 15      90 deg rotation - cart. axis [-1,0,0]       

 cryst.   s(15) = (     1          0          0      )
                  (     0          0         -1      )
                  (     0          1          0      )

 cart.    s(15) = (  1.0000000  0.0000000  0.0000000 )
                  (  0.0000000  0.0000000  1.0000000 )
                  (  0.0000000 -1.0000000  0.0000000 )


      isym = 16      90 deg rotation - cart. axis [1,0,0]        

 cryst.   s(16) = (     1          0          0      )
                  (     0          0          1      )
                  (     0         -1          0      )

 cart.    s(16) = (  1.0000000  0.0000000  0.0000000 )
                  (  0.0000000  0.0000000 -1.0000000 )
                  (  0.0000000  1.0000000  0.0000000 )


      isym = 17     120 deg rotation - cart. axis [-1,-1,-1]     

 cryst.   s(17) = (     0          0          1      )
                  (     1          0          0      )
                  (     0          1          0      )

 cart.    s(17) = (  0.0000000  1.0000000  0.0000000 )
                  (  0.0000000  0.0000000  1.0000000 )
                  (  1.0000000  0.0000000  0.0000000 )


      isym = 18     120 deg rotation - cart. axis [-1,1,1]       

 cryst.   s(18) = (     0          0         -1      )
                  (    -1          0          0      )
                  (     0          1          0      )

 cart.    s(18) = (  0.0000000 -1.0000000  0.0000000 )
                  (  0.0000000  0.0000000  1.0000000 )
                  ( -1.0000000  0.0000000  0.0000000 )


      isym = 19     120 deg rotation - cart. axis [1,1,-1]       

 cryst.   s(19) = (     0          0         -1      )
                  (     1          0          0      )
                  (     0         -1          0      )

 cart.    s(19) = (  0.0000000  1.0000000  0.0000000 )
                  (  0.0000000  0.0000000 -1.0000000 )
                  ( -1.0000000  0.0000000  0.0000000 )


      isym = 20     120 deg rotation - cart. axis [1,-1,1]       

 cryst.   s(20) = (     0          0          1      )
                  (    -1          0          0      )
                  (     0         -1          0      )

 cart.    s(20) = (  0.0000000 -1.0000000  0.0000000 )
                  (  0.0000000  0.0000000 -1.0000000 )
                  (  1.0000000  0.0000000  0.0000000 )


      isym = 21     120 deg rotation - cart. axis [1,1,1]        

 cryst.   s(21) = (     0          1          0      )
                  (     0          0          1      )
                  (     1          0          0      )

 cart.    s(21) = (  0.0000000  0.0000000  1.0000000 )
                  (  1.0000000  0.0000000  0.0000000 )
                  (  0.0000000  1.0000000  0.0000000 )


      isym = 22     120 deg rotation - cart. axis [-1,1,-1]      

 cryst.   s(22) = (     0         -1          0      )
                  (     0          0         -1      )
                  (     1          0          0      )

 cart.    s(22) = (  0.0000000  0.0000000  1.0000000 )
                  ( -1.0000000  0.0000000  0.0000000 )
                  (  0.0000000 -1.0000000  0.0000000 )


      isym = 23     120 deg rotation - cart. axis [1,-1,-1]      

 cryst.   s(23) = (     0         -1          0      )
                  (     0          0          1      )
                  (    -1          0          0      )

 cart.    s(23) = (  0.0000000  0.0000000 -1.0000000 )
                  ( -1.0000000  0.0000000  0.0000000 )
                  (  0.0000000  1.0000000  0.0000000 )


      isym = 24     120 deg rotation - cart. axis [-1,-1,1]      

 cryst.   s(24) = (     0          1          0      )
                  (     0          0         -1      )
                  (    -1          0          0      )

 cart.    s(24) = (  0.0000000  0.0000000 -1.0000000 )
                  (  1.0000000  0.0000000  0.0000000 )
                  (  0.0000000 -1.0000000  0.0000000 )


      isym = 25     inversion                                    

 cryst.   s(25) = (    -1          0          0      )
                  (     0         -1          0      )
                  (     0          0         -1      )

 cart.    s(25) = ( -1.0000000  0.0000000  0.0000000 )
                  (  0.0000000 -1.0000000  0.0000000 )
                  (  0.0000000  0.0000000 -1.0000000 )


      isym = 26     inv. 180 deg rotation - cart. axis [0,0,1]   

 cryst.   s(26) = (     1          0          0      )
                  (     0          1          0      )
                  (     0          0         -1      )

 cart.    s(26) = (  1.0000000  0.0000000  0.0000000 )
                  (  0.0000000  1.0000000  0.0000000 )
                  (  0.0000000  0.0000000 -1.0000000 )


      isym = 27     inv. 180 deg rotation - cart. axis [0,1,0]   

 cryst.   s(27) = (     1          0          0      )
                  (     0         -1          0      )
                  (     0          0          1      )

 cart.    s(27) = (  1.0000000  0.0000000  0.0000000 )
                  (  0.0000000 -1.0000000  0.0000000 )
                  (  0.0000000  0.0000000  1.0000000 )


      isym = 28     inv. 180 deg rotation - cart. axis [1,0,0]   

 cryst.   s(28) = (    -1          0          0      )
                  (     0          1          0      )
                  (     0          0          1      )

 cart.    s(28) = ( -1.0000000  0.0000000  0.0000000 )
                  (  0.0000000  1.0000000  0.0000000 )
                  (  0.0000000  0.0000000  1.0000000 )


      isym = 29     inv. 180 deg rotation - cart. axis [1,1,0]   

 cryst.   s(29) = (     0         -1          0      )
                  (    -1          0          0      )
                  (     0          0          1      )

 cart.    s(29) = (  0.0000000 -1.0000000  0.0000000 )
                  ( -1.0000000  0.0000000  0.0000000 )
                  (  0.0000000  0.0000000  1.0000000 )


      isym = 30     inv. 180 deg rotation - cart. axis [1,-1,0]  

 cryst.   s(30) = (     0          1          0      )
                  (     1          0          0      )
                  (     0          0          1      )

 cart.    s(30) = (  0.0000000  1.0000000  0.0000000 )
                  (  1.0000000  0.0000000  0.0000000 )
                  (  0.0000000  0.0000000  1.0000000 )


      isym = 31     inv.  90 deg rotation - cart. axis [0,0,-1]  

 cryst.   s(31) = (     0          1          0      )
                  (    -1          0          0      )
                  (     0          0         -1      )

 cart.    s(31) = (  0.0000000 -1.0000000  0.0000000 )
                  (  1.0000000  0.0000000  0.0000000 )
                  (  0.0000000  0.0000000 -1.0000000 )


      isym = 32     inv.  90 deg rotation - cart. axis [0,0,1]   

 cryst.   s(32) = (     0         -1          0      )
                  (     1          0          0      )
                  (     0          0         -1      )

 cart.    s(32) = (  0.0000000  1.0000000  0.0000000 )
                  ( -1.0000000  0.0000000  0.0000000 )
                  (  0.0000000  0.0000000 -1.0000000 )


      isym = 33     inv. 180 deg rotation - cart. axis [1,0,1]   

 cryst.   s(33) = (     0          0         -1      )
                  (     0          1          0      )
                  (    -1          0          0      )

 cart.    s(33) = (  0.0000000  0.0000000 -1.0000000 )
                  (  0.0000000  1.0000000  0.0000000 )
                  ( -1.0000000  0.0000000  0.0000000 )


      isym = 34     inv. 180 deg rotation - cart. axis [-1,0,1]  

 cryst.   s(34) = (     0          0          1      )
                  (     0          1          0      )
                  (     1          0          0      )

 cart.    s(34) = (  0.0000000  0.0000000  1.0000000 )
                  (  0.0000000  1.0000000  0.0000000 )
                  (  1.0000000  0.0000000  0.0000000 )


      isym = 35     inv.  90 deg rotation - cart. axis [0,1,0]   

 cryst.   s(35) = (     0          0          1      )
                  (     0         -1          0      )
                  (    -1          0          0      )

 cart.    s(35) = (  0.0000000  0.0000000 -1.0000000 )
                  (  0.0000000 -1.0000000  0.0000000 )
                  (  1.0000000  0.0000000  0.0000000 )


      isym = 36     inv.  90 deg rotation - cart. axis [0,-1,0]  

 cryst.   s(36) = (     0          0         -1      )
                  (     0         -1          0      )
                  (     1          0          0      )

 cart.    s(36) = (  0.0000000  0.0000000  1.0000000 )
                  (  0.0000000 -1.0000000  0.0000000 )
                  ( -1.0000000  0.0000000  0.0000000 )


      isym = 37     inv. 180 deg rotation - cart. axis [0,1,1]   

 cryst.   s(37) = (     1          0          0      )
                  (     0          0         -1      )
                  (     0         -1          0      )

 cart.    s(37) = (  1.0000000  0.0000000  0.0000000 )
                  (  0.0000000  0.0000000 -1.0000000 )
                  (  0.0000000 -1.0000000  0.0000000 )


      isym = 38     inv. 180 deg rotation - cart. axis [0,1,-1]  

 cryst.   s(38) = (     1          0          0      )
                  (     0          0          1      )
                  (     0          1          0      )

 cart.    s(38) = (  1.0000000  0.0000000  0.0000000 )
                  (  0.0000000  0.0000000  1.0000000 )
                  (  0.0000000  1.0000000  0.0000000 )


      isym = 39     inv.  90 deg rotation - cart. axis [-1,0,0]  

 cryst.   s(39) = (    -1          0          0      )
                  (     0          0          1      )
                  (     0         -1          0      )

 cart.    s(39) = ( -1.0000000  0.0000000  0.0000000 )
                  (  0.0000000  0.0000000 -1.0000000 )
                  (  0.0000000  1.0000000  0.0000000 )


      isym = 40     inv.  90 deg rotation - cart. axis [1,0,0]   

 cryst.   s(40) = (    -1          0          0      )
                  (     0          0         -1      )
                  (     0          1          0      )

 cart.    s(40) = ( -1.0000000  0.0000000  0.0000000 )
                  (  0.0000000  0.0000000  1.0000000 )
                  (  0.0000000 -1.0000000  0.0000000 )


      isym = 41     inv. 120 deg rotation - cart. axis [-1,-1,-1]

 cryst.   s(41) = (     0          0         -1      )
                  (    -1          0          0      )
                  (     0         -1          0      )

 cart.    s(41) = (  0.0000000 -1.0000000  0.0000000 )
                  (  0.0000000  0.0000000 -1.0000000 )
                  ( -1.0000000  0.0000000  0.0000000 )


      isym = 42     inv. 120 deg rotation - cart. axis [-1,1,1]  

 cryst.   s(42) = (     0          0          1      )
                  (     1          0          0      )
                  (     0         -1          0      )

 cart.    s(42) = (  0.0000000  1.0000000  0.0000000 )
                  (  0.0000000  0.0000000 -1.0000000 )
                  (  1.0000000  0.0000000  0.0000000 )


      isym = 43     inv. 120 deg rotation - cart. axis [1,1,-1]  

 cryst.   s(43) = (     0          0          1      )
                  (    -1          0          0      )
                  (     0          1          0      )

 cart.    s(43) = (  0.0000000 -1.0000000  0.0000000 )
                  (  0.0000000  0.0000000  1.0000000 )
                  (  1.0000000  0.0000000  0.0000000 )


      isym = 44     inv. 120 deg rotation - cart. axis [1,-1,1]  

 cryst.   s(44) = (     0          0         -1      )
                  (     1          0          0      )
                  (     0          1          0      )

 cart.    s(44) = (  0.0000000  1.0000000  0.0000000 )
                  (  0.0000000  0.0000000  1.0000000 )
                  ( -1.0000000  0.0000000  0.0000000 )


      isym = 45     inv. 120 deg rotation - cart. axis [1,1,1]   

 cryst.   s(45) = (     0         -1          0      )
                  (     0          0         -1      )
                  (    -1          0          0      )

 cart.    s(45) = (  0.0000000  0.0000000 -1.0000000 )
                  ( -1.0000000  0.0000000  0.0000000 )
                  (  0.0000000 -1.0000000  0.0000000 )


      isym = 46     inv. 120 deg rotation - cart. axis [-1,1,-1] 

 cryst.   s(46) = (     0          1          0      )
                  (     0          0          1      )
                  (    -1          0          0      )

 cart.    s(46) = (  0.0000000  0.0000000 -1.0000000 )
                  (  1.0000000  0.0000000  0.0000000 )
                  (  0.0000000  1.0000000  0.0000000 )


      isym = 47     inv. 120 deg rotation - cart. axis [1,-1,-1] 

 cryst.   s(47) = (     0          1          0      )
                  (     0          0         -1      )
                  (     1          0          0      )

 cart.    s(47) = (  0.0000000  0.0000000  1.0000000 )
                  (  1.0000000  0.0000000  0.0000000 )
                  (  0.0000000 -1.0000000  0.0000000 )


      isym = 48     inv. 120 deg rotation - cart. axis [-1,-1,1] 

 cryst.   s(48) = (     0         -1          0      )
                  (     0          0          1      )
                  (     1          0          0      )

 cart.    s(48) = (  0.0000000  0.0000000  1.0000000 )
                  ( -1.0000000  0.0000000  0.0000000 )
                  (  0.0000000  1.0000000  0.0000000 )


   Cartesian axes

     site n.     atom                  positions (alat units)
         1           Li  tau(   1) = (   0.0000000   0.0000000   0.0000000  )
         2           Li  tau(   2) = (   0.0000000   0.5000000   0.5000000  )
         3           Li  tau(   3) = (   0.5000000   0.0000000   0.5000000  )
         4           Li  tau(   4) = (   0.5000000   0.5000000   0.0000000  )
         5           H   tau(   5) = (   0.5000000   0.5000000   0.5000000  )
         6           H   tau(   6) = (   0.5000000   0.0000000   0.0000000  )
         7           H   tau(   7) = (   0.0000000   0.5000000   0.0000000  )
         8           H   tau(   8) = (   0.0000000   0.0000000   0.5000000  )

   Crystallographic axes

     site n.     atom                  positions (cryst. coord.)
         1           Li  tau(   1) = (  0.0000000  0.0000000  0.0000000  )
         2           Li  tau(   2) = (  0.0000000  0.5000000  0.5000000  )
         3           Li  tau(   3) = (  0.5000000  0.0000000  0.5000000  )
         4           Li  tau(   4) = (  0.5000000  0.5000000  0.0000000  )
         5           H   tau(   5) = (  0.5000000  0.5000000  0.5000000  )
         6           H   tau(   6) = (  0.5000000  0.0000000  0.0000000  )
         7           H   tau(   7) = (  0.0000000  0.5000000  0.0000000  )
         8           H   tau(   8) = (  0.0000000  0.0000000  0.5000000  )

     number of k points=    84  Marzari-Vanderbilt smearing, width (Ry)=  0.0100
                       cart. coord. in units 2pi/alat
        k(    1) = (   0.0000000   0.0000000   0.0000000), wk =   0.0011574
        k(    2) = (   0.0000000   0.0000000   0.0833333), wk =   0.0069444
        k(    3) = (   0.0000000   0.0000000   0.1666667), wk =   0.0069444
        k(    4) = (   0.0000000   0.0000000   0.2500000), wk =   0.0069444
        k(    5) = (   0.0000000   0.0000000   0.3333333), wk =   0.0069444
        k(    6) = (   0.0000000   0.0000000   0.4166667), wk =   0.0069444
        k(    7) = (   0.0000000   0.0000000  -0.5000000), wk =   0.0034722
        k(    8) = (   0.0000000   0.0833333   0.0833333), wk =   0.0138889
        k(    9) = (   0.0000000   0.0833333   0.1666667), wk =   0.0277778
        k(   10) = (   0.0000000   0.0833333   0.2500000), wk =   0.0277778
        k(   11) = (   0.0000000   0.0833333   0.3333333), wk =   0.0277778
        k(   12) = (   0.0000000   0.0833333   0.4166667), wk =   0.0277778
        k(   13) = (   0.0000000   0.0833333  -0.5000000), wk =   0.0138889
        k(   14) = (   0.0000000   0.1666667   0.1666667), wk =   0.0138889
        k(   15) = (   0.0000000   0.1666667   0.2500000), wk =   0.0277778
        k(   16) = (   0.0000000   0.1666667   0.3333333), wk =   0.0277778
        k(   17) = (   0.0000000   0.1666667   0.4166667), wk =   0.0277778
        k(   18) = (   0.0000000   0.1666667  -0.5000000), wk =   0.0138889
        k(   19) = (   0.0000000   0.2500000   0.2500000), wk =   0.0138889
        k(   20) = (   0.0000000   0.2500000   0.3333333), wk =   0.0277778
        k(   21) = (   0.0000000   0.2500000   0.4166667), wk =   0.0277778
        k(   22) = (   0.0000000   0.2500000  -0.5000000), wk =   0.0138889
        k(   23) = (   0.0000000   0.3333333   0.3333333), wk =   0.0138889
        k(   24) = (   0.0000000   0.3333333   0.4166667), wk =   0.0277778
        k(   25) = (   0.0000000   0.3333333  -0.5000000), wk =   0.0138889
        k(   26) = (   0.0000000   0.4166667   0.4166667), wk =   0.0138889
        k(   27) = (   0.0000000   0.4166667  -0.5000000), wk =   0.0138889
        k(   28) = (   0.0000000  -0.5000000  -0.5000000), wk =   0.0034722
        k(   29) = (   0.0833333   0.0833333   0.0833333), wk =   0.0092593
        k(   30) = (   0.0833333   0.0833333   0.1666667), wk =   0.0277778
        k(   31) = (   0.0833333   0.0833333   0.2500000), wk =   0.0277778
        k(   32) = (   0.0833333   0.0833333   0.3333333), wk =   0.0277778
        k(   33) = (   0.0833333   0.0833333   0.4166667), wk =   0.0277778
        k(   34) = (   0.0833333   0.0833333  -0.5000000), wk =   0.0138889
        k(   35) = (   0.0833333   0.1666667   0.1666667), wk =   0.0277778
        k(   36) = (   0.0833333   0.1666667   0.2500000), wk =   0.0555556
        k(   37) = (   0.0833333   0.1666667   0.3333333), wk =   0.0555556
        k(   38) = (   0.0833333   0.1666667   0.4166667), wk =   0.0555556
        k(   39) = (   0.0833333   0.1666667  -0.5000000), wk =   0.0277778
        k(   40) = (   0.0833333   0.2500000   0.2500000), wk =   0.0277778
        k(   41) = (   0.0833333   0.2500000   0.3333333), wk =   0.0555556
        k(   42) = (   0.0833333   0.2500000   0.4166667), wk =   0.0555556
        k(   43) = (   0.0833333   0.2500000  -0.5000000), wk =   0.0277778
        k(   44) = (   0.0833333   0.3333333   0.3333333), wk =   0.0277778
        k(   45) = (   0.0833333   0.3333333   0.4166667), wk =   0.0555556
        k(   46) = (   0.0833333   0.3333333  -0.5000000), wk =   0.0277778
        k(   47) = (   0.0833333   0.4166667   0.4166667), wk =   0.0277778
        k(   48) = (   0.0833333   0.4166667  -0.5000000), wk =   0.0277778
        k(   49) = (   0.0833333  -0.5000000  -0.5000000), wk =   0.0069444
        k(   50) = (   0.1666667   0.1666667   0.1666667), wk =   0.0092593
        k(   51) = (   0.1666667   0.1666667   0.2500000), wk =   0.0277778
        k(   52) = (   0.1666667   0.1666667   0.3333333), wk =   0.0277778
        k(   53) = (   0.1666667   0.1666667   0.4166667), wk =   0.0277778
        k(   54) = (   0.1666667   0.1666667  -0.5000000), wk =   0.0138889
        k(   55) = (   0.1666667   0.2500000   0.2500000), wk =   0.0277778
        k(   56) = (   0.1666667   0.2500000   0.3333333), wk =   0.0555556
        k(   57) = (   0.1666667   0.2500000   0.4166667), wk =   0.0555556
        k(   58) = (   0.1666667   0.2500000  -0.5000000), wk =   0.0277778
        k(   59) = (   0.1666667   0.3333333   0.3333333), wk =   0.0277778
        k(   60) = (   0.1666667   0.3333333   0.4166667), wk =   0.0555556
        k(   61) = (   0.1666667   0.3333333  -0.5000000), wk =   0.0277778
        k(   62) = (   0.1666667   0.4166667   0.4166667), wk =   0.0277778
        k(   63) = (   0.1666667   0.4166667  -0.5000000), wk =   0.0277778
        k(   64) = (   0.1666667  -0.5000000  -0.5000000), wk =   0.0069444
        k(   65) = (   0.2500000   0.2500000   0.2500000), wk =   0.0092593
        k(   66) = (   0.2500000   0.2500000   0.3333333), wk =   0.0277778
        k(   67) = (   0.2500000   0.2500000   0.4166667), wk =   0.0277778
        k(   68) = (   0.2500000   0.2500000  -0.5000000), wk =   0.0138889
        k(   69) = (   0.2500000   0.3333333   0.3333333), wk =   0.0277778
        k(   70) = (   0.2500000   0.3333333   0.4166667), wk =   0.0555556
        k(   71) = (   0.2500000   0.3333333  -0.5000000), wk =   0.0277778
        k(   72) = (   0.2500000   0.4166667   0.4166667), wk =   0.0277778
        k(   73) = (   0.2500000   0.4166667  -0.5000000), wk =   0.0277778
        k(   74) = (   0.2500000  -0.5000000  -0.5000000), wk =   0.0069444
        k(   75) = (   0.3333333   0.3333333   0.3333333), wk =   0.0092593
        k(   76) = (   0.3333333   0.3333333   0.4166667), wk =   0.0277778
        k(   77) = (   0.3333333   0.3333333  -0.5000000), wk =   0.0138889
        k(   78) = (   0.3333333   0.4166667   0.4166667), wk =   0.0277778
        k(   79) = (   0.3333333   0.4166667  -0.5000000), wk =   0.0277778
        k(   80) = (   0.3333333  -0.5000000  -0.5000000), wk =   0.0069444
        k(   81) = (   0.4166667   0.4166667   0.4166667), wk =   0.0092593
        k(   82) = (   0.4166667   0.4166667  -0.5000000), wk =   0.0138889
        k(   83) = (   0.4166667  -0.5000000  -0.5000000), wk =   0.0069444
        k(   84) = (  -0.5000000  -0.5000000  -0.5000000), wk =   0.0011574

                       cryst. coord.
        k(    1) = (   0.0000000   0.0000000   0.0000000), wk =   0.0011574
        k(    2) = (   0.0000000   0.0000000   0.0833333), wk =   0.0069444
        k(    3) = (   0.0000000   0.0000000   0.1666667), wk =   0.0069444
        k(    4) = (   0.0000000   0.0000000   0.2500000), wk =   0.0069444
        k(    5) = (   0.0000000   0.0000000   0.3333333), wk =   0.0069444
        k(    6) = (   0.0000000   0.0000000   0.4166667), wk =   0.0069444
        k(    7) = (   0.0000000   0.0000000  -0.5000000), wk =   0.0034722
        k(    8) = (   0.0000000   0.0833333   0.0833333), wk =   0.0138889
        k(    9) = (   0.0000000   0.0833333   0.1666667), wk =   0.0277778
        k(   10) = (   0.0000000   0.0833333   0.2500000), wk =   0.0277778
        k(   11) = (   0.0000000   0.0833333   0.3333333), wk =   0.0277778
        k(   12) = (   0.0000000   0.0833333   0.4166667), wk =   0.0277778
        k(   13) = (   0.0000000   0.0833333  -0.5000000), wk =   0.0138889
        k(   14) = (   0.0000000   0.1666667   0.1666667), wk =   0.0138889
        k(   15) = (   0.0000000   0.1666667   0.2500000), wk =   0.0277778
        k(   16) = (   0.0000000   0.1666667   0.3333333), wk =   0.0277778
        k(   17) = (   0.0000000   0.1666667   0.4166667), wk =   0.0277778
        k(   18) = (   0.0000000   0.1666667  -0.5000000), wk =   0.0138889
        k(   19) = (   0.0000000   0.2500000   0.2500000), wk =   0.0138889
        k(   20) = (   0.0000000   0.2500000   0.3333333), wk =   0.0277778
        k(   21) = (   0.0000000   0.2500000   0.4166667), wk =   0.0277778
        k(   22) = (   0.0000000   0.2500000  -0.5000000), wk =   0.0138889
        k(   23) = (   0.0000000   0.3333333   0.3333333), wk =   0.0138889
        k(   24) = (   0.0000000   0.3333333   0.4166667), wk =   0.0277778
        k(   25) = (   0.0000000   0.3333333  -0.5000000), wk =   0.0138889
        k(   26) = (   0.0000000   0.4166667   0.4166667), wk =   0.0138889
        k(   27) = (   0.0000000   0.4166667  -0.5000000), wk =   0.0138889
        k(   28) = (   0.0000000  -0.5000000  -0.5000000), wk =   0.0034722
        k(   29) = (   0.0833333   0.0833333   0.0833333), wk =   0.0092593
        k(   30) = (   0.0833333   0.0833333   0.1666667), wk =   0.0277778
        k(   31) = (   0.0833333   0.0833333   0.2500000), wk =   0.0277778
        k(   32) = (   0.0833333   0.0833333   0.3333333), wk =   0.0277778
        k(   33) = (   0.0833333   0.0833333   0.4166667), wk =   0.0277778
        k(   34) = (   0.0833333   0.0833333  -0.5000000), wk =   0.0138889
        k(   35) = (   0.0833333   0.1666667   0.1666667), wk =   0.0277778
        k(   36) = (   0.0833333   0.1666667   0.2500000), wk =   0.0555556
        k(   37) = (   0.0833333   0.1666667   0.3333333), wk =   0.0555556
        k(   38) = (   0.0833333   0.1666667   0.4166667), wk =   0.0555556
        k(   39) = (   0.0833333   0.1666667  -0.5000000), wk =   0.0277778
        k(   40) = (   0.0833333   0.2500000   0.2500000), wk =   0.0277778
        k(   41) = (   0.0833333   0.2500000   0.3333333), wk =   0.0555556
        k(   42) = (   0.0833333   0.2500000   0.4166667), wk =   0.0555556
        k(   43) = (   0.0833333   0.2500000  -0.5000000), wk =   0.0277778
        k(   44) = (   0.0833333   0.3333333   0.3333333), wk =   0.0277778
        k(   45) = (   0.0833333   0.3333333   0.4166667), wk =   0.0555556
        k(   46) = (   0.0833333   0.3333333  -0.5000000), wk =   0.0277778
        k(   47) = (   0.0833333   0.4166667   0.4166667), wk =   0.0277778
        k(   48) = (   0.0833333   0.4166667  -0.5000000), wk =   0.0277778
        k(   49) = (   0.0833333  -0.5000000  -0.5000000), wk =   0.0069444
        k(   50) = (   0.1666667   0.1666667   0.1666667), wk =   0.0092593
        k(   51) = (   0.1666667   0.1666667   0.2500000), wk =   0.0277778
        k(   52) = (   0.1666667   0.1666667   0.3333333), wk =   0.0277778
        k(   53) = (   0.1666667   0.1666667   0.4166667), wk =   0.0277778
        k(   54) = (   0.1666667   0.1666667  -0.5000000), wk =   0.0138889
        k(   55) = (   0.1666667   0.2500000   0.2500000), wk =   0.0277778
        k(   56) = (   0.1666667   0.2500000   0.3333333), wk =   0.0555556
        k(   57) = (   0.1666667   0.2500000   0.4166667), wk =   0.0555556
        k(   58) = (   0.1666667   0.2500000  -0.5000000), wk =   0.0277778
        k(   59) = (   0.1666667   0.3333333   0.3333333), wk =   0.0277778
        k(   60) = (   0.1666667   0.3333333   0.4166667), wk =   0.0555556
        k(   61) = (   0.1666667   0.3333333  -0.5000000), wk =   0.0277778
        k(   62) = (   0.1666667   0.4166667   0.4166667), wk =   0.0277778
        k(   63) = (   0.1666667   0.4166667  -0.5000000), wk =   0.0277778
        k(   64) = (   0.1666667  -0.5000000  -0.5000000), wk =   0.0069444
        k(   65) = (   0.2500000   0.2500000   0.2500000), wk =   0.0092593
        k(   66) = (   0.2500000   0.2500000   0.3333333), wk =   0.0277778
        k(   67) = (   0.2500000   0.2500000   0.4166667), wk =   0.0277778
        k(   68) = (   0.2500000   0.2500000  -0.5000000), wk =   0.0138889
        k(   69) = (   0.2500000   0.3333333   0.3333333), wk =   0.0277778
        k(   70) = (   0.2500000   0.3333333   0.4166667), wk =   0.0555556
        k(   71) = (   0.2500000   0.3333333  -0.5000000), wk =   0.0277778
        k(   72) = (   0.2500000   0.4166667   0.4166667), wk =   0.0277778
        k(   73) = (   0.2500000   0.4166667  -0.5000000), wk =   0.0277778
        k(   74) = (   0.2500000  -0.5000000  -0.5000000), wk =   0.0069444
        k(   75) = (   0.3333333   0.3333333   0.3333333), wk =   0.0092593
        k(   76) = (   0.3333333   0.3333333   0.4166667), wk =   0.0277778
        k(   77) = (   0.3333333   0.3333333  -0.5000000), wk =   0.0138889
        k(   78) = (   0.3333333   0.4166667   0.4166667), wk =   0.0277778
        k(   79) = (   0.3333333   0.4166667  -0.5000000), wk =   0.0277778
        k(   80) = (   0.3333333  -0.5000000  -0.5000000), wk =   0.0069444
        k(   81) = (   0.4166667   0.4166667   0.4166667), wk =   0.0092593
        k(   82) = (   0.4166667   0.4166667  -0.5000000), wk =   0.0138889
        k(   83) = (   0.4166667  -0.5000000  -0.5000000), wk =   0.0069444
        k(   84) = (  -0.5000000  -0.5000000  -0.5000000), wk =   0.0011574

     Dense  grid:    12965 G-vectors     FFT dimensions: (  30,  30,  30)

     Dynamical RAM for                 wfc:       0.06 MB

     Dynamical RAM for     wfc (w. buffer):       5.00 MB

     Dynamical RAM for           str. fact:       0.08 MB

     Dynamical RAM for           local pot:       0.00 MB

     Dynamical RAM for          nlocal pot:       0.22 MB

     Dynamical RAM for                qrad:       2.00 MB

     Dynamical RAM for          rho,v,vnew:       0.24 MB

     Dynamical RAM for               rhoin:       0.08 MB

     Dynamical RAM for            rho*nmix:       0.63 MB

     Dynamical RAM for           G-vectors:       0.17 MB

     Dynamical RAM for          h,s,v(r/c):       0.11 MB

     Dynamical RAM for          <psi|beta>:       0.01 MB

     Dynamical RAM for                 psi:       0.24 MB

     Dynamical RAM for                hpsi:       0.24 MB

     Dynamical RAM for                spsi:       0.24 MB

     Dynamical RAM for      wfcinit/wfcrot:       0.25 MB

     Dynamical RAM for           addusdens:       2.22 MB

     Dynamical RAM for          addusforce:       2.96 MB

     Dynamical RAM for         addusstress:       2.33 MB

     Estimated static dynamical RAM per process >       8.74 MB

     Estimated max dynamical RAM per process >      11.70 MB

     Estimated total dynamical RAM >      58.48 MB

     Initial potential from superposition of free atoms

     starting charge   14.19699, renormalised to   16.00000
     Starting wfcs are   24 randomized atomic wfcs

     total cpu time spent up to now is        8.5 secs

     Self-consistent Calculation

     iteration #  1     ecut=    35.00 Ry     beta= 0.70
     Davidson diagonalization with overlap
     ethr =  1.00E-02,  avg # of iterations =  2.5

     total cpu time spent up to now is       16.8 secs

     total energy              =     -62.72199533 Ry
     Harris-Foulkes estimate   =     -63.15739327 Ry
     estimated scf accuracy    <       0.61678248 Ry

     iteration #  2     ecut=    35.00 Ry     beta= 0.70
     Davidson diagonalization with overlap
     ethr =  3.85E-03,  avg # of iterations =  2.0

     total cpu time spent up to now is       23.0 secs

     total energy              =     -62.78864319 Ry
     Harris-Foulkes estimate   =     -62.79680001 Ry
     estimated scf accuracy    <       0.01422432 Ry

     iteration #  3     ecut=    35.00 Ry     beta= 0.70
     Davidson diagonalization with overlap
     ethr =  8.89E-05,  avg # of iterations =  3.0

     total cpu time spent up to now is       27.7 secs

     total energy              =     -62.79710942 Ry
     Harris-Foulkes estimate   =     -62.79720179 Ry
     estimated scf accuracy    <       0.00072073 Ry

     iteration #  4     ecut=    35.00 Ry     beta= 0.70
     Davidson diagonalization with overlap
     ethr =  4.50E-06,  avg # of iterations =  2.3

     total cpu time spent up to now is       31.4 secs

     total energy              =     -62.79715475 Ry
     Harris-Foulkes estimate   =     -62.79715629 Ry
     estimated scf accuracy    <       0.00000757 Ry

     iteration #  5     ecut=    35.00 Ry     beta= 0.70
     Davidson diagonalization with overlap
     ethr =  4.73E-08,  avg # of iterations =  3.1

     total cpu time spent up to now is       37.5 secs

     total energy              =     -62.79716028 Ry
     Harris-Foulkes estimate   =     -62.79716053 Ry
     estimated scf accuracy    <       0.00000065 Ry

     iteration #  6     ecut=    35.00 Ry     beta= 0.70
     Davidson diagonalization with overlap
     ethr =  4.08E-09,  avg # of iterations =  2.0

     total cpu time spent up to now is       40.7 secs

     total energy              =     -62.79716031 Ry
     Harris-Foulkes estimate   =     -62.79716037 Ry
     estimated scf accuracy    <       0.00000012 Ry

     iteration #  7     ecut=    35.00 Ry     beta= 0.70
     Davidson diagonalization with overlap
     ethr =  7.64E-10,  avg # of iterations =  2.0

     total cpu time spent up to now is       45.7 secs

     End of self-consistent calculation

          k = 0.0000 0.0000 0.0000 (  1575 PWs)   bands (ev):

   -43.9590 -43.9098 -43.9098 -43.9098  -4.8789   0.3488   0.3488   0.3488
     3.3728   3.3728   3.3728  10.8994

     occupation numbers 
     1.0000   1.0000   1.0000   1.0000   1.0000   0.6425   0.6424   0.6424
     0.0000   0.0000   0.0000   0.0000

          k = 0.0000 0.0000 0.0833 (  1595 PWs)   bands (ev):

   -43.9581 -43.9107 -43.9099 -43.9099  -4.8385   0.0039   0.3348   0.3348
     3.4343   3.4343   3.8220  10.3580

     occupation numbers 
     1.0000   1.0000   1.0000   1.0000   1.0000   1.0027   0.7189   0.7189
     0.0000   0.0000   0.0000   0.0000

          k = 0.0000 0.0000 0.1667 (  1615 PWs)   bands (ev):

   -43.9555 -43.9132 -43.9100 -43.9100  -4.7169  -0.7066   0.2968   0.2968
     3.6187   3.6187   4.8422   9.3291

     occupation numbers 
     1.0000   1.0000   1.0000   1.0000   1.0000   1.0000   0.9015   0.9014
     0.0000   0.0000   0.0000   0.0000

          k = 0.0000 0.0000 0.2500 (  1611 PWs)   bands (ev):

   -43.9515 -43.9170 -43.9100 -43.9100  -4.5126  -1.4709   0.2459   0.2459
     3.9257   3.9257   6.1108   8.2609

     occupation numbers 
     1.0000   1.0000   1.0000   1.0000   1.0000   1.0000   1.0495   1.0495
     0.0000   0.0000   0.0000   0.0000

          k = 0.0000 0.0000 0.3333 (  1614 PWs)   bands (ev):

   -43.9465 -43.9222 -43.9098 -43.9098  -4.2238  -2.1889   0.1961   0.1961
     4.3549   4.3549   7.2617   7.5076

     occupation numbers 
     1.0000   1.0000   1.0000   1.0000   1.0000   1.0000   1.0830   1.0830
     0.0000   0.0000   0.0000   0.0000

          k = 0.0000 0.0000 0.4167 (  1610 PWs)   bands (ev):

   -43.9405 -43.9280 -43.9098 -43.9098  -3.8481  -2.8298   0.1603   0.1603
     4.9053   4.9053   6.3627   6.3627

     occupation numbers 
     1.0000   1.0000   1.0000   1.0000   1.0000   1.0000   1.0674   1.0674
     0.0000   0.0000   0.0000   0.0000

          k = 0.0000 0.0000-0.5000 (  1622 PWs)   bands (ev):

   -43.9343 -43.9343 -43.9098 -43.9098  -3.3837  -3.3837   0.1473   0.1473
     5.5755   5.5755   5.5755   5.5755

     occupation numbers 
     1.0000   1.0000   1.0000   1.0000   1.0000   1.0000   1.0587   1.0587
     0.0000   0.0000   0.0000   0.0000

          k = 0.0000 0.0833 0.0833 (  1619 PWs)   bands (ev):

   -43.9573 -43.9108 -43.9108 -43.9100  -4.7983   0.0005   0.0005   0.3170
     3.4958   3.8708   3.8708   9.9694

     occupation numbers 
     1.0000   1.0000   1.0000   1.0000   1.0000   1.0024   1.0024   0.8100
     0.0000   0.0000   0.0000   0.0000

          k = 0.0000 0.0833 0.1667 (  1622 PWs)   bands (ev):

   -43.9547 -43.9132 -43.9108 -43.9101  -4.6772  -0.6963  -0.0082   0.2682
     3.6802   4.0200   4.8705   9.1346

     occupation numbers 
     1.0000   1.0000   1.0000   1.0000   1.0000   1.0000   1.0018   1.0002
     0.0000   0.0000   0.0000   0.0000

          k = 0.0000 0.0833 0.2500 (  1611 PWs)   bands (ev):

   -43.9508 -43.9169 -43.9106 -43.9101  -4.4739  -1.4514  -0.0182   0.1999
     3.9872   4.2765   6.1170   8.1969

     occupation numbers 
     1.0000   1.0000   1.0000   1.0000   1.0000   1.0000   1.0013   1.0833
     0.0000   0.0000   0.0000   0.0000

          k = 0.0000 0.0833 0.3333 (  1608 PWs)   bands (ev):

   -43.9458 -43.9218 -43.9105 -43.9101  -4.1864  -2.1632  -0.0226   0.1265
     4.4164   4.6472   7.2902   7.4847

     occupation numbers 
     1.0000   1.0000   1.0000   1.0000   1.0000   1.0000   1.0011   1.0445
     0.0000   0.0000   0.0000   0.0000

          k = 0.0000 0.0833 0.4167 (  1601 PWs)   bands (ev):

   -43.9399 -43.9276 -43.9103 -43.9101  -3.8125  -2.7998  -0.0140   0.0613
     4.9668   5.1363   6.4240   6.4651

     occupation numbers 
     1.0000   1.0000   1.0000   1.0000   1.0000   1.0000   1.0015   1.0126
     0.0000   0.0000   0.0000   0.0000

          k = 0.0000 0.0833-0.5000 (  1610 PWs)   bands (ev):

   -43.9338 -43.9338 -43.9102 -43.9102  -3.3505  -3.3505   0.0133   0.0133
     5.6369   5.6369   5.7437   5.7437

     occupation numbers 
     1.0000   1.0000   1.0000   1.0000   1.0000   1.0000   1.0035   1.0035
     0.0000   0.0000   0.0000   0.0000

          k = 0.0000 0.1667 0.1667 (  1614 PWs)   bands (ev):

   -43.9523 -43.9130 -43.9130 -43.9102  -4.5577  -0.6652  -0.6652   0.1880
     3.8645   4.9606   4.9606   8.6435

     occupation numbers 
     1.0000   1.0000   1.0000   1.0000   1.0000   1.0000   1.0000   1.0812
     0.0000   0.0000   0.0000   0.0000

          k = 0.0000 0.1667 0.2500 (  1602 PWs)   bands (ev):

   -43.9486 -43.9166 -43.9126 -43.9103  -4.3571  -1.3930  -0.6136   0.0706
     4.1715   5.1251   6.1428   8.0119

     occupation numbers 
     1.0000   1.0000   1.0000   1.0000   1.0000   1.0000   1.0000   1.0156
     0.0000   0.0000   0.0000   0.0000

          k = 0.0000 0.1667 0.3333 (  1599 PWs)   bands (ev):

   -43.9438 -43.9212 -43.9122 -43.9107  -4.0737  -2.0863  -0.5414  -0.0661
     4.6006   5.3781   7.3519   7.4298

     occupation numbers 
     1.0000   1.0000   1.0000   1.0000   1.0000   1.0000   1.0000   1.0002
     0.0000   0.0000   0.0000   0.0000

          k = 0.0000 0.1667 0.4167 (  1611 PWs)   bands (ev):

   -43.9384 -43.9267 -43.9118 -43.9110  -3.7054  -2.7097  -0.4484  -0.2055
     5.1509   5.7298   6.6078   6.7298

     occupation numbers 
     1.0000   1.0000   1.0000   1.0000   1.0000   1.0000   1.0000   1.0000
     0.0000   0.0000   0.0000   0.0000

          k = 0.0000 0.1667-0.5000 (  1608 PWs)   bands (ev):

   -43.9325 -43.9325 -43.9114 -43.9114  -3.2506  -3.2506  -0.3353  -0.3353
     5.8208   5.8208   6.1827   6.1827

     occupation numbers 
     1.0000   1.0000   1.0000   1.0000   1.0000   1.0000   1.0000   1.0000
     0.0000   0.0000   0.0000   0.0000

          k = 0.0000 0.2500 0.2500 (  1608 PWs)   bands (ev):

   -43.9453 -43.9160 -43.9160 -43.9108  -4.1613  -1.2963  -1.2963  -0.1193
     4.4784   6.2053   6.2053   7.7326

     occupation numbers 
     1.0000   1.0000   1.0000   1.0000   1.0000   1.0000   1.0000   1.0000
     0.0000   0.0000   0.0000   0.0000

          k = 0.0000 0.2500 0.3333 (  1604 PWs)   bands (ev):

   -43.9409 -43.9202 -43.9152 -43.9115  -3.8848  -1.9583  -1.1626  -0.3425
     4.9073   6.3227   7.3702   7.4015

     occupation numbers 
     1.0000   1.0000   1.0000   1.0000   1.0000   1.0000   1.0000   1.0000
     0.0000   0.0000   0.0000   0.0000

          k = 0.0000 0.2500 0.4167 (  1612 PWs)   bands (ev):

   -43.9359 -43.9252 -43.9143 -43.9123  -3.5259  -2.5593  -0.9942  -0.5741
     5.4574   6.5064   6.9137   7.0640

     occupation numbers 
     1.0000   1.0000   1.0000   1.0000   1.0000   1.0000   1.0000   1.0000
     0.0000   0.0000   0.0000   0.0000

          k = 0.0000 0.2500-0.5000 (  1594 PWs)   bands (ev):

   -43.9305 -43.9305 -43.9133 -43.9133  -3.0837  -3.0837  -0.7956  -0.7955
     6.1271   6.1271   6.7574   6.7574

     occupation numbers 
     1.0000   1.0000   1.0000   1.0000   1.0000   1.0000   1.0000   1.0000
     0.0000   0.0000   0.0000   0.0000

          k = 0.0000 0.3333 0.3333 (  1614 PWs)   bands (ev):

   -43.9371 -43.9189 -43.9189 -43.9128  -3.6183  -1.7803  -1.7803  -0.6595
     5.3361   7.3313   7.3314   7.4114

     occupation numbers 
     1.0000   1.0000   1.0000   1.0000   1.0000   1.0000   1.0000   1.0000
     0.0000   0.0000   0.0000   0.0000

          k = 0.0000 0.3333 0.4167 (  1614 PWs)   bands (ev):

   -43.9327 -43.9232 -43.9174 -43.9142  -3.2731  -2.3490  -1.5544  -0.9820
     5.8859   7.3254   7.3413   7.3862

     occupation numbers 
     1.0000   1.0000   1.0000   1.0000   1.0000   1.0000   1.0000   1.0000
     0.0000   0.0000   0.0000   0.0000

          k = 0.0000 0.3333-0.5000 (  1602 PWs)   bands (ev):

   -43.9279 -43.9279 -43.9157 -43.9157  -2.8492  -2.8492  -1.2854  -1.2854
     6.5552   6.5552   7.3492   7.3492

     occupation numbers 
     1.0000   1.0000   1.0000   1.0000   1.0000   1.0000   1.0000   1.0000
     0.0000   0.0000   0.0000   0.0000

          k = 0.0000 0.4167 0.4167 (  1612 PWs)   bands (ev):

   -43.9290 -43.9210 -43.9210 -43.9163  -2.9467  -2.0800  -2.0799  -1.3849
     6.4353   7.6603   8.0994   8.0998

     occupation numbers 
     1.0000   1.0000   1.0000   1.0000   1.0000   1.0000   1.0000   1.0000
     0.0000   0.0000   0.0000   0.0000

          k = 0.0000 0.4167-0.5000 (  1616 PWs)   bands (ev):

   -43.9250 -43.9250 -43.9186 -43.9186  -2.5476  -2.5476  -1.7560  -1.7559
     7.1040   7.1041   7.8908   7.8909

     occupation numbers 
     1.0000   1.0000   1.0000   1.0000   1.0000   1.0000   1.0000   1.0000
     0.0000   0.0000   0.0000   0.0000

          k = 0.0000-0.5000-0.5000 (  1628 PWs)   bands (ev):

   -43.9218 -43.9218 -43.9218 -43.9218  -2.1811  -2.1811  -2.1811  -2.1811
     7.7720   7.7720   7.7720   7.7721

     occupation numbers 
     1.0000   1.0000   1.0000   1.0000   1.0000   1.0000   1.0000   1.0000
     0.0000   0.0000   0.0000   0.0000

          k = 0.0833 0.0833 0.0833 (  1617 PWs)   bands (ev):

   -43.9564 -43.9108 -43.9108 -43.9108  -4.7583  -0.0062  -0.0062  -0.0062
     3.9186   3.9186   3.9186  10.0332

     occupation numbers 
     1.0000   1.0000   1.0000   1.0000   1.0000   1.0019   1.0019   1.0019
     0.0000   0.0000   0.0000   0.0000

          k = 0.0833 0.0833 0.1667 (  1614 PWs)   bands (ev):

   -43.9539 -43.9131 -43.9108 -43.9108  -4.6377  -0.6884  -0.0250  -0.0250
     4.0651   4.0651   4.8950   9.2023

     occupation numbers 
     1.0000   1.0000   1.0000   1.0000   1.0000   1.0000   1.0011   1.0011
     0.0000   0.0000   0.0000   0.0000

          k = 0.0833 0.0833 0.2500 (  1609 PWs)   bands (ev):

   -43.9501 -43.9168 -43.9107 -43.9107  -4.4354  -1.4336  -0.0514  -0.0514
     4.3168   4.3168   6.1141   8.2689

     occupation numbers 
     1.0000   1.0000   1.0000   1.0000   1.0000   1.0000   1.0004   1.0004
     0.0000   0.0000   0.0000   0.0000

          k = 0.0833 0.0833 0.3333 (  1602 PWs)   bands (ev):

   -43.9451 -43.9216 -43.9107 -43.9107  -4.1493  -2.1388  -0.0785  -0.0785
     4.6787   4.6787   7.3704   7.4432

     occupation numbers 
     1.0000   1.0000   1.0000   1.0000   1.0000   1.0000   1.0001   1.0001
     0.0000   0.0000   0.0000   0.0000

          k = 0.0833 0.0833 0.4167 (  1606 PWs)   bands (ev):

   -43.9394 -43.9273 -43.9106 -43.9106  -3.7774  -2.7707  -0.0988  -0.0988
     5.1438   5.1438   6.5689   6.5689

     occupation numbers 
     1.0000   1.0000   1.0000   1.0000   1.0000   1.0000   1.0001   1.0001
     0.0000   0.0000   0.0000   0.0000

          k = 0.0833 0.0833-0.5000 (  1610 PWs)   bands (ev):

   -43.9334 -43.9334 -43.9106 -43.9106  -3.3179  -3.3179  -0.1063  -0.1063
     5.5415   5.5415   6.0571   6.0571

     occupation numbers 
     1.0000   1.0000   1.0000   1.0000   1.0000   1.0000   1.0000   1.0000
     0.0000   0.0000   0.0000   0.0000

          k = 0.0833 0.1667 0.1667 (  1618 PWs)   bands (ev):

   -43.9516 -43.9130 -43.9130 -43.9109  -4.5189  -0.6649  -0.6649  -0.0731
     4.2038   4.9734   4.9734   8.7260

     occupation numbers 
     1.0000   1.0000   1.0000   1.0000   1.0000   1.0000   1.0000   1.0002
     0.0000   0.0000   0.0000   0.0000

          k = 0.0833 0.1667 0.2500 (  1610 PWs)   bands (ev):

   -43.9480 -43.9165 -43.9127 -43.9110  -4.3195  -1.3805  -0.6262  -0.1467
     4.4428   5.1162   6.1116   8.1132

     occupation numbers 
     1.0000   1.0000   1.0000   1.0000   1.0000   1.0000   1.0000   1.0000
     0.0000   0.0000   0.0000   0.0000

          k = 0.0833 0.1667 0.3333 (  1601 PWs)   bands (ev):

   -43.9433 -43.9210 -43.9124 -43.9112  -4.0377  -2.0657  -0.5727  -0.2365
     4.7847   5.3282   7.3296   7.4824

     occupation numbers 
     1.0000   1.0000   1.0000   1.0000   1.0000   1.0000   1.0000   1.0000
     0.0000   0.0000   0.0000   0.0000

          k = 0.0833 0.1667 0.4167 (  1603 PWs)   bands (ev):

   -43.9379 -43.9264 -43.9120 -43.9114  -3.6717  -2.6833  -0.5046  -0.3317
     5.2114   5.5728   6.8971   6.9238

     occupation numbers 
     1.0000   1.0000   1.0000   1.0000   1.0000   1.0000   1.0000   1.0000
     0.0000   0.0000   0.0000   0.0000

          k = 0.0833 0.1667-0.5000 (  1608 PWs)   bands (ev):

   -43.9321 -43.9321 -43.9117 -43.9117  -3.2201  -3.2201  -0.4232  -0.4232
     5.5982   5.5982   6.5997   6.5997

     occupation numbers 
     1.0000   1.0000   1.0000   1.0000   1.0000   1.0000   1.0000   1.0000
     0.0000   0.0000   0.0000   0.0000

          k = 0.0833 0.2500 0.2500 (  1599 PWs)   bands (ev):

   -43.9446 -43.9159 -43.9159 -43.9114  -4.1251  -1.2932  -1.2932  -0.2923
     4.6648   6.1202   6.1203   7.8751

     occupation numbers 
     1.0000   1.0000   1.0000   1.0000   1.0000   1.0000   1.0000   1.0000
     0.0000   0.0000   0.0000   0.0000

          k = 0.0833 0.2500 0.3333 (  1604 PWs)   bands (ev):

   -43.9404 -43.9201 -43.9152 -43.9120  -3.8508  -1.9444  -1.1734  -0.4706
     4.9866   6.1334   7.1625   7.6001

     occupation numbers 
     1.0000   1.0000   1.0000   1.0000   1.0000   1.0000   1.0000   1.0000
     0.0000   0.0000   0.0000   0.0000

          k = 0.0833 0.2500 0.4167 (  1604 PWs)   bands (ev):

   -43.9354 -43.9250 -43.9144 -43.9127  -3.4948  -2.5378  -1.0243  -0.6624
     5.3921   6.0790   7.3549   7.4613

     occupation numbers 
     1.0000   1.0000   1.0000   1.0000   1.0000   1.0000   1.0000   1.0000
     0.0000   0.0000   0.0000   0.0000

          k = 0.0833 0.2500-0.5000 (  1602 PWs)   bands (ev):

   -43.9302 -43.9302 -43.9135 -43.9135  -3.0567  -3.0567  -0.8512  -0.8512
     5.8126   5.8126   7.2454   7.2454

     occupation numbers 
     1.0000   1.0000   1.0000   1.0000   1.0000   1.0000   1.0000   1.0000
     0.0000   0.0000   0.0000   0.0000

          k = 0.0833 0.3333 0.3333 (  1606 PWs)   bands (ev):

   -43.9366 -43.9189 -43.9189 -43.9131  -3.5871  -1.7765  -1.7765  -0.7478
     5.2940   6.9326   6.9326   7.6917

     occupation numbers 
     1.0000   1.0000   1.0000   1.0000   1.0000   1.0000   1.0000   1.0000
     0.0000   0.0000   0.0000   0.0000

          k = 0.0833 0.3333 0.4167 (  1606 PWs)   bands (ev):

   -43.9323 -43.9231 -43.9174 -43.9144  -3.2460  -2.3347  -1.5648  -1.0373
     5.6965   6.5972   7.6759   7.7738

     occupation numbers 
     1.0000   1.0000   1.0000   1.0000   1.0000   1.0000   1.0000   1.0000
     0.0000   0.0000   0.0000   0.0000

          k = 0.0833 0.3333-0.5000 (  1606 PWs)   bands (ev):

   -43.9277 -43.9277 -43.9159 -43.9159  -2.8275  -2.8275  -1.3150  -1.3150
     6.1568   6.1568   7.9058   7.9063

     occupation numbers 
     1.0000   1.0000   1.0000   1.0000   1.0000   1.0000   1.0000   1.0000
     0.0000   0.0000   0.0000   0.0000

          k = 0.0833 0.4167 0.4167 (  1611 PWs)   bands (ev):

   -43.9287 -43.9210 -43.9210 -43.9165  -2.9250  -2.0760  -2.0760  -1.4145
     6.1115   7.1503   7.1503   8.1566

     occupation numbers 
     1.0000   1.0000   1.0000   1.0000   1.0000   1.0000   1.0000   1.0000
     0.0000   0.0000   0.0000   0.0000

          k = 0.0833 0.4167-0.5000 (  1618 PWs)   bands (ev):

   -43.9249 -43.9249 -43.9187 -43.9187  -2.5333  -2.5333  -1.7662  -1.7662
     6.6101   6.6101   7.7595   7.7595

     occupation numbers 
     1.0000   1.0000   1.0000   1.0000   1.0000   1.0000   1.0000   1.0000
     0.0000   0.0000   0.0000   0.0000

          k = 0.0833-0.5000-0.5000 (  1616 PWs)   bands (ev):

   -43.9218 -43.9218 -43.9218 -43.9218  -2.1772  -2.1772  -2.1772  -2.1772
     7.1526   7.1526   7.1526   7.1527

     occupation numbers 
     1.0000   1.0000   1.0000   1.0000   1.0000   1.0000   1.0000   1.0000
     0.0000   0.0000   0.0000   0.0000

          k = 0.1667 0.1667 0.1667 (  1629 PWs)   bands (ev):

   -43.9495 -43.9130 -43.9130 -43.9130  -4.4021  -0.6642  -0.6642  -0.6642
     5.0176   5.0177   5.0177   8.9804

     occupation numbers 
     1.0000   1.0000   1.0000   1.0000   1.0000   1.0000   1.0000   1.0000
     0.0000   0.0000   0.0000   0.0000

          k = 0.1667 0.1667 0.2500 (  1613 PWs)   bands (ev):

   -43.9461 -43.9162 -43.9129 -43.9129  -4.2062  -1.3438  -0.6638  -0.6638
     5.1051   5.1051   6.0292   8.4288

     occupation numbers 
     1.0000   1.0000   1.0000   1.0000   1.0000   1.0000   1.0000   1.0000
     0.0000   0.0000   0.0000   0.0000

          k = 0.1667 0.1667 0.3333 (  1594 PWs)   bands (ev):

   -43.9415 -43.9205 -43.9128 -43.9128  -3.9296  -2.0043  -0.6642  -0.6642
     5.2373   5.2373   7.0713   7.8832

     occupation numbers 
     1.0000   1.0000   1.0000   1.0000   1.0000   1.0000   1.0000   1.0000
     0.0000   0.0000   0.0000   0.0000

          k = 0.1667 0.1667 0.4167 (  1605 PWs)   bands (ev):

   -43.9365 -43.9256 -43.9128 -43.9128  -3.5706  -2.6044  -0.6650  -0.6650
     5.3818   5.3818   7.4611   7.4612

     occupation numbers 
     1.0000   1.0000   1.0000   1.0000   1.0000   1.0000   1.0000   1.0000
     0.0000   0.0000   0.0000   0.0000

          k = 0.1667 0.1667-0.5000 (  1596 PWs)   bands (ev):

   -43.9310 -43.9310 -43.9127 -43.9127  -3.1285  -3.1285  -0.6654  -0.6653
     5.4519   5.4519   7.2940   7.2940

     occupation numbers 
     1.0000   1.0000   1.0000   1.0000   1.0000   1.0000   1.0000   1.0000
     0.0000   0.0000   0.0000   0.0000

          k = 0.1667 0.2500 0.2500 (  1604 PWs)   bands (ev):

   -43.9429 -43.9159 -43.9159 -43.9131  -4.0163  -1.2847  -1.2847  -0.7256
     5.1241   5.9178   5.9178   8.3124

     occupation numbers 
     1.0000   1.0000   1.0000   1.0000   1.0000   1.0000   1.0000   1.0000
     0.0000   0.0000   0.0000   0.0000

          k = 0.1667 0.2500 0.3333 (  1610 PWs)   bands (ev):

   -43.9389 -43.9198 -43.9154 -43.9135  -3.7485  -1.9034  -1.2063  -0.8084
     5.1974   5.7910   6.7309   8.1709

     occupation numbers 
     1.0000   1.0000   1.0000   1.0000   1.0000   1.0000   1.0000   1.0000
     0.0000   0.0000   0.0000   0.0000

          k = 0.1667 0.2500 0.4167 (  1609 PWs)   bands (ev):

   -43.9342 -43.9244 -43.9149 -43.9139  -3.4016  -2.4737  -1.1129  -0.9060
     5.3257   5.6476   7.4992   8.0688

     occupation numbers 
     1.0000   1.0000   1.0000   1.0000   1.0000   1.0000   1.0000   1.0000
     0.0000   0.0000   0.0000   0.0000

          k = 0.1667 0.2500-0.5000 (  1600 PWs)   bands (ev):

   -43.9292 -43.9292 -43.9144 -43.9144  -2.9758  -2.9758  -1.0103  -1.0103
     5.4864   5.4864   8.0711   8.0711

     occupation numbers 
     1.0000   1.0000   1.0000   1.0000   1.0000   1.0000   1.0000   1.0000
     0.0000   0.0000   0.0000   0.0000

          k = 0.1667 0.3333 0.3333 (  1607 PWs)   bands (ev):

   -43.9354 -43.9188 -43.9188 -43.9143  -3.4936  -1.7659  -1.7659  -0.9915
     5.2567   6.3634   6.3634   8.4171

     occupation numbers 
     1.0000   1.0000   1.0000   1.0000   1.0000   1.0000   1.0000   1.0000
     0.0000   0.0000   0.0000   0.0000

          k = 0.1667 0.3333 0.4167 (  1603 PWs)   bands (ev):

   -43.9313 -43.9227 -43.9176 -43.9153  -3.1646  -2.2928  -1.5963  -1.1956
     5.4229   6.0038   6.9533   8.2636

     occupation numbers 
     1.0000   1.0000   1.0000   1.0000   1.0000   1.0000   1.0000   1.0000
     0.0000   0.0000   0.0000   0.0000

          k = 0.1667 0.3333-0.5000 (  1610 PWs)   bands (ev):

   -43.9270 -43.9270 -43.9165 -43.9165  -2.7628  -2.7628  -1.4024  -1.4024
     5.6806   5.6806   7.5816   7.5817

     occupation numbers 
     1.0000   1.0000   1.0000   1.0000   1.0000   1.0000   1.0000   1.0000
     0.0000   0.0000   0.0000   0.0000

          k = 0.1667 0.4167 0.4167 (  1604 PWs)   bands (ev):

   -43.9280 -43.9209 -43.9209 -43.9171  -2.8602  -2.0652  -2.0652  -1.5016
     5.6583   6.4478   6.4478   7.5836

     occupation numbers 
     1.0000   1.0000   1.0000   1.0000   1.0000   1.0000   1.0000   1.0000
     0.0000   0.0000   0.0000   0.0000

          k = 0.1667 0.4167-0.5000 (  1610 PWs)   bands (ev):

   -43.9245 -43.9245 -43.9190 -43.9190  -2.4914  -2.4913  -1.7975  -1.7975
     6.0081   6.0081   6.9762   6.9762

     occupation numbers 
     1.0000   1.0000   1.0000   1.0000   1.0000   1.0000   1.0000   1.0000
     0.0000   0.0000   0.0000   0.0000

          k = 0.1667-0.5000-0.5000 (  1616 PWs)   bands (ev):

   -43.9217 -43.9217 -43.9217 -43.9217  -2.1664  -2.1664  -2.1664  -2.1664
     6.4462   6.4462   6.4462   6.4462

     occupation numbers 
     1.0000   1.0000   1.0000   1.0000   1.0000   1.0000   1.0000   1.0000
     0.0000   0.0000   0.0000   0.0000

          k = 0.2500 0.2500 0.2500 (  1607 PWs)   bands (ev):

   -43.9401 -43.9158 -43.9158 -43.9158  -3.8341  -1.2733  -1.2733  -1.2733
     5.6902   5.6902   5.6902   9.0510

     occupation numbers 
     1.0000   1.0000   1.0000   1.0000   1.0000   1.0000   1.0000   1.0000
     0.0000   0.0000   0.0000   0.0000

          k = 0.2500 0.2500 0.3333 (  1610 PWs)   bands (ev):

   -43.9365 -43.9193 -43.9158 -43.9158  -3.5775  -1.8377  -1.2620  -1.2620
     5.5001   5.5001   6.2775   8.9563

     occupation numbers 
     1.0000   1.0000   1.0000   1.0000   1.0000   1.0000   1.0000   1.0000
     0.0000   0.0000   0.0000   0.0000

          k = 0.2500 0.2500 0.4167 (  1603 PWs)   bands (ev):

   -43.9323 -43.9234 -43.9157 -43.9157  -3.2464  -2.3686  -1.2538  -1.2538
     5.3781   5.3781   6.8799   8.2061

     occupation numbers 
     1.0000   1.0000   1.0000   1.0000   1.0000   1.0000   1.0000   1.0000
     0.0000   0.0000   0.0000   0.0000

          k = 0.2500 0.2500-0.5000 (  1582 PWs)   bands (ev):

   -43.9278 -43.9278 -43.9156 -43.9156  -2.8419  -2.8419  -1.2509  -1.2509
     5.3364   5.3364   7.5171   7.5171

     occupation numbers 
     1.0000   1.0000   1.0000   1.0000   1.0000   1.0000   1.0000   1.0000
     0.0000   0.0000   0.0000   0.0000

          k = 0.2500 0.3333 0.3333 (  1609 PWs)   bands (ev):

   -43.9334 -43.9187 -43.9187 -43.9162  -3.3377  -1.7513  -1.7513  -1.3397
     5.3240   5.8797   5.8797   8.1825

     occupation numbers 
     1.0000   1.0000   1.0000   1.0000   1.0000   1.0000   1.0000   1.0000
     0.0000   0.0000   0.0000   0.0000

          k = 0.2500 0.3333 0.4167 (  1605 PWs)   bands (ev):

   -43.9299 -43.9222 -43.9180 -43.9167  -3.0298  -2.2256  -1.6501  -1.4353
     5.2793   5.5691   6.3360   7.4871

     occupation numbers 
     1.0000   1.0000   1.0000   1.0000   1.0000   1.0000   1.0000   1.0000
     0.0000   0.0000   0.0000   0.0000

          k = 0.2500 0.3333-0.5000 (  1608 PWs)   bands (ev):

   -43.9260 -43.9260 -43.9174 -43.9174  -2.6567  -2.6567  -1.5417  -1.5417
     5.3643   5.3643   6.8715   6.8715

     occupation numbers 
     1.0000   1.0000   1.0000   1.0000   1.0000   1.0000   1.0000   1.0000
     0.0000   0.0000   0.0000   0.0000

          k = 0.2500 0.4167 0.4167 (  1607 PWs)   bands (ev):

   -43.9270 -43.9208 -43.9208 -43.9180  -2.7541  -2.0501  -2.0501  -1.6404
     5.3425   5.8880   5.8880   6.8566

     occupation numbers 
     1.0000   1.0000   1.0000   1.0000   1.0000   1.0000   1.0000   1.0000
     0.0000   0.0000   0.0000   0.0000

          k = 0.2500 0.4167-0.5000 (  1602 PWs)   bands (ev):

   -43.9239 -43.9239 -43.9194 -43.9194  -2.4242  -2.4242  -1.8509  -1.8508
     5.5513   5.5513   6.3209   6.3209

     occupation numbers 
     1.0000   1.0000   1.0000   1.0000   1.0000   1.0000   1.0000   1.0000
     0.0000   0.0000   0.0000   0.0000

          k = 0.2500-0.5000-0.5000 (  1596 PWs)   bands (ev):

   -43.9216 -43.9216 -43.9216 -43.9216  -2.1514  -2.1514  -2.1514  -2.1514
     5.8762   5.8762   5.8762   5.8762

     occupation numbers 
     1.0000   1.0000   1.0000   1.0000   1.0000   1.0000   1.0000   1.0000
     0.0000   0.0000   0.0000   0.0000

          k = 0.3333 0.3333 0.3333 (  1610 PWs)   bands (ev):

   -43.9308 -43.9186 -43.9186 -43.9186  -3.1203  -1.7366  -1.7365  -1.7365
     5.5209   5.5209   5.5209   7.4513

     occupation numbers 
     1.0000   1.0000   1.0000   1.0000   1.0000   1.0000   1.0000   1.0000
     0.0000   0.0000   0.0000   0.0000

          k = 0.3333 0.3333 0.4167 (  1602 PWs)   bands (ev):

   -43.9279 -43.9215 -43.9186 -43.9186  -2.8436  -2.1375  -1.7257  -1.7257
     5.3013   5.3013   5.8417   6.8144

     occupation numbers 
     1.0000   1.0000   1.0000   1.0000   1.0000   1.0000   1.0000   1.0000
     0.0000   0.0000   0.0000   0.0000

          k = 0.3333 0.3333-0.5000 (  1604 PWs)   bands (ev):

   -43.9247 -43.9247 -43.9185 -43.9185  -2.5126  -2.5126  -1.7216  -1.7216
     5.2275   5.2275   6.2759   6.2759

     occupation numbers 
     1.0000   1.0000   1.0000   1.0000   1.0000   1.0000   1.0000   1.0000
     0.0000   0.0000   0.0000   0.0000

          k = 0.3333 0.4167 0.4167 (  1602 PWs)   bands (ev):

   -43.9256 -43.9208 -43.9208 -43.9192  -2.6099  -2.0349  -2.0349  -1.8198
     5.2014   5.4811   5.4811   6.2505

     occupation numbers 
     1.0000   1.0000   1.0000   1.0000   1.0000   1.0000   1.0000   1.0000
     0.0000   0.0000   0.0000   0.0000

          k = 0.3333 0.4167-0.5000 (  1610 PWs)   bands (ev):

   -43.9232 -43.9232 -43.9200 -43.9200  -2.3361  -2.3361  -1.9259  -1.9258
     5.2643   5.2643   5.8024   5.8024

     occupation numbers 
     1.0000   1.0000   1.0000   1.0000   1.0000   1.0000   1.0000   1.0000
     0.0000   0.0000   0.0000   0.0000

          k = 0.3333-0.5000-0.5000 (  1608 PWs)   bands (ev):

   -43.9216 -43.9216 -43.9216 -43.9216  -2.1362  -2.1362  -2.1362  -2.1362
     5.4610   5.4610   5.4610   5.4610

     occupation numbers 
     1.0000   1.0000   1.0000   1.0000   1.0000   1.0000   1.0000   1.0000
     0.0000   0.0000   0.0000   0.0000

          k = 0.4167 0.4167 0.4167 (  1607 PWs)   bands (ev):

   -43.9240 -43.9207 -43.9207 -43.9207  -2.4334  -2.0235  -2.0235  -2.0235
     5.2342   5.2342   5.2342   5.7716

     occupation numbers 
     1.0000   1.0000   1.0000   1.0000   1.0000   1.0000   1.0000   1.0000
     0.0000   0.0000   0.0000   0.0000

          k = 0.4167 0.4167-0.5000 (  1606 PWs)   bands (ev):

   -43.9223 -43.9223 -43.9207 -43.9207  -2.2336  -2.2336  -2.0194  -2.0194
     5.1513   5.1513   5.4288   5.4288

     occupation numbers 
     1.0000   1.0000   1.0000   1.0000   1.0000   1.0000   1.0000   1.0000
     0.0000   0.0000   0.0000   0.0000

          k = 0.4167-0.5000-0.5000 (  1604 PWs)   bands (ev):

   -43.9215 -43.9215 -43.9215 -43.9215  -2.1249  -2.1249  -2.1249  -2.1249
     5.2088   5.2088   5.2088   5.2088

     occupation numbers 
     1.0000   1.0000   1.0000   1.0000   1.0000   1.0000   1.0000   1.0000
     0.0000   0.0000   0.0000   0.0000

          k =-0.5000-0.5000-0.5000 (  1640 PWs)   bands (ev):

   -43.9216 -43.9216 -43.9216 -43.9216  -2.1207  -2.1207  -2.1207  -2.1207
     5.1241   5.1241   5.1241   5.1242

     occupation numbers 
     1.0000   1.0000   1.0000   1.0000   1.0000   1.0000   1.0000   1.0000
     0.0000   0.0000   0.0000   0.0000

     the Fermi energy is     0.3936 ev

!    total energy              =     -62.79716033 Ry
     Harris-Foulkes estimate   =     -62.79716033 Ry
     estimated scf accuracy    <          3.1E-09 Ry

     The total energy is the sum of the following terms:

     one-electron contribution =     -32.53965712 Ry
     hartree contribution      =      13.46925967 Ry
     xc contribution           =     -16.57114990 Ry
     ewald contribution        =     -27.15581720 Ry
     smearing contrib. (-TS)   =       0.00020422 Ry

     convergence has been achieved in   7 iterations

     Forces acting on atoms (cartesian axes, Ry/au):

     atom    1 type  2   force =     0.00000000    0.00000000    0.00000000
     atom    2 type  2   force =     0.00000000    0.00000000    0.00000000
     atom    3 type  2   force =     0.00000000    0.00000000    0.00000000
     atom    4 type  2   force =     0.00000000    0.00000000    0.00000000
     atom    5 type  1   force =     0.00000000    0.00000000    0.00000000
     atom    6 type  1   force =     0.00000000    0.00000000    0.00000000
     atom    7 type  1   force =     0.00000000    0.00000000    0.00000000
     atom    8 type  1   force =     0.00000000    0.00000000    0.00000000
     The non-local contrib.  to forces
     atom    1 type  2   force =     0.00000000    0.00000000    0.00000000
     atom    2 type  2   force =     0.00000000    0.00000000    0.00000000
     atom    3 type  2   force =     0.00000000    0.00000000    0.00000000
     atom    4 type  2   force =     0.00000000    0.00000000    0.00000000
     atom    5 type  1   force =     0.00000000    0.00000000    0.00000000
     atom    6 type  1   force =     0.00000000    0.00000000    0.00000000
     atom    7 type  1   force =     0.00000000    0.00000000    0.00000000
     atom    8 type  1   force =     0.00000000    0.00000000    0.00000000
     The ionic contribution  to forces
     atom    1 type  2   force =    -0.00000000   -0.00000000   -0.00000000
     atom    2 type  2   force =    -0.00000000    0.00000000    0.00000000
     atom    3 type  2   force =     0.00000000   -0.00000000    0.00000000
     atom    4 type  2   force =     0.00000000    0.00000000   -0.00000000
     atom    5 type  1   force =     0.00000000    0.00000000    0.00000000
     atom    6 type  1   force =     0.00000000   -0.00000000   -0.00000000
     atom    7 type  1   force =    -0.00000000    0.00000000   -0.00000000
     atom    8 type  1   force =    -0.00000000   -0.00000000    0.00000000
     The local contribution  to forces
     atom    1 type  2   force =     0.00000000    0.00000000    0.00000000
     atom    2 type  2   force =     0.00000000    0.00000000    0.00000000
     atom    3 type  2   force =     0.00000000   -0.00000000    0.00000000
     atom    4 type  2   force =     0.00000000    0.00000000    0.00000000
     atom    5 type  1   force =     0.00000000    0.00000000    0.00000000
     atom    6 type  1   force =     0.00000000    0.00000000   -0.00000000
     atom    7 type  1   force =    -0.00000000    0.00000000   -0.00000000
     atom    8 type  1   force =    -0.00000000   -0.00000000    0.00000000
     The core correction contribution to forces
     atom    1 type  2   force =     0.00000000    0.00000000    0.00000000
     atom    2 type  2   force =     0.00000000    0.00000000    0.00000000
     atom    3 type  2   force =     0.00000000    0.00000000    0.00000000
     atom    4 type  2   force =     0.00000000    0.00000000    0.00000000
     atom    5 type  1   force =     0.00000000    0.00000000    0.00000000
     atom    6 type  1   force =     0.00000000    0.00000000    0.00000000
     atom    7 type  1   force =     0.00000000    0.00000000    0.00000000
     atom    8 type  1   force =     0.00000000    0.00000000    0.00000000
     The Hubbard contrib.    to forces
     atom    1 type  2   force =     0.00000000    0.00000000    0.00000000
     atom    2 type  2   force =     0.00000000    0.00000000    0.00000000
     atom    3 type  2   force =     0.00000000    0.00000000    0.00000000
     atom    4 type  2   force =     0.00000000    0.00000000    0.00000000
     atom    5 type  1   force =     0.00000000    0.00000000    0.00000000
     atom    6 type  1   force =     0.00000000    0.00000000    0.00000000
     atom    7 type  1   force =     0.00000000    0.00000000    0.00000000
     atom    8 type  1   force =     0.00000000    0.00000000    0.00000000
     The SCF correction term to forces
     atom    1 type  2   force =    -0.00000000    0.00000000   -0.00000000
     atom    2 type  2   force =    -0.00000000   -0.00000000   -0.00000000
     atom    3 type  2   force =    -0.00000000    0.00000000   -0.00000000
     atom    4 type  2   force =     0.00000000    0.00000000   -0.00000000
     atom    5 type  1   force =     0.00000000   -0.00000000   -0.00000000
     atom    6 type  1   force =     0.00000000    0.00000000   -0.00000000
     atom    7 type  1   force =     0.00000000    0.00000000   -0.00000000
     atom    8 type  1   force =    -0.00000000   -0.00000000   -0.00000000

     Total force =     0.000000     Total SCF correction =     0.000000


     Computing stress (Cartesian axis) and pressure

          total   stress  (Ry/bohr**3)                   (kbar)     P=  -19.77
  -0.00013439   0.00000000   0.00000000        -19.77      0.00      0.00
   0.00000000  -0.00013439   0.00000000          0.00    -19.77      0.00
   0.00000000   0.00000000  -0.00013439          0.00      0.00    -19.77

     kinetic stress (kbar)   3575.77      0.00      0.00
                                0.00   3575.77      0.00
                                0.00      0.00   3575.77

     local   stress (kbar)    820.59     -0.00      0.00
                               -0.00    820.59      0.00
                                0.00      0.00    820.59

     nonloc. stress (kbar)  -1264.72      0.00      0.00
                                0.00  -1264.72      0.00
                                0.00      0.00  -1264.72

     hartree stress (kbar)   1437.43      0.00      0.00
                                0.00   1437.43      0.00
                                0.00      0.00   1437.43

     exc-cor stress (kbar)  -1690.79      0.00      0.00
                                0.00  -1690.79      0.00
                                0.00      0.00  -1690.79

     corecor stress (kbar)      0.00      0.00      0.00
                                0.00      0.00      0.00
                                0.00      0.00      0.00

     ewald   stress (kbar)  -2898.06     -0.00      0.00
                               -0.00  -2898.06     -0.00
                                0.00     -0.00  -2898.06

     hubbard stress (kbar)      0.00      0.00      0.00
                                0.00      0.00      0.00
                                0.00      0.00      0.00

     london  stress (kbar)      0.00      0.00      0.00
                                0.00      0.00      0.00
                                0.00      0.00      0.00

     DFT-D3  stress (kbar)      0.00      0.00      0.00
                                0.00      0.00      0.00
                                0.00      0.00      0.00

     XDM     stress (kbar)      0.00      0.00      0.00
                                0.00      0.00      0.00
                                0.00      0.00      0.00

     dft-nl  stress (kbar)      0.00      0.00      0.00
                                0.00      0.00      0.00
                                0.00      0.00      0.00

     TS-vdW  stress (kbar)      0.00      0.00      0.00
                                0.00      0.00      0.00
                                0.00      0.00      0.00



     BFGS Geometry Optimization

     number of scf cycles    =   1
     number of bfgs steps    =   0

     enthalpy new            =     -62.7971603272 Ry

     new trust radius        =       0.0144032308 bohr
     new conv_thr            =       0.0000000100 Ry

     new unit-cell volume =    454.85998 a.u.^3 (    67.40329 Ang^3 )
     density =      0.78331 g/cm^3

CELL_PARAMETERS (angstrom)
   4.069681057   0.000000000   0.000000000
   0.000000000   4.069681057   0.000000000
   0.000000000   0.000000000   4.069681057

ATOMIC_POSITIONS (crystal)
Li       0.000000000   0.000000000   0.000000000
Li       0.000000000   0.500000000   0.500000000
Li       0.500000000   0.000000000   0.500000000
Li       0.500000000   0.500000000   0.000000000
H        0.500000000   0.500000000   0.500000000
H        0.500000000   0.000000000   0.000000000
H        0.000000000   0.500000000   0.000000000
H        0.000000000   0.000000000   0.500000000


     NEW-OLD atomic charge density approx. for the potential
     extrapolated charge   15.85594, renormalised to   16.00000

     total cpu time spent up to now is       48.0 secs

     Self-consistent Calculation

     iteration #  1     ecut=    35.00 Ry     beta= 0.70
     Davidson diagonalization with overlap
     ethr =  1.00E-06,  avg # of iterations =  3.0

     total cpu time spent up to now is       56.0 secs

     total energy              =     -62.79753448 Ry
     Harris-Foulkes estimate   =     -62.84672571 Ry
     estimated scf accuracy    <       0.00012058 Ry

     iteration #  2     ecut=    35.00 Ry     beta= 0.70
     Davidson diagonalization with overlap
     ethr =  7.54E-07,  avg # of iterations =  3.0

     total cpu time spent up to now is       66.3 secs

     total energy              =     -62.79773074 Ry
     Harris-Foulkes estimate   =     -62.79773599 Ry
     estimated scf accuracy    <       0.00001057 Ry

     iteration #  3     ecut=    35.00 Ry     beta= 0.70
     Davidson diagonalization with overlap
     ethr =  6.61E-08,  avg # of iterations =  1.0

     total cpu time spent up to now is       69.5 secs

     total energy              =     -62.79773004 Ry
     Harris-Foulkes estimate   =     -62.79773099 Ry
     estimated scf accuracy    <       0.00000159 Ry

     iteration #  4     ecut=    35.00 Ry     beta= 0.70
     Davidson diagonalization with overlap
     ethr =  9.92E-09,  avg # of iterations =  2.0

     total cpu time spent up to now is       77.5 secs

     total energy              =     -62.79773027 Ry
     Harris-Foulkes estimate   =     -62.79773027 Ry
     estimated scf accuracy    <       0.00000001 Ry

     iteration #  5     ecut=    35.00 Ry     beta= 0.70
     Davidson diagonalization with overlap
     ethr =  6.48E-11,  avg # of iterations =  3.0

     total cpu time spent up to now is       84.2 secs

     End of self-consistent calculation

          k = 0.0000 0.0000 0.0000 (  1575 PWs)   bands (ev):

   -43.8984 -43.8473 -43.8473 -43.8473  -4.8665   0.3988   0.3988   0.3988
     3.4162   3.4162   3.4162  10.9977

     occupation numbers 
     1.0000   1.0000   1.0000   1.0000   1.0000   0.6430   0.6430   0.6430
     0.0000   0.0000   0.0000   0.0000

          k = 0.0000 0.0000 0.0836 (  1595 PWs)   bands (ev):

   -43.8975 -43.8482 -43.8474 -43.8474  -4.8260   0.0490   0.3844   0.3844
     3.4782   3.4782   3.8715  10.4514

[...]
     5.5583   6.1934   7.1875   8.6763

     occupation numbers 
     1.0000   1.0000   1.0000   1.0000   1.0000   1.0000   1.0000   1.0000
     0.0000   0.0000   0.0000   0.0000

          k = 0.1699 0.2549 0.4248 (  1521 PWs)   bands (ev):

   -43.5749 -43.5626 -43.5507 -43.5494  -3.2927  -2.3362  -0.9253  -0.7094
     5.6980   6.0434   7.9975   8.5602

     occupation numbers 
     1.0000   1.0000   1.0000   1.0000   1.0000   1.0000   1.0000   1.0000
     0.0000   0.0000   0.0000   0.0000

          k = 0.1699 0.2549-0.5097 (  1514 PWs)   bands (ev):

   -43.5687 -43.5687 -43.5500 -43.5500  -2.8546  -2.8546  -0.8191  -0.8191
     5.8717   5.8717   8.5532   8.5532

     occupation numbers 
     1.0000   1.0000   1.0000   1.0000   1.0000   1.0000   1.0000   1.0000
     0.0000   0.0000   0.0000   0.0000

          k = 0.1699 0.3398 0.3398 (  1519 PWs)   bands (ev):

   -43.5764 -43.5556 -43.5556 -43.5500  -3.3878  -1.6047  -1.6047  -0.7998
     5.6271   6.8039   6.8039   8.9430

     occupation numbers 
     1.0000   1.0000   1.0000   1.0000   1.0000   1.0000   1.0000   1.0000
     0.0000   0.0000   0.0000   0.0000

          k = 0.1699 0.3398 0.4248 (  1513 PWs)   bands (ev):

   -43.5713 -43.5605 -43.5541 -43.5513  -3.0505  -2.1515  -1.4308  -1.0147
     5.8086   6.4266   7.4269   8.8003

     occupation numbers 
     1.0000   1.0000   1.0000   1.0000   1.0000   1.0000   1.0000   1.0000
     0.0000   0.0000   0.0000   0.0000

          k = 0.1699 0.3398-0.5097 (  1526 PWs)   bands (ev):

   -43.5659 -43.5659 -43.5527 -43.5527  -2.6370  -2.6370  -1.2303  -1.2303
     6.0847   6.0847   8.0866   8.0866

     occupation numbers 
     1.0000   1.0000   1.0000   1.0000   1.0000   1.0000   1.0000   1.0000
     0.0000   0.0000   0.0000   0.0000

          k = 0.1699 0.4248 0.4248 (  1520 PWs)   bands (ev):

   -43.5670 -43.5582 -43.5582 -43.5535  -2.7384  -1.9181  -1.9181  -1.3346
     6.0625   6.8972   6.8972   8.0896

     occupation numbers 
     1.0000   1.0000   1.0000   1.0000   1.0000   1.0000   1.0000   1.0000
     0.0000   0.0000   0.0000   0.0000

          k = 0.1699 0.4248-0.5097 (  1526 PWs)   bands (ev):

   -43.5626 -43.5626 -43.5558 -43.5558  -2.3587  -2.3587  -1.6420  -1.6420
     6.4341   6.4341   7.4531   7.4531

     occupation numbers 
     1.0000   1.0000   1.0000   1.0000   1.0000   1.0000   1.0000   1.0000
     0.0000   0.0000   0.0000   0.0000

          k = 0.1699-0.5097-0.5097 (  1532 PWs)   bands (ev):

   -43.5592 -43.5592 -43.5592 -43.5592  -2.0240  -2.0240  -2.0240  -2.0240
     6.8966   6.8966   6.8966   6.8966

     occupation numbers 
     1.0000   1.0000   1.0000   1.0000   1.0000   1.0000   1.0000   1.0000
     0.0000   0.0000   0.0000   0.0000

          k = 0.2549 0.2549 0.2549 (  1520 PWs)   bands (ev):

   -43.5823 -43.5518 -43.5518 -43.5518  -3.7364  -1.0909  -1.0909  -1.0909
     6.0894   6.0894   6.0894   9.5843

     occupation numbers 
     1.0000   1.0000   1.0000   1.0000   1.0000   1.0000   1.0000   1.0000
     0.0000   0.0000   0.0000   0.0000

          k = 0.2549 0.2549 0.3398 (  1517 PWs)   bands (ev):

   -43.5777 -43.5562 -43.5518 -43.5518  -3.4743  -1.6796  -1.0822  -1.0822
     5.8954   5.8954   6.7169   9.5745

     occupation numbers 
     1.0000   1.0000   1.0000   1.0000   1.0000   1.0000   1.0000   1.0000
     0.0000   0.0000   0.0000   0.0000

          k = 0.2549 0.2549 0.4248 (  1509 PWs)   bands (ev):

   -43.5725 -43.5613 -43.5517 -43.5517  -3.1349  -2.2302  -1.0760  -1.0760
     5.7724   5.7724   7.3543   8.7443

     occupation numbers 
     1.0000   1.0000   1.0000   1.0000   1.0000   1.0000   1.0000   1.0000
     0.0000   0.0000   0.0000   0.0000

          k = 0.2549 0.2549-0.5097 (  1516 PWs)   bands (ev):

   -43.5669 -43.5669 -43.5516 -43.5516  -2.7189  -2.7189  -1.0737  -1.0737
     5.7306   5.7306   8.0236   8.0236

     occupation numbers 
     1.0000   1.0000   1.0000   1.0000   1.0000   1.0000   1.0000   1.0000
     0.0000   0.0000   0.0000   0.0000

          k = 0.2549 0.3398 0.3398 (  1517 PWs)   bands (ev):

   -43.5738 -43.5555 -43.5555 -43.5523  -3.2295  -1.5930  -1.5930  -1.1664
     5.7192   6.3061   6.3061   8.7219

     occupation numbers 
     1.0000   1.0000   1.0000   1.0000   1.0000   1.0000   1.0000   1.0000
     0.0000   0.0000   0.0000   0.0000

          k = 0.2549 0.3398 0.4248 (  1512 PWs)   bands (ev):

   -43.5693 -43.5598 -43.5546 -43.5530  -2.9141  -2.0853  -1.4905  -1.2681
     5.6791   5.9851   6.7909   7.9972

     occupation numbers 
     1.0000   1.0000   1.0000   1.0000   1.0000   1.0000   1.0000   1.0000
     0.0000   0.0000   0.0000   0.0000

          k = 0.2549 0.3398-0.5097 (  1520 PWs)   bands (ev):

   -43.5646 -43.5646 -43.5538 -43.5538  -2.5305  -2.5305  -1.3792  -1.3792
     5.7714   5.7714   7.3538   7.3538

     occupation numbers 
     1.0000   1.0000   1.0000   1.0000   1.0000   1.0000   1.0000   1.0000
     0.0000   0.0000   0.0000   0.0000

          k = 0.2549 0.4248 0.4248 (  1516 PWs)   bands (ev):

   -43.5657 -43.5581 -43.5581 -43.5546  -2.6319  -1.9063  -1.9063  -1.4831
     5.7525   6.3260   6.3260   7.3412

     occupation numbers 
     1.0000   1.0000   1.0000   1.0000   1.0000   1.0000   1.0000   1.0000
     0.0000   0.0000   0.0000   0.0000

          k = 0.2549 0.4248-0.5097 (  1512 PWs)   bands (ev):

   -43.5619 -43.5619 -43.5563 -43.5563  -2.2928  -2.2928  -1.7014  -1.7014
     5.9743   5.9743   6.7816   6.7816

     occupation numbers 
     1.0000   1.0000   1.0000   1.0000   1.0000   1.0000   1.0000   1.0000
     0.0000   0.0000   0.0000   0.0000

          k = 0.2549-0.5097-0.5097 (  1528 PWs)   bands (ev):

   -43.5591 -43.5591 -43.5591 -43.5591  -2.0124  -2.0124  -2.0124  -2.0124
     6.3171   6.3171   6.3171   6.3171

     occupation numbers 
     1.0000   1.0000   1.0000   1.0000   1.0000   1.0000   1.0000   1.0000
     0.0000   0.0000   0.0000   0.0000

          k = 0.3398 0.3398 0.3398 (  1514 PWs)   bands (ev):

   -43.5705 -43.5554 -43.5554 -43.5554  -3.0080  -1.5813  -1.5813  -1.5813
     5.9395   5.9395   5.9395   7.9634

     occupation numbers 
     1.0000   1.0000   1.0000   1.0000   1.0000   1.0000   1.0000   1.0000
     0.0000   0.0000   0.0000   0.0000

          k = 0.3398 0.3398 0.4248 (  1514 PWs)   bands (ev):

   -43.5668 -43.5590 -43.5553 -43.5553  -2.7250  -1.9977  -1.5727  -1.5727
     5.7161   5.7161   6.2828   7.3015

     occupation numbers 
     1.0000   1.0000   1.0000   1.0000   1.0000   1.0000   1.0000   1.0000
     0.0000   0.0000   0.0000   0.0000

          k = 0.3398 0.3398-0.5097 (  1510 PWs)   bands (ev):

   -43.5629 -43.5629 -43.5553 -43.5553  -2.3850  -2.3850  -1.5695  -1.5695
     5.6411   5.6411   6.7395   6.7395

     occupation numbers 
     1.0000   1.0000   1.0000   1.0000   1.0000   1.0000   1.0000   1.0000
     0.0000   0.0000   0.0000   0.0000

          k = 0.3398 0.4248 0.4248 (  1515 PWs)   bands (ev):

   -43.5639 -43.5581 -43.5581 -43.5561  -2.4865  -1.8944  -1.8944  -1.6727
     5.6189   5.9119   5.9119   6.7171

     occupation numbers 
     1.0000   1.0000   1.0000   1.0000   1.0000   1.0000   1.0000   1.0000
     0.0000   0.0000   0.0000   0.0000

          k = 0.3398 0.4248-0.5097 (  1518 PWs)   bands (ev):

   -43.5610 -43.5610 -43.5571 -43.5571  -2.2055  -2.2055  -1.7830  -1.7830
     5.6873   5.6873   6.2504   6.2504

     occupation numbers 
     1.0000   1.0000   1.0000   1.0000   1.0000   1.0000   1.0000   1.0000
     0.0000   0.0000   0.0000   0.0000

          k = 0.3398-0.5097-0.5097 (  1512 PWs)   bands (ev):

   -43.5590 -43.5590 -43.5590 -43.5590  -2.0006  -2.0006  -2.0006  -2.0006
     5.8954   5.8954   5.8954   5.8954

     occupation numbers 
     1.0000   1.0000   1.0000   1.0000   1.0000   1.0000   1.0000   1.0000
     0.0000   0.0000   0.0000   0.0000

          k = 0.4248 0.4248 0.4248 (  1523 PWs)   bands (ev):

   -43.5620 -43.5580 -43.5580 -43.5580  -2.3072  -1.8856  -1.8856  -1.8856
     5.6611   5.6611   5.6611   6.2229

     occupation numbers 
     1.0000   1.0000   1.0000   1.0000   1.0000   1.0000   1.0000   1.0000
     0.0000   0.0000   0.0000   0.0000

          k = 0.4248 0.4248-0.5097 (  1520 PWs)   bands (ev):

   -43.5600 -43.5600 -43.5579 -43.5579  -2.1027  -2.1027  -1.8824  -1.8824
     5.5771   5.5771   5.8671   5.8671

     occupation numbers 
     1.0000   1.0000   1.0000   1.0000   1.0000   1.0000   1.0000   1.0000
     0.0000   0.0000   0.0000   0.0000

          k = 0.4248-0.5097-0.5097 (  1520 PWs)   bands (ev):

   -43.5589 -43.5589 -43.5589 -43.5589  -1.9920  -1.9920  -1.9920  -1.9920
     5.6397   5.6397   5.6397   5.6397

     occupation numbers 
     1.0000   1.0000   1.0000   1.0000   1.0000   1.0000   1.0000   1.0000
     0.0000   0.0000   0.0000   0.0000

          k =-0.5097-0.5097-0.5097 (  1568 PWs)   bands (ev):

   -43.5590 -43.5590 -43.5590 -43.5590  -1.9888  -1.9888  -1.9888  -1.9888
     5.5540   5.5540   5.5540   5.5540

     occupation numbers 
     1.0000   1.0000   1.0000   1.0000   1.0000   1.0000   1.0000   1.0000
     0.0000   0.0000   0.0000   0.0000

     the Fermi energy is     1.3166 ev

!    total energy              =     -62.79892218 Ry
     Harris-Foulkes estimate   =     -62.79892218 Ry
     estimated scf accuracy    <          1.9E-12 Ry

     The total energy is the sum of the following terms:

     one-electron contribution =     -31.75075700 Ry
     hartree contribution      =      13.27259686 Ry
     xc contribution           =     -16.63545328 Ry
     ewald contribution        =     -27.68530875 Ry
     smearing contrib. (-TS)   =       0.00000000 Ry

     convergence has been achieved in  10 iterations

     Forces acting on atoms (cartesian axes, Ry/au):

     atom    1 type  2   force =     0.00000000    0.00000000    0.00000000
     atom    2 type  2   force =     0.00000000    0.00000000    0.00000000
     atom    3 type  2   force =     0.00000000    0.00000000    0.00000000
     atom    4 type  2   force =     0.00000000    0.00000000    0.00000000
     atom    5 type  1   force =     0.00000000    0.00000000    0.00000000
     atom    6 type  1   force =     0.00000000    0.00000000    0.00000000
     atom    7 type  1   force =     0.00000000    0.00000000    0.00000000
     atom    8 type  1   force =     0.00000000    0.00000000    0.00000000
     The non-local contrib.  to forces
     atom    1 type  2   force =     0.00000000    0.00000000    0.00000000
     atom    2 type  2   force =     0.00000000    0.00000000    0.00000000
     atom    3 type  2   force =     0.00000000    0.00000000    0.00000000
     atom    4 type  2   force =     0.00000000    0.00000000    0.00000000
     atom    5 type  1   force =     0.00000000    0.00000000    0.00000000
     atom    6 type  1   force =     0.00000000    0.00000000    0.00000000
     atom    7 type  1   force =     0.00000000    0.00000000    0.00000000
     atom    8 type  1   force =     0.00000000    0.00000000    0.00000000
     The ionic contribution  to forces
     atom    1 type  2   force =    -0.00000000   -0.00000000   -0.00000000
     atom    2 type  2   force =    -0.00000000    0.00000000    0.00000000
     atom    3 type  2   force =     0.00000000   -0.00000000    0.00000000
     atom    4 type  2   force =     0.00000000    0.00000000   -0.00000000
     atom    5 type  1   force =     0.00000000    0.00000000    0.00000000
     atom    6 type  1   force =     0.00000000   -0.00000000   -0.00000000
     atom    7 type  1   force =    -0.00000000    0.00000000   -0.00000000
     atom    8 type  1   force =    -0.00000000   -0.00000000    0.00000000
     The local contribution  to forces
     atom    1 type  2   force =     0.00000000    0.00000000    0.00000000
     atom    2 type  2   force =     0.00000000    0.00000000    0.00000000
     atom    3 type  2   force =     0.00000000    0.00000000    0.00000000
     atom    4 type  2   force =     0.00000000    0.00000000    0.00000000
     atom    5 type  1   force =     0.00000000    0.00000000    0.00000000
     atom    6 type  1   force =     0.00000000    0.00000000    0.00000000
     atom    7 type  1   force =    -0.00000000    0.00000000   -0.00000000
     atom    8 type  1   force =     0.00000000    0.00000000    0.00000000
     The core correction contribution to forces
     atom    1 type  2   force =     0.00000000    0.00000000    0.00000000
     atom    2 type  2   force =     0.00000000    0.00000000    0.00000000
     atom    3 type  2   force =     0.00000000    0.00000000    0.00000000
     atom    4 type  2   force =     0.00000000    0.00000000    0.00000000
     atom    5 type  1   force =     0.00000000    0.00000000    0.00000000
     atom    6 type  1   force =     0.00000000    0.00000000    0.00000000
     atom    7 type  1   force =     0.00000000    0.00000000    0.00000000
     atom    8 type  1   force =     0.00000000    0.00000000    0.00000000
     The Hubbard contrib.    to forces
     atom    1 type  2   force =     0.00000000    0.00000000    0.00000000
     atom    2 type  2   force =     0.00000000    0.00000000    0.00000000
     atom    3 type  2   force =     0.00000000    0.00000000    0.00000000
     atom    4 type  2   force =     0.00000000    0.00000000    0.00000000
     atom    5 type  1   force =     0.00000000    0.00000000    0.00000000
     atom    6 type  1   force =     0.00000000    0.00000000    0.00000000
     atom    7 type  1   force =     0.00000000    0.00000000    0.00000000
     atom    8 type  1   force =     0.00000000    0.00000000    0.00000000
     The SCF correction term to forces
     atom    1 type  2   force =     0.00000000   -0.00000000    0.00000000
     atom    2 type  2   force =     0.00000000   -0.00000000   -0.00000000
     atom    3 type  2   force =    -0.00000000   -0.00000000   -0.00000000
     atom    4 type  2   force =    -0.00000000   -0.00000000    0.00000000
     atom    5 type  1   force =    -0.00000000    0.00000000   -0.00000000
     atom    6 type  1   force =    -0.00000000   -0.00000000    0.00000000
     atom    7 type  1   force =    -0.00000000   -0.00000000    0.00000000
     atom    8 type  1   force =     0.00000000   -0.00000000   -0.00000000

     Total force =     0.000000     Total SCF correction =     0.000000


     Computing stress (Cartesian axis) and pressure

          total   stress  (Ry/bohr**3)                   (kbar)     P=   -0.63
  -0.00000429   0.00000000   0.00000000         -0.63      0.00      0.00
   0.00000000  -0.00000429   0.00000000          0.00     -0.63      0.00
   0.00000000   0.00000000  -0.00000429          0.00      0.00     -0.63

     kinetic stress (kbar)   3819.38      0.00      0.00
                                0.00   3819.38      0.00
                                0.00      0.00   3819.38

     local   stress (kbar)    948.54      0.00      0.00
                                0.00    948.54      0.00
                                0.00      0.00    948.54

     nonloc. stress (kbar)  -1340.44      0.00      0.00
                                0.00  -1340.44      0.00
                                0.00      0.00  -1340.44

     hartree stress (kbar)   1500.93      0.00      0.00
                                0.00   1500.93      0.00
                                0.00      0.00   1500.93

     exc-cor stress (kbar)  -1798.25      0.00     -0.00
                                0.00  -1798.25     -0.00
                               -0.00     -0.00  -1798.25

     corecor stress (kbar)      0.00      0.00      0.00
                                0.00      0.00      0.00
                                0.00      0.00      0.00

     ewald   stress (kbar)  -3130.78      0.00     -0.00
                                0.00  -3130.78     -0.00
                               -0.00     -0.00  -3130.78

     hubbard stress (kbar)      0.00      0.00      0.00
                                0.00      0.00      0.00
                                0.00      0.00      0.00

     london  stress (kbar)      0.00      0.00      0.00
                                0.00      0.00      0.00
                                0.00      0.00      0.00

     DFT-D3  stress (kbar)      0.00      0.00      0.00
                                0.00      0.00      0.00
                                0.00      0.00      0.00

     XDM     stress (kbar)      0.00      0.00      0.00
                                0.00      0.00      0.00
                                0.00      0.00      0.00

     dft-nl  stress (kbar)      0.00      0.00      0.00
                                0.00      0.00      0.00
                                0.00      0.00      0.00

     TS-vdW  stress (kbar)      0.00      0.00      0.00
                                0.00      0.00      0.00
                                0.00      0.00      0.00


 
     init_run     :     38.40s CPU     14.85s WALL (       2 calls)
     electrons    :    833.33s CPU    369.02s WALL (       7 calls)
     update_pot   :      2.95s CPU      1.37s WALL (       5 calls)
     forces       :     13.40s CPU      6.53s WALL (       7 calls)
     stress       :     11.04s CPU      5.15s WALL (       7 calls)

     Called by init_run:
     wfcinit      :     36.52s CPU     14.06s WALL (       2 calls)
     wfcinit:atom :      0.05s CPU      0.02s WALL (     168 calls)
     wfcinit:wfcr :     36.22s CPU     13.94s WALL (     168 calls)
     potinit      :      0.73s CPU      0.26s WALL (       2 calls)
     hinit0       :      1.05s CPU      0.48s WALL (       2 calls)

     Called by electrons:
     c_bands      :    712.21s CPU    313.40s WALL (      51 calls)
     sum_band     :    118.47s CPU     54.43s WALL (      51 calls)
     v_of_rho     :      1.53s CPU      0.67s WALL (      57 calls)
     v_h          :      0.18s CPU      0.08s WALL (      57 calls)
     v_xc         :      1.35s CPU      0.59s WALL (      57 calls)
     newd         :      0.95s CPU      0.41s WALL (      57 calls)
     mix_rho      :      0.29s CPU      0.13s WALL (      51 calls)

     Called by c_bands:
     init_us_2    :      5.43s CPU      2.62s WALL (    9912 calls)
     cegterg      :    692.31s CPU    304.38s WALL (    4284 calls)

     Called by sum_band:
     sum_band:bec :      3.10s CPU      1.48s WALL (    4284 calls)
     addusdens    :      0.52s CPU      0.24s WALL (      51 calls)

     Called by *egterg:
     h_psi        :    628.05s CPU    274.23s WALL (   14335 calls)
     s_psi        :      2.78s CPU      1.25s WALL (   14335 calls)
     g_psi        :      1.03s CPU      0.47s WALL (    9883 calls)
     cdiaghg      :     24.23s CPU     11.01s WALL (   13663 calls)
     cegterg:over :     27.57s CPU     11.70s WALL (    9883 calls)
     cegterg:upda :      5.60s CPU      2.66s WALL (    9883 calls)
     cegterg:last :      1.87s CPU      0.90s WALL (    4388 calls)

     Called by h_psi:
     h_psi:pot    :    626.49s CPU    273.52s WALL (   14335 calls)
     h_psi:calbec :     20.71s CPU      8.65s WALL (   14335 calls)
     vloc_psi     :    599.64s CPU    262.00s WALL (   14335 calls)
     add_vuspsi   :      5.92s CPU      2.79s WALL (   14335 calls)

     General routines
     calbec       :     35.28s CPU     15.39s WALL (   21559 calls)
     fft          :      2.76s CPU      1.18s WALL (     696 calls)
     ffts         :      0.14s CPU      0.07s WALL (      51 calls)
     fftw         :    658.33s CPU    288.82s WALL (  329700 calls)
 
     Parallel routines
     fft_scatt_xy :     26.98s CPU     12.33s WALL (  330447 calls)
     fft_scatt_yz :    531.91s CPU    230.72s WALL (  330447 calls)
 
     PWSCF        : 14m59.51s CPU     6m37.15s WALL

 
   This run was terminated on:  23:52: 6   5Mar2019            

=------------------------------------------------------------------------------=
   JOB DONE.
=------------------------------------------------------------------------------=
