
     Program PWSCF v.6.3MaX starts on 21Feb2019 at  9:49: 9 

     This program is part of the open-source Quantum ESPRESSO suite
     for quantum simulation of materials; please cite
         "P. Giannozzi et al., J. Phys.:Condens. Matter 21 395502 (2009);
         "P. Giannozzi et al., J. Phys.:Condens. Matter 29 465901 (2017);
          URL http://www.quantum-espresso.org", 
     in publications or presentations arising from this work. More details at
     http://www.quantum-espresso.org/quote

 *** WARNING: using old-style file format, will disappear from next version ***

     Parallel version (MPI & OpenMP), running on      20 processor cores
     Number of MPI processes:                 5
     Threads/MPI process:                     4

     MPI processes distributed on     1 nodes
     R & G space division:  proc/nbgrp/npool/nimage =       5
     Reading input from /home/azadoks/dftman/projects/GP01 Pd Ecut/ConvergenceWorkflows/597f551c1abb/6fc26cb4aaaa/pwscf.in

     Current dimensions of program PWSCF are:
     Max number of different atomic species (ntypx) = 10
     Max number of k-points (npk) =  40000
     Max angular momentum in pseudopotentials (lmaxx) =  3
     Message from routine iosys:
     minimal I/O required, wf_collect reset to FALSE

     Subspace diagonalization in iterative solution of the eigenvalue problem:
     a serial algorithm will be used

 
     Parallelization info
     --------------------
     sticks:   dense  smooth     PW     G-vecs:    dense   smooth      PW
     Min          87      87     30                 1245     1245     248
     Max          88      88     31                 1247     1247     251
     Sum         439     439    151                 6231     6231    1243
 


     bravais-lattice index     =            0
     lattice parameter (alat)  =       5.1982  a.u.
     unit-cell volume          =      99.3236 (a.u.)^3
     number of atoms/cell      =            1
     number of atomic types    =            1
     number of electrons       =        10.00
     number of Kohn-Sham states=            9
     kinetic-energy cutoff     =      60.0000  Ry
     charge density cutoff     =     240.0000  Ry
     convergence threshold     =      1.0E-08
     mixing beta               =       0.7000
     number of iterations used =            8  plain     mixing
     Exchange-correlation      =  SLA  PW   PBE  PBE ( 1  4  3  4 0 0)
     nstep                     =           50


     celldm(1)=   5.198234  celldm(2)=   0.000000  celldm(3)=   0.000000
     celldm(4)=   0.000000  celldm(5)=   0.000000  celldm(6)=   0.000000

     crystal axes: (cart. coord. in units of alat)
               a(1) = (  -0.707107   0.707107   0.000000 )  
               a(2) = (  -0.707107   0.000000   0.707107 )  
               a(3) = (   0.000000   0.707107   0.707107 )  

     reciprocal axes: (cart. coord. in units 2 pi/alat)
               b(1) = ( -0.707107  0.707107 -0.707107 )  
               b(2) = ( -0.707107 -0.707107  0.707107 )  
               b(3) = (  0.707107  0.707107  0.707107 )  


     PseudoPot. # 1 for Pd read from file:
     /home/azadoks/.local/share/pseudo/DFTQE_PBE/Pd_PBE.UPF
     MD5 check sum: d1f0601ee687782a69f1abcd2300a69c
     Pseudo is Ultrasoft, Zval = 10.0
     Generated by new atomic code, or converted to UPF format
     Using radial grid of 1493 points,  3 beta functions with: 
                l(1) =   1
                l(2) =   2
                l(3) =   2
     Q(r) pseudized with 0 coefficients 


     atomic species   valence    mass     pseudopotential
        Pd            10.00   106.42000     Pd( 1.00)

     Starting magnetic structure 
     atomic species   magnetization
        Pd           0.100

     48 Sym. Ops., with inversion, found


                                    s                        frac. trans.

      isym =  1     identity                                     

 cryst.   s( 1) = (     1          0          0      )
                  (     0          1          0      )
                  (     0          0          1      )

 cart.    s( 1) = (  1.0000000 -0.0000000  0.0000000 )
                  ( -0.0000000  1.0000000 -0.0000000 )
                  ( -0.0000000 -0.0000000  1.0000000 )


      isym =  2     180 deg rotation - cart. axis [0,0,1]        

 cryst.   s( 2) = (    -1          0          0      )
                  (    -1          0          1      )
                  (    -1          1          0      )

 cart.    s( 2) = ( -1.0000000  0.0000000  0.0000000 )
                  (  0.0000000 -1.0000000 -0.0000000 )
                  (  0.0000000  0.0000000  1.0000000 )


      isym =  3     180 deg rotation - cart. axis [0,1,0]        

 cryst.   s( 3) = (     0         -1          1      )
                  (     0         -1          0      )
                  (     1         -1          0      )

 cart.    s( 3) = ( -1.0000000 -0.0000000 -0.0000000 )
                  (  0.0000000  1.0000000  0.0000000 )
                  (  0.0000000 -0.0000000 -1.0000000 )


      isym =  4     180 deg rotation - cart. axis [1,0,0]        

 cryst.   s( 4) = (     0          1         -1      )
                  (     1          0         -1      )
                  (     0          0         -1      )

 cart.    s( 4) = (  1.0000000  0.0000000 -0.0000000 )
                  ( -0.0000000 -1.0000000  0.0000000 )
                  ( -0.0000000  0.0000000 -1.0000000 )


      isym =  5     180 deg rotation - cart. axis [1,1,0]        

 cryst.   s( 5) = (    -1          0          0      )
                  (     0          0         -1      )
                  (     0         -1          0      )

 cart.    s( 5) = ( -0.0000000  1.0000000 -0.0000000 )
                  (  1.0000000 -0.0000000  0.0000000 )
                  ( -0.0000000 -0.0000000 -1.0000000 )


      isym =  6     180 deg rotation - cart. axis [1,-1,0]       

 cryst.   s( 6) = (     1          0          0      )
                  (     1         -1          0      )
                  (     1          0         -1      )

 cart.    s( 6) = (  0.0000000 -1.0000000 -0.0000000 )
                  ( -1.0000000  0.0000000  0.0000000 )
                  (  0.0000000  0.0000000 -1.0000000 )


      isym =  7      90 deg rotation - cart. axis [0,0,-1]       

 cryst.   s( 7) = (     0         -1          1      )
                  (     0          0          1      )
                  (    -1          0          1      )

 cart.    s( 7) = (  0.0000000  1.0000000  0.0000000 )
                  ( -1.0000000 -0.0000000 -0.0000000 )
                  (  0.0000000 -0.0000000  1.0000000 )


      isym =  8      90 deg rotation - cart. axis [0,0,1]        

 cryst.   s( 8) = (     0          1         -1      )
                  (    -1          1          0      )
                  (     0          1          0      )

 cart.    s( 8) = ( -0.0000000 -1.0000000  0.0000000 )
                  (  1.0000000  0.0000000 -0.0000000 )
                  ( -0.0000000  0.0000000  1.0000000 )


      isym =  9     180 deg rotation - cart. axis [1,0,1]        

 cryst.   s( 9) = (     0          0         -1      )
                  (     0         -1          0      )
                  (    -1          0          0      )

 cart.    s( 9) = (  0.0000000  0.0000000  1.0000000 )
                  ( -0.0000000 -1.0000000 -0.0000000 )
                  (  1.0000000  0.0000000 -0.0000000 )


      isym = 10     180 deg rotation - cart. axis [-1,0,1]       

 cryst.   s(10) = (    -1          1          0      )
                  (     0          1          0      )
                  (     0          1         -1      )

 cart.    s(10) = ( -0.0000000  0.0000000 -1.0000000 )
                  (  0.0000000 -1.0000000  0.0000000 )
                  ( -1.0000000  0.0000000  0.0000000 )


      isym = 11      90 deg rotation - cart. axis [0,1,0]        

 cryst.   s(11) = (     0          0          1      )
                  (    -1          0          1      )
                  (     0         -1          1      )

 cart.    s(11) = ( -0.0000000 -0.0000000  1.0000000 )
                  (  0.0000000  1.0000000 -0.0000000 )
                  ( -1.0000000 -0.0000000 -0.0000000 )


      isym = 12      90 deg rotation - cart. axis [0,-1,0]       

 cryst.   s(12) = (     1         -1          0      )
                  (     1          0         -1      )
                  (     1          0          0      )

 cart.    s(12) = (  0.0000000 -0.0000000 -1.0000000 )
                  ( -0.0000000  1.0000000  0.0000000 )
                  (  1.0000000 -0.0000000  0.0000000 )


      isym = 13     180 deg rotation - cart. axis [0,1,1]        

 cryst.   s(13) = (    -1          0          1      )
                  (     0         -1          1      )
                  (     0          0          1      )

 cart.    s(13) = ( -1.0000000  0.0000000 -0.0000000 )
                  (  0.0000000 -0.0000000  1.0000000 )
                  (  0.0000000  1.0000000 -0.0000000 )


      isym = 14     180 deg rotation - cart. axis [0,1,-1]       

 cryst.   s(14) = (     0         -1          0      )
                  (    -1          0          0      )
                  (     0          0         -1      )

 cart.    s(14) = ( -1.0000000 -0.0000000  0.0000000 )
                  (  0.0000000  0.0000000 -1.0000000 )
                  (  0.0000000 -1.0000000  0.0000000 )


      isym = 15      90 deg rotation - cart. axis [-1,0,0]       

 cryst.   s(15) = (     1          0         -1      )
                  (     1          0          0      )
                  (     1         -1          0      )

 cart.    s(15) = (  1.0000000 -0.0000000 -0.0000000 )
                  ( -0.0000000  0.0000000  1.0000000 )
                  ( -0.0000000 -1.0000000 -0.0000000 )


      isym = 16      90 deg rotation - cart. axis [1,0,0]        

 cryst.   s(16) = (     0          1          0      )
                  (     0          1         -1      )
                  (    -1          1          0      )

 cart.    s(16) = (  1.0000000  0.0000000  0.0000000 )
                  ( -0.0000000 -0.0000000 -1.0000000 )
                  ( -0.0000000  1.0000000  0.0000000 )


      isym = 17     120 deg rotation - cart. axis [-1,-1,-1]     

 cryst.   s(17) = (     0         -1          0      )
                  (     1         -1          0      )
                  (     0         -1          1      )

 cart.    s(17) = (  0.0000000  1.0000000 -0.0000000 )
                  ( -0.0000000 -0.0000000  1.0000000 )
                  (  1.0000000 -0.0000000 -0.0000000 )


      isym = 18     120 deg rotation - cart. axis [-1,1,1]       

 cryst.   s(18) = (     0          1          0      )
                  (     0          0          1      )
                  (     1          0          0      )

 cart.    s(18) = ( -0.0000000 -1.0000000 -0.0000000 )
                  (  0.0000000  0.0000000  1.0000000 )
                  ( -1.0000000  0.0000000 -0.0000000 )


      isym = 19     120 deg rotation - cart. axis [1,1,-1]       

 cryst.   s(19) = (    -1          0          1      )
                  (    -1          1          0      )
                  (    -1          0          0      )

 cart.    s(19) = ( -0.0000000  1.0000000  0.0000000 )
                  (  0.0000000 -0.0000000 -1.0000000 )
                  ( -1.0000000 -0.0000000  0.0000000 )


      isym = 20     120 deg rotation - cart. axis [1,-1,1]       

 cryst.   s(20) = (     1          0         -1      )
                  (     0          0         -1      )
                  (     0          1         -1      )

 cart.    s(20) = (  0.0000000 -1.0000000  0.0000000 )
                  ( -0.0000000  0.0000000 -1.0000000 )
                  (  1.0000000  0.0000000  0.0000000 )


      isym = 21     120 deg rotation - cart. axis [1,1,1]        

 cryst.   s(21) = (    -1          1          0      )
                  (    -1          0          0      )
                  (    -1          0          1      )

 cart.    s(21) = ( -0.0000000  0.0000000  1.0000000 )
                  (  1.0000000 -0.0000000 -0.0000000 )
                  ( -0.0000000  1.0000000 -0.0000000 )


      isym = 22     120 deg rotation - cart. axis [-1,1,-1]      

 cryst.   s(22) = (     1         -1          0      )
                  (     0         -1          1      )
                  (     0         -1          0      )

 cart.    s(22) = (  0.0000000 -0.0000000  1.0000000 )
                  ( -1.0000000  0.0000000 -0.0000000 )
                  (  0.0000000 -1.0000000 -0.0000000 )


      isym = 23     120 deg rotation - cart. axis [1,-1,-1]      

 cryst.   s(23) = (     0          0          1      )
                  (     1          0          0      )
                  (     0          1          0      )

 cart.    s(23) = (  0.0000000  0.0000000 -1.0000000 )
                  ( -1.0000000 -0.0000000  0.0000000 )
                  (  0.0000000  1.0000000  0.0000000 )


      isym = 24     120 deg rotation - cart. axis [-1,-1,1]      

 cryst.   s(24) = (     0          0         -1      )
                  (     0          1         -1      )
                  (     1          0         -1      )

 cart.    s(24) = ( -0.0000000 -0.0000000 -1.0000000 )
                  (  1.0000000  0.0000000  0.0000000 )
                  ( -0.0000000 -1.0000000  0.0000000 )


      isym = 25     inversion                                    

 cryst.   s(25) = (    -1          0          0      )
                  (     0         -1          0      )
                  (     0          0         -1      )

 cart.    s(25) = ( -1.0000000  0.0000000 -0.0000000 )
                  (  0.0000000 -1.0000000  0.0000000 )
                  (  0.0000000  0.0000000 -1.0000000 )


      isym = 26     inv. 180 deg rotation - cart. axis [0,0,1]   

 cryst.   s(26) = (     1          0          0      )
                  (     1          0         -1      )
                  (     1         -1          0      )

 cart.    s(26) = (  1.0000000 -0.0000000 -0.0000000 )
                  ( -0.0000000  1.0000000  0.0000000 )
                  ( -0.0000000 -0.0000000 -1.0000000 )


      isym = 27     inv. 180 deg rotation - cart. axis [0,1,0]   

 cryst.   s(27) = (     0          1         -1      )
                  (     0          1          0      )
                  (    -1          1          0      )

 cart.    s(27) = (  1.0000000  0.0000000  0.0000000 )
                  ( -0.0000000 -1.0000000 -0.0000000 )
                  ( -0.0000000  0.0000000  1.0000000 )


      isym = 28     inv. 180 deg rotation - cart. axis [1,0,0]   

 cryst.   s(28) = (     0         -1          1      )
                  (    -1          0          1      )
                  (     0          0          1      )

 cart.    s(28) = ( -1.0000000 -0.0000000  0.0000000 )
                  (  0.0000000  1.0000000 -0.0000000 )
                  (  0.0000000 -0.0000000  1.0000000 )


      isym = 29     inv. 180 deg rotation - cart. axis [1,1,0]   

 cryst.   s(29) = (     1          0          0      )
                  (     0          0          1      )
                  (     0          1          0      )

 cart.    s(29) = (  0.0000000 -1.0000000  0.0000000 )
                  ( -1.0000000  0.0000000 -0.0000000 )
                  (  0.0000000  0.0000000  1.0000000 )


      isym = 30     inv. 180 deg rotation - cart. axis [1,-1,0]  

 cryst.   s(30) = (    -1          0          0      )
                  (    -1          1          0      )
                  (    -1          0          1      )

 cart.    s(30) = ( -0.0000000  1.0000000  0.0000000 )
                  (  1.0000000 -0.0000000 -0.0000000 )
                  ( -0.0000000 -0.0000000  1.0000000 )


      isym = 31     inv.  90 deg rotation - cart. axis [0,0,-1]  

 cryst.   s(31) = (     0          1         -1      )
                  (     0          0         -1      )
                  (     1          0         -1      )

 cart.    s(31) = ( -0.0000000 -1.0000000 -0.0000000 )
                  (  1.0000000  0.0000000  0.0000000 )
                  ( -0.0000000  0.0000000 -1.0000000 )


      isym = 32     inv.  90 deg rotation - cart. axis [0,0,1]   

 cryst.   s(32) = (     0         -1          1      )
                  (     1         -1          0      )
                  (     0         -1          0      )

 cart.    s(32) = (  0.0000000  1.0000000 -0.0000000 )
                  ( -1.0000000 -0.0000000  0.0000000 )
                  (  0.0000000 -0.0000000 -1.0000000 )


      isym = 33     inv. 180 deg rotation - cart. axis [1,0,1]   

 cryst.   s(33) = (     0          0          1      )
                  (     0          1          0      )
                  (     1          0          0      )

 cart.    s(33) = ( -0.0000000 -0.0000000 -1.0000000 )
                  (  0.0000000  1.0000000  0.0000000 )
                  ( -1.0000000 -0.0000000  0.0000000 )


      isym = 34     inv. 180 deg rotation - cart. axis [-1,0,1]  

 cryst.   s(34) = (     1         -1          0      )
                  (     0         -1          0      )
                  (     0         -1          1      )

 cart.    s(34) = (  0.0000000 -0.0000000  1.0000000 )
                  ( -0.0000000  1.0000000 -0.0000000 )
                  (  1.0000000 -0.0000000 -0.0000000 )


      isym = 35     inv.  90 deg rotation - cart. axis [0,1,0]   

 cryst.   s(35) = (     0          0         -1      )
                  (     1          0         -1      )
                  (     0          1         -1      )

 cart.    s(35) = (  0.0000000  0.0000000 -1.0000000 )
                  ( -0.0000000 -1.0000000  0.0000000 )
                  (  1.0000000  0.0000000  0.0000000 )


      isym = 36     inv.  90 deg rotation - cart. axis [0,-1,0]  

 cryst.   s(36) = (    -1          1          0      )
                  (    -1          0          1      )
                  (    -1          0          0      )

 cart.    s(36) = ( -0.0000000  0.0000000  1.0000000 )
                  (  0.0000000 -1.0000000 -0.0000000 )
                  ( -1.0000000  0.0000000 -0.0000000 )


      isym = 37     inv. 180 deg rotation - cart. axis [0,1,1]   

 cryst.   s(37) = (     1          0         -1      )
                  (     0          1         -1      )
                  (     0          0         -1      )

 cart.    s(37) = (  1.0000000 -0.0000000  0.0000000 )
                  ( -0.0000000  0.0000000 -1.0000000 )
                  ( -0.0000000 -1.0000000  0.0000000 )


      isym = 38     inv. 180 deg rotation - cart. axis [0,1,-1]  

 cryst.   s(38) = (     0          1          0      )
                  (     1          0          0      )
                  (     0          0          1      )

 cart.    s(38) = (  1.0000000  0.0000000 -0.0000000 )
                  ( -0.0000000 -0.0000000  1.0000000 )
                  ( -0.0000000  1.0000000 -0.0000000 )


      isym = 39     inv.  90 deg rotation - cart. axis [-1,0,0]  

 cryst.   s(39) = (    -1          0          1      )
                  (    -1          0          0      )
                  (    -1          1          0      )

 cart.    s(39) = ( -1.0000000  0.0000000  0.0000000 )
                  (  0.0000000 -0.0000000 -1.0000000 )
                  (  0.0000000  1.0000000  0.0000000 )


      isym = 40     inv.  90 deg rotation - cart. axis [1,0,0]   

 cryst.   s(40) = (     0         -1          0      )
                  (     0         -1          1      )
                  (     1         -1          0      )

 cart.    s(40) = ( -1.0000000 -0.0000000 -0.0000000 )
                  (  0.0000000  0.0000000  1.0000000 )
                  (  0.0000000 -1.0000000 -0.0000000 )


      isym = 41     inv. 120 deg rotation - cart. axis [-1,-1,-1]

 cryst.   s(41) = (     0          1          0      )
                  (    -1          1          0      )
                  (     0          1         -1      )

 cart.    s(41) = ( -0.0000000 -1.0000000  0.0000000 )
                  (  0.0000000  0.0000000 -1.0000000 )
                  ( -1.0000000  0.0000000  0.0000000 )


      isym = 42     inv. 120 deg rotation - cart. axis [-1,1,1]  

 cryst.   s(42) = (     0         -1          0      )
                  (     0          0         -1      )
                  (    -1          0          0      )

 cart.    s(42) = (  0.0000000  1.0000000  0.0000000 )
                  ( -0.0000000 -0.0000000 -1.0000000 )
                  (  1.0000000 -0.0000000  0.0000000 )


      isym = 43     inv. 120 deg rotation - cart. axis [1,1,-1]  

 cryst.   s(43) = (     1          0         -1      )
                  (     1         -1          0      )
                  (     1          0          0      )

 cart.    s(43) = (  0.0000000 -1.0000000 -0.0000000 )
                  ( -0.0000000  0.0000000  1.0000000 )
                  (  1.0000000  0.0000000 -0.0000000 )


      isym = 44     inv. 120 deg rotation - cart. axis [1,-1,1]  

 cryst.   s(44) = (    -1          0          1      )
                  (     0          0          1      )
                  (     0         -1          1      )

 cart.    s(44) = ( -0.0000000  1.0000000 -0.0000000 )
                  (  0.0000000 -0.0000000  1.0000000 )
                  ( -1.0000000 -0.0000000 -0.0000000 )


      isym = 45     inv. 120 deg rotation - cart. axis [1,1,1]   

 cryst.   s(45) = (     1         -1          0      )
                  (     1          0          0      )
                  (     1          0         -1      )

 cart.    s(45) = (  0.0000000 -0.0000000 -1.0000000 )
                  ( -1.0000000  0.0000000  0.0000000 )
                  (  0.0000000 -1.0000000  0.0000000 )


      isym = 46     inv. 120 deg rotation - cart. axis [-1,1,-1] 

 cryst.   s(46) = (    -1          1          0      )
                  (     0          1         -1      )
                  (     0          1          0      )

 cart.    s(46) = ( -0.0000000  0.0000000 -1.0000000 )
                  (  1.0000000 -0.0000000  0.0000000 )
                  ( -0.0000000  1.0000000  0.0000000 )


      isym = 47     inv. 120 deg rotation - cart. axis [1,-1,-1] 

 cryst.   s(47) = (     0          0         -1      )
                  (    -1          0          0      )
                  (     0         -1          0      )

 cart.    s(47) = ( -0.0000000 -0.0000000  1.0000000 )
                  (  1.0000000  0.0000000 -0.0000000 )
                  ( -0.0000000 -1.0000000 -0.0000000 )


      isym = 48     inv. 120 deg rotation - cart. axis [-1,-1,1] 

 cryst.   s(48) = (     0          0          1      )
                  (     0         -1          1      )
                  (    -1          0          1      )

 cart.    s(48) = (  0.0000000  0.0000000  1.0000000 )
                  ( -1.0000000 -0.0000000 -0.0000000 )
                  (  0.0000000  1.0000000 -0.0000000 )


   Cartesian axes

     site n.     atom                  positions (alat units)
         1           Pd  tau(   1) = (   0.0000000   0.0000000   0.0000000  )

   Crystallographic axes

     site n.     atom                  positions (cryst. coord.)
         1           Pd  tau(   1) = (  0.0000000  0.0000000  0.0000000  )

     number of k points=   752  Marzari-Vanderbilt smearing, width (Ry)=  0.0100
                       cart. coord. in units 2pi/alat
        k(    1) = (   0.0000000   0.0000000   0.0000000), wk =   0.0000370
        k(    2) = (   0.0235702   0.0235702   0.0235702), wk =   0.0002963
        k(    3) = (   0.0471405   0.0471405   0.0471405), wk =   0.0002963
        k(    4) = (   0.0707107   0.0707107   0.0707107), wk =   0.0002963
        k(    5) = (   0.0942809   0.0942809   0.0942809), wk =   0.0002963
        k(    6) = (   0.1178511   0.1178511   0.1178511), wk =   0.0002963
        k(    7) = (   0.1414214   0.1414214   0.1414214), wk =   0.0002963
        k(    8) = (   0.1649916   0.1649916   0.1649916), wk =   0.0002963
        k(    9) = (   0.1885618   0.1885618   0.1885618), wk =   0.0002963
        k(   10) = (   0.2121320   0.2121320   0.2121320), wk =   0.0002963
        k(   11) = (   0.2357023   0.2357023   0.2357023), wk =   0.0002963
        k(   12) = (   0.2592725   0.2592725   0.2592725), wk =   0.0002963
        k(   13) = (   0.2828427   0.2828427   0.2828427), wk =   0.0002963
        k(   14) = (   0.3064129   0.3064129   0.3064129), wk =   0.0002963
        k(   15) = (   0.3299832   0.3299832   0.3299832), wk =   0.0002963
        k(   16) = (  -0.3535534  -0.3535534  -0.3535534), wk =   0.0001481
        k(   17) = (   0.0000000   0.0000000   0.0471405), wk =   0.0002222
        k(   18) = (   0.0235702   0.0235702   0.0707107), wk =   0.0008889
        k(   19) = (   0.0471405   0.0471405   0.0942809), wk =   0.0008889
        k(   20) = (   0.0707107   0.0707107   0.1178511), wk =   0.0008889
        k(   21) = (   0.0942809   0.0942809   0.1414214), wk =   0.0008889
        k(   22) = (   0.1178511   0.1178511   0.1649916), wk =   0.0008889
        k(   23) = (   0.1414214   0.1414214   0.1885618), wk =   0.0008889
        k(   24) = (   0.1649916   0.1649916   0.2121320), wk =   0.0008889
        k(   25) = (   0.1885618   0.1885618   0.2357023), wk =   0.0008889
        k(   26) = (   0.2121320   0.2121320   0.2592725), wk =   0.0008889
        k(   27) = (   0.2357023   0.2357023   0.2828427), wk =   0.0008889
        k(   28) = (   0.2592725   0.2592725   0.3064129), wk =   0.0008889
        k(   29) = (   0.2828427   0.2828427   0.3299832), wk =   0.0008889
        k(   30) = (   0.3064129   0.3064129   0.3535534), wk =   0.0008889
        k(   31) = (  -0.3771236  -0.3771236  -0.3299832), wk =   0.0008889
        k(   32) = (  -0.3535534  -0.3535534  -0.3064129), wk =   0.0008889
        k(   33) = (  -0.3299832  -0.3299832  -0.2828427), wk =   0.0008889
        k(   34) = (  -0.3064129  -0.3064129  -0.2592725), wk =   0.0008889
        k(   35) = (  -0.2828427  -0.2828427  -0.2357023), wk =   0.0008889
        k(   36) = (  -0.2592725  -0.2592725  -0.2121320), wk =   0.0008889
        k(   37) = (  -0.2357023  -0.2357023  -0.1885618), wk =   0.0008889
        k(   38) = (  -0.2121320  -0.2121320  -0.1649916), wk =   0.0008889
        k(   39) = (  -0.1885618  -0.1885618  -0.1414214), wk =   0.0008889
        k(   40) = (  -0.1649916  -0.1649916  -0.1178511), wk =   0.0008889
        k(   41) = (  -0.1414214  -0.1414214  -0.0942809), wk =   0.0008889
        k(   42) = (  -0.1178511  -0.1178511  -0.0707107), wk =   0.0008889
        k(   43) = (  -0.0942809  -0.0942809  -0.0471405), wk =   0.0008889
        k(   44) = (  -0.0707107  -0.0707107  -0.0235702), wk =   0.0008889
        k(   45) = (  -0.0471405  -0.0471405   0.0000000), wk =   0.0004444
        k(   46) = (   0.0000000   0.0000000   0.0942809), wk =   0.0002222
        k(   47) = (   0.0235702   0.0235702   0.1178511), wk =   0.0008889
        k(   48) = (   0.0471405   0.0471405   0.1414214), wk =   0.0008889
        k(   49) = (   0.0707107   0.0707107   0.1649916), wk =   0.0008889
        k(   50) = (   0.0942809   0.0942809   0.1885618), wk =   0.0008889
        k(   51) = (   0.1178511   0.1178511   0.2121320), wk =   0.0008889
        k(   52) = (   0.1414214   0.1414214   0.2357023), wk =   0.0008889
        k(   53) = (   0.1649916   0.1649916   0.2592725), wk =   0.0008889
        k(   54) = (   0.1885618   0.1885618   0.2828427), wk =   0.0008889
        k(   55) = (   0.2121320   0.2121320   0.3064129), wk =   0.0008889
        k(   56) = (   0.2357023   0.2357023   0.3299832), wk =   0.0008889
        k(   57) = (   0.2592725   0.2592725   0.3535534), wk =   0.0008889
        k(   58) = (   0.2828427   0.2828427   0.3771236), wk =   0.0008889
        k(   59) = (  -0.4006938  -0.4006938  -0.3064129), wk =   0.0008889
        k(   60) = (  -0.3771236  -0.3771236  -0.2828427), wk =   0.0008889
        k(   61) = (  -0.3535534  -0.3535534  -0.2592725), wk =   0.0008889
        k(   62) = (  -0.3299832  -0.3299832  -0.2357023), wk =   0.0008889
        k(   63) = (  -0.3064129  -0.3064129  -0.2121320), wk =   0.0008889
        k(   64) = (  -0.2828427  -0.2828427  -0.1885618), wk =   0.0008889
        k(   65) = (  -0.2592725  -0.2592725  -0.1649916), wk =   0.0008889
        k(   66) = (  -0.2357023  -0.2357023  -0.1414214), wk =   0.0008889
        k(   67) = (  -0.2121320  -0.2121320  -0.1178511), wk =   0.0008889
        k(   68) = (  -0.1885618  -0.1885618  -0.0942809), wk =   0.0008889
        k(   69) = (  -0.1649916  -0.1649916  -0.0707107), wk =   0.0008889
        k(   70) = (  -0.1414214  -0.1414214  -0.0471405), wk =   0.0008889
        k(   71) = (  -0.1178511  -0.1178511  -0.0235702), wk =   0.0008889
        k(   72) = (  -0.0942809  -0.0942809   0.0000000), wk =   0.0004444
        k(   73) = (  -0.0000000  -0.0000000   0.1414214), wk =   0.0002222
        k(   74) = (   0.0235702   0.0235702   0.1649916), wk =   0.0008889
        k(   75) = (   0.0471405   0.0471405   0.1885618), wk =   0.0008889
        k(   76) = (   0.0707107   0.0707107   0.2121320), wk =   0.0008889
        k(   77) = (   0.0942809   0.0942809   0.2357023), wk =   0.0008889
        k(   78) = (   0.1178511   0.1178511   0.2592725), wk =   0.0008889
        k(   79) = (   0.1414214   0.1414214   0.2828427), wk =   0.0008889
        k(   80) = (   0.1649916   0.1649916   0.3064129), wk =   0.0008889
        k(   81) = (   0.1885618   0.1885618   0.3299832), wk =   0.0008889
        k(   82) = (   0.2121320   0.2121320   0.3535534), wk =   0.0008889
        k(   83) = (   0.2357023   0.2357023   0.3771236), wk =   0.0008889
        k(   84) = (   0.2592725   0.2592725   0.4006938), wk =   0.0008889
        k(   85) = (  -0.4242641  -0.4242641  -0.2828427), wk =   0.0008889
        k(   86) = (  -0.4006938  -0.4006938  -0.2592725), wk =   0.0008889
        k(   87) = (  -0.3771236  -0.3771236  -0.2357023), wk =   0.0008889
        k(   88) = (  -0.3535534  -0.3535534  -0.2121320), wk =   0.0008889
        k(   89) = (  -0.3299832  -0.3299832  -0.1885618), wk =   0.0008889
        k(   90) = (  -0.3064129  -0.3064129  -0.1649916), wk =   0.0008889
        k(   91) = (  -0.2828427  -0.2828427  -0.1414214), wk =   0.0008889
        k(   92) = (  -0.2592725  -0.2592725  -0.1178511), wk =   0.0008889
        k(   93) = (  -0.2357023  -0.2357023  -0.0942809), wk =   0.0008889
        k(   94) = (  -0.2121320  -0.2121320  -0.0707107), wk =   0.0008889
        k(   95) = (  -0.1885618  -0.1885618  -0.0471405), wk =   0.0008889
        k(   96) = (  -0.1649916  -0.1649916  -0.0235702), wk =   0.0008889
        k(   97) = (  -0.1414214  -0.1414214   0.0000000), wk =   0.0004444
        k(   98) = (   0.0000000   0.0000000   0.1885618), wk =   0.0002222
        k(   99) = (   0.0235702   0.0235702   0.2121320), wk =   0.0008889
        k(  100) = (   0.0471405   0.0471405   0.2357023), wk =   0.0008889
        k(  101) = (   0.0707107   0.0707107   0.2592725), wk =   0.0008889
        k(  102) = (   0.0942809   0.0942809   0.2828427), wk =   0.0008889
        k(  103) = (   0.1178511   0.1178511   0.3064129), wk =   0.0008889
        k(  104) = (   0.1414214   0.1414214   0.3299832), wk =   0.0008889
        k(  105) = (   0.1649916   0.1649916   0.3535534), wk =   0.0008889
        k(  106) = (   0.1885618   0.1885618   0.3771236), wk =   0.0008889
        k(  107) = (   0.2121320   0.2121320   0.4006938), wk =   0.0008889
        k(  108) = (   0.2357023   0.2357023   0.4242641), wk =   0.0008889
        k(  109) = (  -0.4478343  -0.4478343  -0.2592725), wk =   0.0008889
        k(  110) = (  -0.4242641  -0.4242641  -0.2357023), wk =   0.0008889
        k(  111) = (  -0.4006938  -0.4006938  -0.2121320), wk =   0.0008889
        k(  112) = (  -0.3771236  -0.3771236  -0.1885618), wk =   0.0008889
        k(  113) = (  -0.3535534  -0.3535534  -0.1649916), wk =   0.0008889
        k(  114) = (  -0.3299832  -0.3299832  -0.1414214), wk =   0.0008889
        k(  115) = (  -0.3064129  -0.3064129  -0.1178511), wk =   0.0008889
        k(  116) = (  -0.2828427  -0.2828427  -0.0942809), wk =   0.0008889
        k(  117) = (  -0.2592725  -0.2592725  -0.0707107), wk =   0.0008889
        k(  118) = (  -0.2357023  -0.2357023  -0.0471405), wk =   0.0008889
        k(  119) = (  -0.2121320  -0.2121320  -0.0235702), wk =   0.0008889
        k(  120) = (  -0.1885618  -0.1885618   0.0000000), wk =   0.0004444
        k(  121) = (   0.0000000   0.0000000   0.2357023), wk =   0.0002222
        k(  122) = (   0.0235702   0.0235702   0.2592725), wk =   0.0008889
        k(  123) = (   0.0471405   0.0471405   0.2828427), wk =   0.0008889
        k(  124) = (   0.0707107   0.0707107   0.3064129), wk =   0.0008889
        k(  125) = (   0.0942809   0.0942809   0.3299832), wk =   0.0008889
        k(  126) = (   0.1178511   0.1178511   0.3535534), wk =   0.0008889
        k(  127) = (   0.1414214   0.1414214   0.3771236), wk =   0.0008889
        k(  128) = (   0.1649916   0.1649916   0.4006938), wk =   0.0008889
        k(  129) = (   0.1885618   0.1885618   0.4242641), wk =   0.0008889
        k(  130) = (   0.2121320   0.2121320   0.4478343), wk =   0.0008889
        k(  131) = (  -0.4714045  -0.4714045  -0.2357023), wk =   0.0008889
        k(  132) = (  -0.4478343  -0.4478343  -0.2121320), wk =   0.0008889
        k(  133) = (  -0.4242641  -0.4242641  -0.1885618), wk =   0.0008889
        k(  134) = (  -0.4006938  -0.4006938  -0.1649916), wk =   0.0008889
        k(  135) = (  -0.3771236  -0.3771236  -0.1414214), wk =   0.0008889
        k(  136) = (  -0.3535534  -0.3535534  -0.1178511), wk =   0.0008889
        k(  137) = (  -0.3299832  -0.3299832  -0.0942809), wk =   0.0008889
        k(  138) = (  -0.3064129  -0.3064129  -0.0707107), wk =   0.0008889
        k(  139) = (  -0.2828427  -0.2828427  -0.0471405), wk =   0.0008889
        k(  140) = (  -0.2592725  -0.2592725  -0.0235702), wk =   0.0008889
        k(  141) = (  -0.2357023  -0.2357023   0.0000000), wk =   0.0004444
        k(  142) = (  -0.0000000  -0.0000000   0.2828427), wk =   0.0002222
        k(  143) = (   0.0235702   0.0235702   0.3064129), wk =   0.0008889
        k(  144) = (   0.0471405   0.0471405   0.3299832), wk =   0.0008889
        k(  145) = (   0.0707107   0.0707107   0.3535534), wk =   0.0008889
        k(  146) = (   0.0942809   0.0942809   0.3771236), wk =   0.0008889
        k(  147) = (   0.1178511   0.1178511   0.4006938), wk =   0.0008889
        k(  148) = (   0.1414214   0.1414214   0.4242641), wk =   0.0008889
        k(  149) = (   0.1649916   0.1649916   0.4478343), wk =   0.0008889
        k(  150) = (   0.1885618   0.1885618   0.4714045), wk =   0.0008889
        k(  151) = (  -0.4949747  -0.4949747  -0.2121320), wk =   0.0008889
        k(  152) = (  -0.4714045  -0.4714045  -0.1885618), wk =   0.0008889
        k(  153) = (  -0.4478343  -0.4478343  -0.1649916), wk =   0.0008889
        k(  154) = (  -0.4242641  -0.4242641  -0.1414214), wk =   0.0008889
        k(  155) = (  -0.4006938  -0.4006938  -0.1178511), wk =   0.0008889
        k(  156) = (  -0.3771236  -0.3771236  -0.0942809), wk =   0.0008889
        k(  157) = (  -0.3535534  -0.3535534  -0.0707107), wk =   0.0008889
        k(  158) = (  -0.3299832  -0.3299832  -0.0471405), wk =   0.0008889
        k(  159) = (  -0.3064129  -0.3064129  -0.0235702), wk =   0.0008889
        k(  160) = (  -0.2828427  -0.2828427   0.0000000), wk =   0.0004444
        k(  161) = (  -0.0000000  -0.0000000   0.3299832), wk =   0.0002222
        k(  162) = (   0.0235702   0.0235702   0.3535534), wk =   0.0008889
        k(  163) = (   0.0471405   0.0471405   0.3771236), wk =   0.0008889
        k(  164) = (   0.0707107   0.0707107   0.4006938), wk =   0.0008889
        k(  165) = (   0.0942809   0.0942809   0.4242641), wk =   0.0008889
        k(  166) = (   0.1178511   0.1178511   0.4478343), wk =   0.0008889
        k(  167) = (   0.1414214   0.1414214   0.4714045), wk =   0.0008889
        k(  168) = (   0.1649916   0.1649916   0.4949747), wk =   0.0008889
        k(  169) = (  -0.5185450  -0.5185450  -0.1885618), wk =   0.0008889
        k(  170) = (  -0.4949747  -0.4949747  -0.1649916), wk =   0.0008889
        k(  171) = (  -0.4714045  -0.4714045  -0.1414214), wk =   0.0008889
        k(  172) = (  -0.4478343  -0.4478343  -0.1178511), wk =   0.0008889
        k(  173) = (  -0.4242641  -0.4242641  -0.0942809), wk =   0.0008889
        k(  174) = (  -0.4006938  -0.4006938  -0.0707107), wk =   0.0008889
        k(  175) = (  -0.3771236  -0.3771236  -0.0471405), wk =   0.0008889
        k(  176) = (  -0.3535534  -0.3535534  -0.0235702), wk =   0.0008889
        k(  177) = (  -0.3299832  -0.3299832   0.0000000), wk =   0.0004444
        k(  178) = (   0.0000000   0.0000000   0.3771236), wk =   0.0002222
        k(  179) = (   0.0235702   0.0235702   0.4006938), wk =   0.0008889
        k(  180) = (   0.0471405   0.0471405   0.4242641), wk =   0.0008889
        k(  181) = (   0.0707107   0.0707107   0.4478343), wk =   0.0008889
        k(  182) = (   0.0942809   0.0942809   0.4714045), wk =   0.0008889
        k(  183) = (   0.1178511   0.1178511   0.4949747), wk =   0.0008889
        k(  184) = (   0.1414214   0.1414214   0.5185450), wk =   0.0008889
        k(  185) = (  -0.5421152  -0.5421152  -0.1649916), wk =   0.0008889
        k(  186) = (  -0.5185450  -0.5185450  -0.1414214), wk =   0.0008889
        k(  187) = (  -0.4949747  -0.4949747  -0.1178511), wk =   0.0008889
        k(  188) = (  -0.4714045  -0.4714045  -0.0942809), wk =   0.0008889
        k(  189) = (  -0.4478343  -0.4478343  -0.0707107), wk =   0.0008889
        k(  190) = (  -0.4242641  -0.4242641  -0.0471405), wk =   0.0008889
        k(  191) = (  -0.4006938  -0.4006938  -0.0235702), wk =   0.0008889
        k(  192) = (  -0.3771236  -0.3771236  -0.0000000), wk =   0.0004444
        k(  193) = (   0.0000000   0.0000000   0.4242641), wk =   0.0002222
        k(  194) = (   0.0235702   0.0235702   0.4478343), wk =   0.0008889
        k(  195) = (   0.0471405   0.0471405   0.4714045), wk =   0.0008889
        k(  196) = (   0.0707107   0.0707107   0.4949747), wk =   0.0008889
        k(  197) = (   0.0942809   0.0942809   0.5185450), wk =   0.0008889
        k(  198) = (   0.1178511   0.1178511   0.5421152), wk =   0.0008889
        k(  199) = (  -0.5656854  -0.5656854  -0.1414214), wk =   0.0008889
        k(  200) = (  -0.5421152  -0.5421152  -0.1178511), wk =   0.0008889
        k(  201) = (  -0.5185450  -0.5185450  -0.0942809), wk =   0.0008889
        k(  202) = (  -0.4949747  -0.4949747  -0.0707107), wk =   0.0008889
        k(  203) = (  -0.4714045  -0.4714045  -0.0471405), wk =   0.0008889
        k(  204) = (  -0.4478343  -0.4478343  -0.0235702), wk =   0.0008889
        k(  205) = (  -0.4242641  -0.4242641  -0.0000000), wk =   0.0004444
        k(  206) = (   0.0000000   0.0000000   0.4714045), wk =   0.0002222
        k(  207) = (   0.0235702   0.0235702   0.4949747), wk =   0.0008889
        k(  208) = (   0.0471405   0.0471405   0.5185450), wk =   0.0008889
        k(  209) = (   0.0707107   0.0707107   0.5421152), wk =   0.0008889
        k(  210) = (   0.0942809   0.0942809   0.5656854), wk =   0.0008889
        k(  211) = (  -0.5892557  -0.5892557  -0.1178511), wk =   0.0008889
        k(  212) = (  -0.5656854  -0.5656854  -0.0942809), wk =   0.0008889
        k(  213) = (  -0.5421152  -0.5421152  -0.0707107), wk =   0.0008889
        k(  214) = (  -0.5185450  -0.5185450  -0.0471405), wk =   0.0008889
        k(  215) = (  -0.4949747  -0.4949747  -0.0235702), wk =   0.0008889
        k(  216) = (  -0.4714045  -0.4714045  -0.0000000), wk =   0.0004444
        k(  217) = (  -0.0000000  -0.0000000   0.5185450), wk =   0.0002222
        k(  218) = (   0.0235702   0.0235702   0.5421152), wk =   0.0008889
        k(  219) = (   0.0471405   0.0471405   0.5656854), wk =   0.0008889
        k(  220) = (   0.0707107   0.0707107   0.5892557), wk =   0.0008889
        k(  221) = (  -0.6128259  -0.6128259  -0.0942809), wk =   0.0008889
        k(  222) = (  -0.5892557  -0.5892557  -0.0707107), wk =   0.0008889
        k(  223) = (  -0.5656854  -0.5656854  -0.0471405), wk =   0.0008889
        k(  224) = (  -0.5421152  -0.5421152  -0.0235702), wk =   0.0008889
        k(  225) = (  -0.5185450  -0.5185450  -0.0000000), wk =   0.0004444
        k(  226) = (  -0.0000000  -0.0000000   0.5656854), wk =   0.0002222
        k(  227) = (   0.0235702   0.0235702   0.5892557), wk =   0.0008889
        k(  228) = (   0.0471405   0.0471405   0.6128259), wk =   0.0008889
        k(  229) = (  -0.6363961  -0.6363961  -0.0707107), wk =   0.0008889
        k(  230) = (  -0.6128259  -0.6128259  -0.0471405), wk =   0.0008889
        k(  231) = (  -0.5892557  -0.5892557  -0.0235702), wk =   0.0008889
        k(  232) = (  -0.5656854  -0.5656854   0.0000000), wk =   0.0004444
        k(  233) = (   0.0000000   0.0000000   0.6128259), wk =   0.0002222
        k(  234) = (   0.0235702   0.0235702   0.6363961), wk =   0.0008889
        k(  235) = (  -0.6599663  -0.6599663  -0.0471405), wk =   0.0008889
        k(  236) = (  -0.6363961  -0.6363961  -0.0235702), wk =   0.0008889
        k(  237) = (  -0.6128259  -0.6128259  -0.0000000), wk =   0.0004444
        k(  238) = (  -0.0000000  -0.0000000   0.6599663), wk =   0.0002222
        k(  239) = (  -0.6835366  -0.6835366  -0.0235702), wk =   0.0008889
        k(  240) = (  -0.6599663  -0.6599663   0.0000000), wk =   0.0004444
        k(  241) = (   0.0000000   0.0000000  -0.7071068), wk =   0.0001111
        k(  242) = (   0.0000000   0.0471405   0.0942809), wk =   0.0008889
        k(  243) = (   0.0235702   0.0707107   0.1178511), wk =   0.0017778
        k(  244) = (   0.0471405   0.0942809   0.1414214), wk =   0.0017778
        k(  245) = (   0.0707107   0.1178511   0.1649916), wk =   0.0017778
        k(  246) = (   0.0942809   0.1414214   0.1885618), wk =   0.0017778
        k(  247) = (   0.1178511   0.1649916   0.2121320), wk =   0.0017778
        k(  248) = (   0.1414214   0.1885618   0.2357023), wk =   0.0017778
        k(  249) = (   0.1649916   0.2121320   0.2592725), wk =   0.0017778
        k(  250) = (   0.1885618   0.2357023   0.2828427), wk =   0.0017778
        k(  251) = (   0.2121320   0.2592725   0.3064129), wk =   0.0017778
        k(  252) = (   0.2357023   0.2828427   0.3299832), wk =   0.0017778
        k(  253) = (   0.2592725   0.3064129   0.3535534), wk =   0.0017778
        k(  254) = (  -0.4242641  -0.3771236  -0.3299832), wk =   0.0017778
        k(  255) = (  -0.4006938  -0.3535534  -0.3064129), wk =   0.0008889
        k(  256) = (  -0.0000000   0.0471405   0.1414214), wk =   0.0008889
        k(  257) = (   0.0235702   0.0707107   0.1649916), wk =   0.0017778
        k(  258) = (   0.0471405   0.0942809   0.1885618), wk =   0.0017778
        k(  259) = (   0.0707107   0.1178511   0.2121320), wk =   0.0017778
        k(  260) = (   0.0942809   0.1414214   0.2357023), wk =   0.0017778
        k(  261) = (   0.1178511   0.1649916   0.2592725), wk =   0.0017778
        k(  262) = (   0.1414214   0.1885618   0.2828427), wk =   0.0017778
        k(  263) = (   0.1649916   0.2121320   0.3064129), wk =   0.0017778
        k(  264) = (   0.1885618   0.2357023   0.3299832), wk =   0.0017778
        k(  265) = (   0.2121320   0.2592725   0.3535534), wk =   0.0017778
        k(  266) = (   0.2357023   0.2828427   0.3771236), wk =   0.0017778
        k(  267) = (  -0.4478343  -0.4006938  -0.3064129), wk =   0.0017778
        k(  268) = (  -0.4242641  -0.3771236  -0.2828427), wk =   0.0017778
        k(  269) = (  -0.4006938  -0.3535534  -0.2592725), wk =   0.0017778
        k(  270) = (  -0.3771236  -0.3299832  -0.2357023), wk =   0.0017778
        k(  271) = (  -0.3535534  -0.3064129  -0.2121320), wk =   0.0017778
        k(  272) = (  -0.3299832  -0.2828427  -0.1885618), wk =   0.0017778
        k(  273) = (  -0.3064129  -0.2592725  -0.1649916), wk =   0.0017778
        k(  274) = (  -0.2828427  -0.2357023  -0.1414214), wk =   0.0017778
        k(  275) = (  -0.2592725  -0.2121320  -0.1178511), wk =   0.0017778
        k(  276) = (  -0.2357023  -0.1885618  -0.0942809), wk =   0.0017778
        k(  277) = (  -0.2121320  -0.1649916  -0.0707107), wk =   0.0017778
        k(  278) = (  -0.1885618  -0.1414214  -0.0471405), wk =   0.0017778
        k(  279) = (  -0.1649916  -0.1178511  -0.0235702), wk =   0.0017778
        k(  280) = (  -0.1414214  -0.0942809   0.0000000), wk =   0.0008889
        k(  281) = (   0.0000000   0.0471405   0.1885618), wk =   0.0008889
        k(  282) = (   0.0235702   0.0707107   0.2121320), wk =   0.0017778
        k(  283) = (   0.0471405   0.0942809   0.2357023), wk =   0.0017778
        k(  284) = (   0.0707107   0.1178511   0.2592725), wk =   0.0017778
        k(  285) = (   0.0942809   0.1414214   0.2828427), wk =   0.0017778
        k(  286) = (   0.1178511   0.1649916   0.3064129), wk =   0.0017778
        k(  287) = (   0.1414214   0.1885618   0.3299832), wk =   0.0017778
        k(  288) = (   0.1649916   0.2121320   0.3535534), wk =   0.0017778
        k(  289) = (   0.1885618   0.2357023   0.3771236), wk =   0.0017778
        k(  290) = (   0.2121320   0.2592725   0.4006938), wk =   0.0017778
        k(  291) = (  -0.4714045  -0.4242641  -0.2828427), wk =   0.0017778
        k(  292) = (  -0.4478343  -0.4006938  -0.2592725), wk =   0.0017778
        k(  293) = (  -0.4242641  -0.3771236  -0.2357023), wk =   0.0017778
        k(  294) = (  -0.4006938  -0.3535534  -0.2121320), wk =   0.0017778
        k(  295) = (  -0.3771236  -0.3299832  -0.1885618), wk =   0.0017778
        k(  296) = (  -0.3535534  -0.3064129  -0.1649916), wk =   0.0017778
        k(  297) = (  -0.3299832  -0.2828427  -0.1414214), wk =   0.0017778
        k(  298) = (  -0.3064129  -0.2592725  -0.1178511), wk =   0.0017778
        k(  299) = (  -0.2828427  -0.2357023  -0.0942809), wk =   0.0017778
        k(  300) = (  -0.2592725  -0.2121320  -0.0707107), wk =   0.0017778
        k(  301) = (  -0.2357023  -0.1885618  -0.0471405), wk =   0.0017778
        k(  302) = (  -0.2121320  -0.1649916  -0.0235702), wk =   0.0017778
        k(  303) = (  -0.1885618  -0.1414214   0.0000000), wk =   0.0008889
        k(  304) = (   0.0000000   0.0471405   0.2357023), wk =   0.0008889
        k(  305) = (   0.0235702   0.0707107   0.2592725), wk =   0.0017778
        k(  306) = (   0.0471405   0.0942809   0.2828427), wk =   0.0017778
        k(  307) = (   0.0707107   0.1178511   0.3064129), wk =   0.0017778
        k(  308) = (   0.0942809   0.1414214   0.3299832), wk =   0.0017778
        k(  309) = (   0.1178511   0.1649916   0.3535534), wk =   0.0017778
        k(  310) = (   0.1414214   0.1885618   0.3771236), wk =   0.0017778
        k(  311) = (   0.1649916   0.2121320   0.4006938), wk =   0.0017778
        k(  312) = (   0.1885618   0.2357023   0.4242641), wk =   0.0017778
        k(  313) = (  -0.4949747  -0.4478343  -0.2592725), wk =   0.0017778
        k(  314) = (  -0.4714045  -0.4242641  -0.2357023), wk =   0.0017778
        k(  315) = (  -0.4478343  -0.4006938  -0.2121320), wk =   0.0017778
        k(  316) = (  -0.4242641  -0.3771236  -0.1885618), wk =   0.0017778
        k(  317) = (  -0.4006938  -0.3535534  -0.1649916), wk =   0.0017778
        k(  318) = (  -0.3771236  -0.3299832  -0.1414214), wk =   0.0017778
        k(  319) = (  -0.3535534  -0.3064129  -0.1178511), wk =   0.0017778
        k(  320) = (  -0.3299832  -0.2828427  -0.0942809), wk =   0.0017778
        k(  321) = (  -0.3064129  -0.2592725  -0.0707107), wk =   0.0017778
        k(  322) = (  -0.2828427  -0.2357023  -0.0471405), wk =   0.0017778
        k(  323) = (  -0.2592725  -0.2121320  -0.0235702), wk =   0.0017778
        k(  324) = (  -0.2357023  -0.1885618   0.0000000), wk =   0.0008889
        k(  325) = (  -0.0000000   0.0471405   0.2828427), wk =   0.0008889
        k(  326) = (   0.0235702   0.0707107   0.3064129), wk =   0.0017778
        k(  327) = (   0.0471405   0.0942809   0.3299832), wk =   0.0017778
        k(  328) = (   0.0707107   0.1178511   0.3535534), wk =   0.0017778
        k(  329) = (   0.0942809   0.1414214   0.3771236), wk =   0.0017778
        k(  330) = (   0.1178511   0.1649916   0.4006938), wk =   0.0017778
        k(  331) = (   0.1414214   0.1885618   0.4242641), wk =   0.0017778
        k(  332) = (   0.1649916   0.2121320   0.4478343), wk =   0.0017778
        k(  333) = (  -0.5185450  -0.4714045  -0.2357023), wk =   0.0017778
        k(  334) = (  -0.4949747  -0.4478343  -0.2121320), wk =   0.0017778
        k(  335) = (  -0.4714045  -0.4242641  -0.1885618), wk =   0.0017778
        k(  336) = (  -0.4478343  -0.4006938  -0.1649916), wk =   0.0017778
        k(  337) = (  -0.4242641  -0.3771236  -0.1414214), wk =   0.0017778
        k(  338) = (  -0.4006938  -0.3535534  -0.1178511), wk =   0.0017778
        k(  339) = (  -0.3771236  -0.3299832  -0.0942809), wk =   0.0017778
        k(  340) = (  -0.3535534  -0.3064129  -0.0707107), wk =   0.0017778
        k(  341) = (  -0.3299832  -0.2828427  -0.0471405), wk =   0.0017778
        k(  342) = (  -0.3064129  -0.2592725  -0.0235702), wk =   0.0017778
        k(  343) = (  -0.2828427  -0.2357023   0.0000000), wk =   0.0008889
        k(  344) = (  -0.0000000   0.0471405   0.3299832), wk =   0.0008889
        k(  345) = (   0.0235702   0.0707107   0.3535534), wk =   0.0017778
        k(  346) = (   0.0471405   0.0942809   0.3771236), wk =   0.0017778
        k(  347) = (   0.0707107   0.1178511   0.4006938), wk =   0.0017778
        k(  348) = (   0.0942809   0.1414214   0.4242641), wk =   0.0017778
        k(  349) = (   0.1178511   0.1649916   0.4478343), wk =   0.0017778
        k(  350) = (   0.1414214   0.1885618   0.4714045), wk =   0.0017778
        k(  351) = (  -0.5421152  -0.4949747  -0.2121320), wk =   0.0017778
        k(  352) = (  -0.5185450  -0.4714045  -0.1885618), wk =   0.0017778
        k(  353) = (  -0.4949747  -0.4478343  -0.1649916), wk =   0.0017778
        k(  354) = (  -0.4714045  -0.4242641  -0.1414214), wk =   0.0017778
        k(  355) = (  -0.4478343  -0.4006938  -0.1178511), wk =   0.0017778
        k(  356) = (  -0.4242641  -0.3771236  -0.0942809), wk =   0.0017778
        k(  357) = (  -0.4006938  -0.3535534  -0.0707107), wk =   0.0017778
        k(  358) = (  -0.3771236  -0.3299832  -0.0471405), wk =   0.0017778
        k(  359) = (  -0.3535534  -0.3064129  -0.0235702), wk =   0.0017778
        k(  360) = (  -0.3299832  -0.2828427   0.0000000), wk =   0.0008889
        k(  361) = (   0.0000000   0.0471405   0.3771236), wk =   0.0008889
        k(  362) = (   0.0235702   0.0707107   0.4006938), wk =   0.0017778
        k(  363) = (   0.0471405   0.0942809   0.4242641), wk =   0.0017778
        k(  364) = (   0.0707107   0.1178511   0.4478343), wk =   0.0017778
        k(  365) = (   0.0942809   0.1414214   0.4714045), wk =   0.0017778
        k(  366) = (   0.1178511   0.1649916   0.4949747), wk =   0.0017778
        k(  367) = (  -0.5656854  -0.5185450  -0.1885618), wk =   0.0017778
        k(  368) = (  -0.5421152  -0.4949747  -0.1649916), wk =   0.0017778
        k(  369) = (  -0.5185450  -0.4714045  -0.1414214), wk =   0.0017778
        k(  370) = (  -0.4949747  -0.4478343  -0.1178511), wk =   0.0017778
        k(  371) = (  -0.4714045  -0.4242641  -0.0942809), wk =   0.0017778
        k(  372) = (  -0.4478343  -0.4006938  -0.0707107), wk =   0.0017778
        k(  373) = (  -0.4242641  -0.3771236  -0.0471405), wk =   0.0017778
        k(  374) = (  -0.4006938  -0.3535534  -0.0235702), wk =   0.0017778
        k(  375) = (  -0.3771236  -0.3299832   0.0000000), wk =   0.0008889
        k(  376) = (   0.0000000   0.0471405   0.4242641), wk =   0.0008889
        k(  377) = (   0.0235702   0.0707107   0.4478343), wk =   0.0017778
        k(  378) = (   0.0471405   0.0942809   0.4714045), wk =   0.0017778
        k(  379) = (   0.0707107   0.1178511   0.4949747), wk =   0.0017778
        k(  380) = (   0.0942809   0.1414214   0.5185450), wk =   0.0017778
        k(  381) = (  -0.5892557  -0.5421152  -0.1649916), wk =   0.0017778
        k(  382) = (  -0.5656854  -0.5185450  -0.1414214), wk =   0.0017778
        k(  383) = (  -0.5421152  -0.4949747  -0.1178511), wk =   0.0017778
        k(  384) = (  -0.5185450  -0.4714045  -0.0942809), wk =   0.0017778
        k(  385) = (  -0.4949747  -0.4478343  -0.0707107), wk =   0.0017778
        k(  386) = (  -0.4714045  -0.4242641  -0.0471405), wk =   0.0017778
        k(  387) = (  -0.4478343  -0.4006938  -0.0235702), wk =   0.0017778
        k(  388) = (  -0.4242641  -0.3771236  -0.0000000), wk =   0.0008889
        k(  389) = (  -0.0000000   0.0471405   0.4714045), wk =   0.0008889
        k(  390) = (   0.0235702   0.0707107   0.4949747), wk =   0.0017778
        k(  391) = (   0.0471405   0.0942809   0.5185450), wk =   0.0017778
        k(  392) = (   0.0707107   0.1178511   0.5421152), wk =   0.0017778
        k(  393) = (  -0.6128259  -0.5656854  -0.1414214), wk =   0.0017778
        k(  394) = (  -0.5892557  -0.5421152  -0.1178511), wk =   0.0017778
        k(  395) = (  -0.5656854  -0.5185450  -0.0942809), wk =   0.0017778
        k(  396) = (  -0.5421152  -0.4949747  -0.0707107), wk =   0.0017778
        k(  397) = (  -0.5185450  -0.4714045  -0.0471405), wk =   0.0017778
        k(  398) = (  -0.4949747  -0.4478343  -0.0235702), wk =   0.0017778
        k(  399) = (  -0.4714045  -0.4242641  -0.0000000), wk =   0.0008889
        k(  400) = (  -0.0000000   0.0471405   0.5185450), wk =   0.0008889
        k(  401) = (   0.0235702   0.0707107   0.5421152), wk =   0.0017778
        k(  402) = (   0.0471405   0.0942809   0.5656854), wk =   0.0017778
        k(  403) = (  -0.6363961  -0.5892557  -0.1178511), wk =   0.0017778
        k(  404) = (  -0.6128259  -0.5656854  -0.0942809), wk =   0.0017778
        k(  405) = (  -0.5892557  -0.5421152  -0.0707107), wk =   0.0017778
        k(  406) = (  -0.5656854  -0.5185450  -0.0471405), wk =   0.0017778
        k(  407) = (  -0.5421152  -0.4949747  -0.0235702), wk =   0.0017778
        k(  408) = (  -0.5185450  -0.4714045  -0.0000000), wk =   0.0008889
        k(  409) = (  -0.0000000   0.0471405   0.5656854), wk =   0.0008889
        k(  410) = (   0.0235702   0.0707107   0.5892557), wk =   0.0017778
        k(  411) = (  -0.6599663  -0.6128259  -0.0942809), wk =   0.0017778
        k(  412) = (  -0.6363961  -0.5892557  -0.0707107), wk =   0.0017778
        k(  413) = (  -0.6128259  -0.5656854  -0.0471405), wk =   0.0017778
        k(  414) = (  -0.5892557  -0.5421152  -0.0235702), wk =   0.0017778
        k(  415) = (  -0.5656854  -0.5185450  -0.0000000), wk =   0.0008889
        k(  416) = (  -0.0000000   0.0471405   0.6128259), wk =   0.0008889
        k(  417) = (  -0.6835366  -0.6363961  -0.0707107), wk =   0.0017778
        k(  418) = (  -0.6599663  -0.6128259  -0.0471405), wk =   0.0017778
        k(  419) = (  -0.6363961  -0.5892557  -0.0235702), wk =   0.0017778
        k(  420) = (  -0.6128259  -0.5656854  -0.0000000), wk =   0.0008889
        k(  421) = (  -0.7071068  -0.6599663  -0.0471405), wk =   0.0008889
        k(  422) = (  -0.6835366  -0.6363961  -0.0235702), wk =   0.0017778
        k(  423) = (  -0.6599663  -0.6128259  -0.0000000), wk =   0.0008889
        k(  424) = (  -0.0000000   0.0471405  -0.7071068), wk =   0.0004444
        k(  425) = (   0.0000000   0.0942809   0.1885618), wk =   0.0008889
        k(  426) = (   0.0235702   0.1178511   0.2121320), wk =   0.0017778
        k(  427) = (   0.0471405   0.1414214   0.2357023), wk =   0.0017778
        k(  428) = (   0.0707107   0.1649916   0.2592725), wk =   0.0017778
        k(  429) = (   0.0942809   0.1885618   0.2828427), wk =   0.0017778
        k(  430) = (   0.1178511   0.2121320   0.3064129), wk =   0.0017778
        k(  431) = (   0.1414214   0.2357023   0.3299832), wk =   0.0017778
        k(  432) = (   0.1649916   0.2592725   0.3535534), wk =   0.0017778
        k(  433) = (   0.1885618   0.2828427   0.3771236), wk =   0.0017778
        k(  434) = (  -0.4949747  -0.4006938  -0.3064129), wk =   0.0017778
        k(  435) = (  -0.4714045  -0.3771236  -0.2828427), wk =   0.0017778
        k(  436) = (  -0.4478343  -0.3535534  -0.2592725), wk =   0.0008889
        k(  437) = (   0.0000000   0.0942809   0.2357023), wk =   0.0008889
        k(  438) = (   0.0235702   0.1178511   0.2592725), wk =   0.0017778
        k(  439) = (   0.0471405   0.1414214   0.2828427), wk =   0.0017778
        k(  440) = (   0.0707107   0.1649916   0.3064129), wk =   0.0017778
        k(  441) = (   0.0942809   0.1885618   0.3299832), wk =   0.0017778
        k(  442) = (   0.1178511   0.2121320   0.3535534), wk =   0.0017778
        k(  443) = (   0.1414214   0.2357023   0.3771236), wk =   0.0017778
        k(  444) = (   0.1649916   0.2592725   0.4006938), wk =   0.0017778
        k(  445) = (  -0.5185450  -0.4242641  -0.2828427), wk =   0.0017778
        k(  446) = (  -0.4949747  -0.4006938  -0.2592725), wk =   0.0017778
        k(  447) = (  -0.4714045  -0.3771236  -0.2357023), wk =   0.0017778
        k(  448) = (  -0.4478343  -0.3535534  -0.2121320), wk =   0.0017778
        k(  449) = (  -0.4242641  -0.3299832  -0.1885618), wk =   0.0017778
        k(  450) = (  -0.4006938  -0.3064129  -0.1649916), wk =   0.0017778
        k(  451) = (  -0.3771236  -0.2828427  -0.1414214), wk =   0.0017778
        k(  452) = (  -0.3535534  -0.2592725  -0.1178511), wk =   0.0017778
        k(  453) = (  -0.3299832  -0.2357023  -0.0942809), wk =   0.0017778
        k(  454) = (  -0.3064129  -0.2121320  -0.0707107), wk =   0.0017778
        k(  455) = (  -0.2828427  -0.1885618  -0.0471405), wk =   0.0017778
        k(  456) = (  -0.2592725  -0.1649916  -0.0235702), wk =   0.0017778
        k(  457) = (  -0.2357023  -0.1414214   0.0000000), wk =   0.0008889
        k(  458) = (  -0.0000000   0.0942809   0.2828427), wk =   0.0008889
        k(  459) = (   0.0235702   0.1178511   0.3064129), wk =   0.0017778
        k(  460) = (   0.0471405   0.1414214   0.3299832), wk =   0.0017778
        k(  461) = (   0.0707107   0.1649916   0.3535534), wk =   0.0017778
        k(  462) = (   0.0942809   0.1885618   0.3771236), wk =   0.0017778
        k(  463) = (   0.1178511   0.2121320   0.4006938), wk =   0.0017778
        k(  464) = (   0.1414214   0.2357023   0.4242641), wk =   0.0017778
        k(  465) = (  -0.5421152  -0.4478343  -0.2592725), wk =   0.0017778
        k(  466) = (  -0.5185450  -0.4242641  -0.2357023), wk =   0.0017778
        k(  467) = (  -0.4949747  -0.4006938  -0.2121320), wk =   0.0017778
        k(  468) = (  -0.4714045  -0.3771236  -0.1885618), wk =   0.0017778
        k(  469) = (  -0.4478343  -0.3535534  -0.1649916), wk =   0.0017778
        k(  470) = (  -0.4242641  -0.3299832  -0.1414214), wk =   0.0017778
        k(  471) = (  -0.4006938  -0.3064129  -0.1178511), wk =   0.0017778
        k(  472) = (  -0.3771236  -0.2828427  -0.0942809), wk =   0.0017778
        k(  473) = (  -0.3535534  -0.2592725  -0.0707107), wk =   0.0017778
        k(  474) = (  -0.3299832  -0.2357023  -0.0471405), wk =   0.0017778
        k(  475) = (  -0.3064129  -0.2121320  -0.0235702), wk =   0.0017778
        k(  476) = (  -0.2828427  -0.1885618   0.0000000), wk =   0.0008889
        k(  477) = (  -0.0000000   0.0942809   0.3299832), wk =   0.0008889
        k(  478) = (   0.0235702   0.1178511   0.3535534), wk =   0.0017778
        k(  479) = (   0.0471405   0.1414214   0.3771236), wk =   0.0017778
        k(  480) = (   0.0707107   0.1649916   0.4006938), wk =   0.0017778
        k(  481) = (   0.0942809   0.1885618   0.4242641), wk =   0.0017778
        k(  482) = (   0.1178511   0.2121320   0.4478343), wk =   0.0017778
        k(  483) = (  -0.5656854  -0.4714045  -0.2357023), wk =   0.0017778
        k(  484) = (  -0.5421152  -0.4478343  -0.2121320), wk =   0.0017778
        k(  485) = (  -0.5185450  -0.4242641  -0.1885618), wk =   0.0017778
        k(  486) = (  -0.4949747  -0.4006938  -0.1649916), wk =   0.0017778
        k(  487) = (  -0.4714045  -0.3771236  -0.1414214), wk =   0.0017778
        k(  488) = (  -0.4478343  -0.3535534  -0.1178511), wk =   0.0017778
        k(  489) = (  -0.4242641  -0.3299832  -0.0942809), wk =   0.0017778
        k(  490) = (  -0.4006938  -0.3064129  -0.0707107), wk =   0.0017778
        k(  491) = (  -0.3771236  -0.2828427  -0.0471405), wk =   0.0017778
        k(  492) = (  -0.3535534  -0.2592725  -0.0235702), wk =   0.0017778
        k(  493) = (  -0.3299832  -0.2357023   0.0000000), wk =   0.0008889
        k(  494) = (   0.0000000   0.0942809   0.3771236), wk =   0.0008889
        k(  495) = (   0.0235702   0.1178511   0.4006938), wk =   0.0017778
        k(  496) = (   0.0471405   0.1414214   0.4242641), wk =   0.0017778
        k(  497) = (   0.0707107   0.1649916   0.4478343), wk =   0.0017778
        k(  498) = (   0.0942809   0.1885618   0.4714045), wk =   0.0017778
        k(  499) = (  -0.5892557  -0.4949747  -0.2121320), wk =   0.0017778
        k(  500) = (  -0.5656854  -0.4714045  -0.1885618), wk =   0.0017778
        k(  501) = (  -0.5421152  -0.4478343  -0.1649916), wk =   0.0017778
        k(  502) = (  -0.5185450  -0.4242641  -0.1414214), wk =   0.0017778
        k(  503) = (  -0.4949747  -0.4006938  -0.1178511), wk =   0.0017778
        k(  504) = (  -0.4714045  -0.3771236  -0.0942809), wk =   0.0017778
        k(  505) = (  -0.4478343  -0.3535534  -0.0707107), wk =   0.0017778
        k(  506) = (  -0.4242641  -0.3299832  -0.0471405), wk =   0.0017778
        k(  507) = (  -0.4006938  -0.3064129  -0.0235702), wk =   0.0017778
        k(  508) = (  -0.3771236  -0.2828427   0.0000000), wk =   0.0008889
        k(  509) = (  -0.0000000   0.0942809   0.4242641), wk =   0.0008889
        k(  510) = (   0.0235702   0.1178511   0.4478343), wk =   0.0017778
        k(  511) = (   0.0471405   0.1414214   0.4714045), wk =   0.0017778
        k(  512) = (   0.0707107   0.1649916   0.4949747), wk =   0.0017778
        k(  513) = (  -0.6128259  -0.5185450  -0.1885618), wk =   0.0017778
        k(  514) = (  -0.5892557  -0.4949747  -0.1649916), wk =   0.0017778
        k(  515) = (  -0.5656854  -0.4714045  -0.1414214), wk =   0.0017778
        k(  516) = (  -0.5421152  -0.4478343  -0.1178511), wk =   0.0017778
        k(  517) = (  -0.5185450  -0.4242641  -0.0942809), wk =   0.0017778
        k(  518) = (  -0.4949747  -0.4006938  -0.0707107), wk =   0.0017778
        k(  519) = (  -0.4714045  -0.3771236  -0.0471405), wk =   0.0017778
        k(  520) = (  -0.4478343  -0.3535534  -0.0235702), wk =   0.0017778
        k(  521) = (  -0.4242641  -0.3299832   0.0000000), wk =   0.0008889
        k(  522) = (   0.0000000   0.0942809   0.4714045), wk =   0.0008889
        k(  523) = (   0.0235702   0.1178511   0.4949747), wk =   0.0017778
        k(  524) = (   0.0471405   0.1414214   0.5185450), wk =   0.0017778
        k(  525) = (  -0.6363961  -0.5421152  -0.1649916), wk =   0.0017778
        k(  526) = (  -0.6128259  -0.5185450  -0.1414214), wk =   0.0017778
        k(  527) = (  -0.5892557  -0.4949747  -0.1178511), wk =   0.0017778
        k(  528) = (  -0.5656854  -0.4714045  -0.0942809), wk =   0.0017778
        k(  529) = (  -0.5421152  -0.4478343  -0.0707107), wk =   0.0017778
        k(  530) = (  -0.5185450  -0.4242641  -0.0471405), wk =   0.0017778
        k(  531) = (  -0.4949747  -0.4006938  -0.0235702), wk =   0.0017778
        k(  532) = (  -0.4714045  -0.3771236  -0.0000000), wk =   0.0008889
        k(  533) = (   0.0000000   0.0942809   0.5185450), wk =   0.0008889
        k(  534) = (   0.0235702   0.1178511   0.5421152), wk =   0.0017778
        k(  535) = (  -0.6599663  -0.5656854  -0.1414214), wk =   0.0017778
        k(  536) = (  -0.6363961  -0.5421152  -0.1178511), wk =   0.0017778
        k(  537) = (  -0.6128259  -0.5185450  -0.0942809), wk =   0.0017778
        k(  538) = (  -0.5892557  -0.4949747  -0.0707107), wk =   0.0017778
        k(  539) = (  -0.5656854  -0.4714045  -0.0471405), wk =   0.0017778
        k(  540) = (  -0.5421152  -0.4478343  -0.0235702), wk =   0.0017778
        k(  541) = (  -0.5185450  -0.4242641  -0.0000000), wk =   0.0008889
        k(  542) = (  -0.0000000   0.0942809   0.5656854), wk =   0.0008889
        k(  543) = (  -0.6835366  -0.5892557  -0.1178511), wk =   0.0017778
        k(  544) = (  -0.6599663  -0.5656854  -0.0942809), wk =   0.0017778
        k(  545) = (  -0.6363961  -0.5421152  -0.0707107), wk =   0.0017778
        k(  546) = (  -0.6128259  -0.5185450  -0.0471405), wk =   0.0017778
        k(  547) = (  -0.5892557  -0.4949747  -0.0235702), wk =   0.0017778
        k(  548) = (  -0.5656854  -0.4714045   0.0000000), wk =   0.0008889
        k(  549) = (  -0.7071068  -0.6128259  -0.0942809), wk =   0.0008889
        k(  550) = (  -0.6835366  -0.5892557  -0.0707107), wk =   0.0017778
        k(  551) = (  -0.6599663  -0.5656854  -0.0471405), wk =   0.0017778
        k(  552) = (  -0.6363961  -0.5421152  -0.0235702), wk =   0.0017778
        k(  553) = (  -0.6128259  -0.5185450  -0.0000000), wk =   0.0008889
        k(  554) = (  -0.7071068  -0.6128259  -0.0471405), wk =   0.0008889
        k(  555) = (  -0.6835366  -0.5892557  -0.0235702), wk =   0.0017778
        k(  556) = (  -0.6599663  -0.5656854   0.0000000), wk =   0.0008889
        k(  557) = (  -0.0000000   0.0942809  -0.7071068), wk =   0.0004444
        k(  558) = (  -0.0000000   0.1414214   0.2828427), wk =   0.0008889
        k(  559) = (   0.0235702   0.1649916   0.3064129), wk =   0.0017778
        k(  560) = (   0.0471405   0.1885618   0.3299832), wk =   0.0017778
        k(  561) = (   0.0707107   0.2121320   0.3535534), wk =   0.0017778
        k(  562) = (   0.0942809   0.2357023   0.3771236), wk =   0.0017778
        k(  563) = (   0.1178511   0.2592725   0.4006938), wk =   0.0017778
        k(  564) = (  -0.5656854  -0.4242641  -0.2828427), wk =   0.0017778
        k(  565) = (  -0.5421152  -0.4006938  -0.2592725), wk =   0.0017778
        k(  566) = (  -0.5185450  -0.3771236  -0.2357023), wk =   0.0017778
        k(  567) = (  -0.4949747  -0.3535534  -0.2121320), wk =   0.0008889
        k(  568) = (  -0.0000000   0.1414214   0.3299832), wk =   0.0008889
        k(  569) = (   0.0235702   0.1649916   0.3535534), wk =   0.0017778
        k(  570) = (   0.0471405   0.1885618   0.3771236), wk =   0.0017778
        k(  571) = (   0.0707107   0.2121320   0.4006938), wk =   0.0017778
        k(  572) = (   0.0942809   0.2357023   0.4242641), wk =   0.0017778
        k(  573) = (  -0.5892557  -0.4478343  -0.2592725), wk =   0.0017778
        k(  574) = (  -0.5656854  -0.4242641  -0.2357023), wk =   0.0017778
        k(  575) = (  -0.5421152  -0.4006938  -0.2121320), wk =   0.0017778
        k(  576) = (  -0.5185450  -0.3771236  -0.1885618), wk =   0.0017778
        k(  577) = (  -0.4949747  -0.3535534  -0.1649916), wk =   0.0017778
        k(  578) = (  -0.4714045  -0.3299832  -0.1414214), wk =   0.0017778
        k(  579) = (  -0.4478343  -0.3064129  -0.1178511), wk =   0.0017778
        k(  580) = (  -0.4242641  -0.2828427  -0.0942809), wk =   0.0017778
        k(  581) = (  -0.4006938  -0.2592725  -0.0707107), wk =   0.0017778
        k(  582) = (  -0.3771236  -0.2357023  -0.0471405), wk =   0.0017778
        k(  583) = (  -0.3535534  -0.2121320  -0.0235702), wk =   0.0017778
        k(  584) = (  -0.3299832  -0.1885618   0.0000000), wk =   0.0008889
        k(  585) = (  -0.0000000   0.1414214   0.3771236), wk =   0.0008889
        k(  586) = (   0.0235702   0.1649916   0.4006938), wk =   0.0017778
        k(  587) = (   0.0471405   0.1885618   0.4242641), wk =   0.0017778
        k(  588) = (   0.0707107   0.2121320   0.4478343), wk =   0.0017778
        k(  589) = (  -0.6128259  -0.4714045  -0.2357023), wk =   0.0017778
        k(  590) = (  -0.5892557  -0.4478343  -0.2121320), wk =   0.0017778
        k(  591) = (  -0.5656854  -0.4242641  -0.1885618), wk =   0.0017778
        k(  592) = (  -0.5421152  -0.4006938  -0.1649916), wk =   0.0017778
        k(  593) = (  -0.5185450  -0.3771236  -0.1414214), wk =   0.0017778
        k(  594) = (  -0.4949747  -0.3535534  -0.1178511), wk =   0.0017778
        k(  595) = (  -0.4714045  -0.3299832  -0.0942809), wk =   0.0017778
        k(  596) = (  -0.4478343  -0.3064129  -0.0707107), wk =   0.0017778
        k(  597) = (  -0.4242641  -0.2828427  -0.0471405), wk =   0.0017778
        k(  598) = (  -0.4006938  -0.2592725  -0.0235702), wk =   0.0017778
        k(  599) = (  -0.3771236  -0.2357023   0.0000000), wk =   0.0008889
        k(  600) = (   0.0000000   0.1414214   0.4242641), wk =   0.0008889
        k(  601) = (   0.0235702   0.1649916   0.4478343), wk =   0.0017778
        k(  602) = (   0.0471405   0.1885618   0.4714045), wk =   0.0017778
        k(  603) = (  -0.6363961  -0.4949747  -0.2121320), wk =   0.0017778
        k(  604) = (  -0.6128259  -0.4714045  -0.1885618), wk =   0.0017778
        k(  605) = (  -0.5892557  -0.4478343  -0.1649916), wk =   0.0017778
        k(  606) = (  -0.5656854  -0.4242641  -0.1414214), wk =   0.0017778
        k(  607) = (  -0.5421152  -0.4006938  -0.1178511), wk =   0.0017778
        k(  608) = (  -0.5185450  -0.3771236  -0.0942809), wk =   0.0017778
        k(  609) = (  -0.4949747  -0.3535534  -0.0707107), wk =   0.0017778
        k(  610) = (  -0.4714045  -0.3299832  -0.0471405), wk =   0.0017778
        k(  611) = (  -0.4478343  -0.3064129  -0.0235702), wk =   0.0017778
        k(  612) = (  -0.4242641  -0.2828427   0.0000000), wk =   0.0008889
        k(  613) = (   0.0000000   0.1414214   0.4714045), wk =   0.0008889
        k(  614) = (   0.0235702   0.1649916   0.4949747), wk =   0.0017778
        k(  615) = (  -0.6599663  -0.5185450  -0.1885618), wk =   0.0017778
        k(  616) = (  -0.6363961  -0.4949747  -0.1649916), wk =   0.0017778
        k(  617) = (  -0.6128259  -0.4714045  -0.1414214), wk =   0.0017778
        k(  618) = (  -0.5892557  -0.4478343  -0.1178511), wk =   0.0017778
        k(  619) = (  -0.5656854  -0.4242641  -0.0942809), wk =   0.0017778
        k(  620) = (  -0.5421152  -0.4006938  -0.0707107), wk =   0.0017778
        k(  621) = (  -0.5185450  -0.3771236  -0.0471405), wk =   0.0017778
        k(  622) = (  -0.4949747  -0.3535534  -0.0235702), wk =   0.0017778
        k(  623) = (  -0.4714045  -0.3299832   0.0000000), wk =   0.0008889
        k(  624) = (  -0.0000000   0.1414214   0.5185450), wk =   0.0008889
        k(  625) = (  -0.6835366  -0.5421152  -0.1649916), wk =   0.0017778
        k(  626) = (  -0.6599663  -0.5185450  -0.1414214), wk =   0.0017778
        k(  627) = (  -0.6363961  -0.4949747  -0.1178511), wk =   0.0017778
        k(  628) = (  -0.6128259  -0.4714045  -0.0942809), wk =   0.0017778
        k(  629) = (  -0.5892557  -0.4478343  -0.0707107), wk =   0.0017778
        k(  630) = (  -0.5656854  -0.4242641  -0.0471405), wk =   0.0017778
        k(  631) = (  -0.5421152  -0.4006938  -0.0235702), wk =   0.0017778
        k(  632) = (  -0.5185450  -0.3771236  -0.0000000), wk =   0.0008889
        k(  633) = (  -0.7071068  -0.5656854  -0.1414214), wk =   0.0008889
        k(  634) = (  -0.6835366  -0.5421152  -0.1178511), wk =   0.0017778
        k(  635) = (  -0.6599663  -0.5185450  -0.0942809), wk =   0.0017778
        k(  636) = (  -0.6363961  -0.4949747  -0.0707107), wk =   0.0017778
        k(  637) = (  -0.6128259  -0.4714045  -0.0471405), wk =   0.0017778
        k(  638) = (  -0.5892557  -0.4478343  -0.0235702), wk =   0.0017778
        k(  639) = (  -0.5656854  -0.4242641   0.0000000), wk =   0.0008889
        k(  640) = (  -0.7071068  -0.5656854  -0.0942809), wk =   0.0008889
        k(  641) = (  -0.6835366  -0.5421152  -0.0707107), wk =   0.0017778
        k(  642) = (  -0.6599663  -0.5185450  -0.0471405), wk =   0.0017778
        k(  643) = (  -0.6363961  -0.4949747  -0.0235702), wk =   0.0017778
        k(  644) = (  -0.6128259  -0.4714045  -0.0000000), wk =   0.0008889
        k(  645) = (  -0.7071068  -0.5656854  -0.0471405), wk =   0.0008889
        k(  646) = (  -0.6835366  -0.5421152  -0.0235702), wk =   0.0017778
        k(  647) = (  -0.6599663  -0.5185450  -0.0000000), wk =   0.0008889
        k(  648) = (  -0.0000000   0.1414214  -0.7071068), wk =   0.0004444
        k(  649) = (   0.0000000   0.1885618   0.3771236), wk =   0.0008889
        k(  650) = (   0.0235702   0.2121320   0.4006938), wk =   0.0017778
        k(  651) = (   0.0471405   0.2357023   0.4242641), wk =   0.0017778
        k(  652) = (  -0.6363961  -0.4478343  -0.2592725), wk =   0.0017778
        k(  653) = (  -0.6128259  -0.4242641  -0.2357023), wk =   0.0017778
        k(  654) = (  -0.5892557  -0.4006938  -0.2121320), wk =   0.0017778
        k(  655) = (  -0.5656854  -0.3771236  -0.1885618), wk =   0.0017778
        k(  656) = (  -0.5421152  -0.3535534  -0.1649916), wk =   0.0008889
        k(  657) = (   0.0000000   0.1885618   0.4242641), wk =   0.0008889
        k(  658) = (   0.0235702   0.2121320   0.4478343), wk =   0.0017778
        k(  659) = (  -0.6599663  -0.4714045  -0.2357023), wk =   0.0017778
        k(  660) = (  -0.6363961  -0.4478343  -0.2121320), wk =   0.0017778
        k(  661) = (  -0.6128259  -0.4242641  -0.1885618), wk =   0.0017778
        k(  662) = (  -0.5892557  -0.4006938  -0.1649916), wk =   0.0017778
        k(  663) = (  -0.5656854  -0.3771236  -0.1414214), wk =   0.0017778
        k(  664) = (  -0.5421152  -0.3535534  -0.1178511), wk =   0.0017778
        k(  665) = (  -0.5185450  -0.3299832  -0.0942809), wk =   0.0017778
        k(  666) = (  -0.4949747  -0.3064129  -0.0707107), wk =   0.0017778
        k(  667) = (  -0.4714045  -0.2828427  -0.0471405), wk =   0.0017778
        k(  668) = (  -0.4478343  -0.2592725  -0.0235702), wk =   0.0017778
        k(  669) = (  -0.4242641  -0.2357023   0.0000000), wk =   0.0008889
        k(  670) = (   0.0000000   0.1885618   0.4714045), wk =   0.0008889
        k(  671) = (  -0.6835366  -0.4949747  -0.2121320), wk =   0.0017778
        k(  672) = (  -0.6599663  -0.4714045  -0.1885618), wk =   0.0017778
        k(  673) = (  -0.6363961  -0.4478343  -0.1649916), wk =   0.0017778
        k(  674) = (  -0.6128259  -0.4242641  -0.1414214), wk =   0.0017778
        k(  675) = (  -0.5892557  -0.4006938  -0.1178511), wk =   0.0017778
        k(  676) = (  -0.5656854  -0.3771236  -0.0942809), wk =   0.0017778
        k(  677) = (  -0.5421152  -0.3535534  -0.0707107), wk =   0.0017778
        k(  678) = (  -0.5185450  -0.3299832  -0.0471405), wk =   0.0017778
        k(  679) = (  -0.4949747  -0.3064129  -0.0235702), wk =   0.0017778
        k(  680) = (  -0.4714045  -0.2828427   0.0000000), wk =   0.0008889
        k(  681) = (  -0.7071068  -0.5185450  -0.1885618), wk =   0.0008889
        k(  682) = (  -0.6835366  -0.4949747  -0.1649916), wk =   0.0017778
        k(  683) = (  -0.6599663  -0.4714045  -0.1414214), wk =   0.0017778
        k(  684) = (  -0.6363961  -0.4478343  -0.1178511), wk =   0.0017778
        k(  685) = (  -0.6128259  -0.4242641  -0.0942809), wk =   0.0017778
        k(  686) = (  -0.5892557  -0.4006938  -0.0707107), wk =   0.0017778
        k(  687) = (  -0.5656854  -0.3771236  -0.0471405), wk =   0.0017778
        k(  688) = (  -0.5421152  -0.3535534  -0.0235702), wk =   0.0017778
        k(  689) = (  -0.5185450  -0.3299832   0.0000000), wk =   0.0008889
        k(  690) = (  -0.7071068  -0.5185450  -0.1414214), wk =   0.0008889
        k(  691) = (  -0.6835366  -0.4949747  -0.1178511), wk =   0.0017778
        k(  692) = (  -0.6599663  -0.4714045  -0.0942809), wk =   0.0017778
        k(  693) = (  -0.6363961  -0.4478343  -0.0707107), wk =   0.0017778
        k(  694) = (  -0.6128259  -0.4242641  -0.0471405), wk =   0.0017778
        k(  695) = (  -0.5892557  -0.4006938  -0.0235702), wk =   0.0017778
        k(  696) = (  -0.5656854  -0.3771236   0.0000000), wk =   0.0008889
        k(  697) = (  -0.7071068  -0.5185450  -0.0942809), wk =   0.0008889
        k(  698) = (  -0.6835366  -0.4949747  -0.0707107), wk =   0.0017778
        k(  699) = (  -0.6599663  -0.4714045  -0.0471405), wk =   0.0017778
        k(  700) = (  -0.6363961  -0.4478343  -0.0235702), wk =   0.0017778
        k(  701) = (  -0.6128259  -0.4242641  -0.0000000), wk =   0.0008889
        k(  702) = (  -0.7071068  -0.5185450  -0.0471405), wk =   0.0008889
        k(  703) = (  -0.6835366  -0.4949747  -0.0235702), wk =   0.0017778
        k(  704) = (  -0.6599663  -0.4714045   0.0000000), wk =   0.0008889
        k(  705) = (  -0.0000000   0.1885618  -0.7071068), wk =   0.0004444
        k(  706) = (  -0.7071068  -0.4714045  -0.2357023), wk =   0.0008889
        k(  707) = (  -0.6835366  -0.4478343  -0.2121320), wk =   0.0017778
        k(  708) = (  -0.6599663  -0.4242641  -0.1885618), wk =   0.0017778
        k(  709) = (  -0.6363961  -0.4006938  -0.1649916), wk =   0.0017778
        k(  710) = (  -0.6128259  -0.3771236  -0.1414214), wk =   0.0017778
        k(  711) = (  -0.5892557  -0.3535534  -0.1178511), wk =   0.0008889
        k(  712) = (  -0.7071068  -0.4714045  -0.1885618), wk =   0.0008889
        k(  713) = (  -0.6835366  -0.4478343  -0.1649916), wk =   0.0017778
        k(  714) = (  -0.6599663  -0.4242641  -0.1414214), wk =   0.0017778
        k(  715) = (  -0.6363961  -0.4006938  -0.1178511), wk =   0.0017778
        k(  716) = (  -0.6128259  -0.3771236  -0.0942809), wk =   0.0017778
        k(  717) = (  -0.5892557  -0.3535534  -0.0707107), wk =   0.0017778
        k(  718) = (  -0.5656854  -0.3299832  -0.0471405), wk =   0.0017778
        k(  719) = (  -0.5421152  -0.3064129  -0.0235702), wk =   0.0017778
        k(  720) = (  -0.5185450  -0.2828427   0.0000000), wk =   0.0008889
        k(  721) = (  -0.7071068  -0.4714045  -0.1414214), wk =   0.0008889
        k(  722) = (  -0.6835366  -0.4478343  -0.1178511), wk =   0.0017778
        k(  723) = (  -0.6599663  -0.4242641  -0.0942809), wk =   0.0017778
        k(  724) = (  -0.6363961  -0.4006938  -0.0707107), wk =   0.0017778
        k(  725) = (  -0.6128259  -0.3771236  -0.0471405), wk =   0.0017778
        k(  726) = (  -0.5892557  -0.3535534  -0.0235702), wk =   0.0017778
        k(  727) = (  -0.5656854  -0.3299832   0.0000000), wk =   0.0008889
        k(  728) = (  -0.7071068  -0.4714045  -0.0942809), wk =   0.0008889
        k(  729) = (  -0.6835366  -0.4478343  -0.0707107), wk =   0.0017778
        k(  730) = (  -0.6599663  -0.4242641  -0.0471405), wk =   0.0017778
        k(  731) = (  -0.6363961  -0.4006938  -0.0235702), wk =   0.0017778
        k(  732) = (  -0.6128259  -0.3771236  -0.0000000), wk =   0.0008889
        k(  733) = (  -0.7071068  -0.4714045  -0.0471405), wk =   0.0008889
        k(  734) = (  -0.6835366  -0.4478343  -0.0235702), wk =   0.0017778
        k(  735) = (  -0.6599663  -0.4242641   0.0000000), wk =   0.0008889
        k(  736) = (  -0.0000000   0.2357023  -0.7071068), wk =   0.0004444
        k(  737) = (  -0.7071068  -0.4242641  -0.1414214), wk =   0.0008889
        k(  738) = (  -0.6835366  -0.4006938  -0.1178511), wk =   0.0017778
        k(  739) = (  -0.6599663  -0.3771236  -0.0942809), wk =   0.0017778
        k(  740) = (  -0.6363961  -0.3535534  -0.0707107), wk =   0.0008889
        k(  741) = (  -0.7071068  -0.4242641  -0.0942809), wk =   0.0008889
        k(  742) = (  -0.6835366  -0.4006938  -0.0707107), wk =   0.0017778
        k(  743) = (  -0.6599663  -0.3771236  -0.0471405), wk =   0.0017778
[...]
     0.0000

          k = 0.0000 0.1846-0.6921 (   828 PWs)   bands (ev):

     8.9078   9.3669  12.2134  12.8041  13.9500  18.9824  23.4245  24.9269
    25.3024

     occupation numbers 
     1.0000   1.0000   1.0000   1.0000   0.0000   0.0000   0.0000   0.0000
     0.0000

          k =-0.6921-0.4614-0.2307 (   834 PWs)   bands (ev):

     9.6632   9.9271  10.7720  12.4392  13.0028  15.8867  25.9125  25.9898
    29.4588

     occupation numbers 
     1.0000   1.0000   1.0000   1.0000   1.0006   0.0000   0.0000   0.0000
     0.0000

          k =-0.6691-0.4384-0.2076 (   833 PWs)   bands (ev):

     9.7016   9.9975  10.7086  12.3752  13.1716  16.5927  24.7200  25.9598
    28.8783

     occupation numbers 
     1.0000   1.0000   1.0000   1.0000   1.0443   0.0000   0.0000   0.0000
     0.0000

          k =-0.6460-0.4153-0.1846 (   831 PWs)   bands (ev):

     9.7160  10.0506  10.7045  12.2763  13.3348  17.3599  23.5289  26.0586
    28.3346

     occupation numbers 
     1.0000   1.0000   1.0000   1.0000   0.9311   0.0000   0.0000   0.0000
     0.0000

          k =-0.6229-0.3922-0.1615 (   829 PWs)   bands (ev):

     9.7343  10.0461  10.7621  12.1754  13.4605  18.1826  22.3974  26.2392
    27.8351

     occupation numbers 
     1.0000   1.0000   1.0000   1.0000   0.2999   0.0000   0.0000   0.0000
     0.0000

          k =-0.5999-0.3691-0.1384 (   828 PWs)   bands (ev):

     9.7572  10.0124  10.8329  12.0973  13.5379  19.0274  21.3652  26.4800
    27.4028

     occupation numbers 
     1.0000   1.0000   1.0000   1.0000   0.0724   0.0000   0.0000   0.0000
     0.0000

          k =-0.5768-0.3461-0.1154 (   830 PWs)   bands (ev):

     9.7693   9.9936  10.8637  12.0671  13.5639  19.5850  20.7448  26.6519
    27.1670

     occupation numbers 
     1.0000   1.0000   1.0000   1.0000   0.0393   0.0000   0.0000   0.0000
     0.0000

          k =-0.6921-0.4614-0.1846 (   829 PWs)   bands (ev):

     9.5093   9.8245  10.9911  12.5629  13.2916  16.7070  25.3850  25.4620
    27.9913

     occupation numbers 
     1.0000   1.0000   1.0000   1.0000   1.0491   0.0000   0.0000   0.0000
     0.0000

          k =-0.6691-0.4384-0.1615 (   830 PWs)   bands (ev):

     9.5386   9.9105  10.9149  12.4691  13.4345  17.4858  24.2264  25.5044
    27.4359

     occupation numbers 
     1.0000   1.0000   1.0000   1.0000   0.4240   0.0000   0.0000   0.0000
     0.0000

          k =-0.6460-0.4153-0.1384 (   829 PWs)   bands (ev):

     9.5633  10.0031  10.8568  12.3508  13.5548  18.3249  23.0850  25.6523
    26.9344

     occupation numbers 
     1.0000   1.0000   1.0000   1.0000   0.0491   0.0000   0.0000   0.0000
     0.0000

          k =-0.6229-0.3922-0.1154 (   826 PWs)   bands (ev):

     9.5936  10.0774  10.8159  12.2426  13.6300  19.2151  22.0068  25.8132
    26.5488

     occupation numbers 
     1.0000   1.0000   1.0000   1.0000   0.0061   0.0000   0.0000   0.0000
     0.0000

          k =-0.5999-0.3691-0.0923 (   831 PWs)   bands (ev):

     9.6291  10.1294  10.7747  12.1724  13.6536  20.0740  21.0779  25.7407
    26.5242

     occupation numbers 
     1.0000   1.0000   1.0000   1.0000   0.0028   0.0000   0.0000   0.0000
     0.0000

          k =-0.5768-0.3461-0.0692 (   830 PWs)   bands (ev):

     9.6651  10.1678  10.7109  12.1592  13.6252  19.8339  21.3658  25.4512
    26.8428

     occupation numbers 
     1.0000   1.0000   1.0000   1.0000   0.0071   0.0000   0.0000   0.0000
     0.0000

          k =-0.5537-0.3230-0.0461 (   830 PWs)   bands (ev):

     9.6971  10.1921  10.6298  12.2013  13.5481  18.9678  22.3946  25.1716
    27.2782

     occupation numbers 
     1.0000   1.0000   1.0000   1.0000   0.0576   0.0000   0.0000   0.0000
     0.0000

          k =-0.5306-0.2999-0.0231 (   836 PWs)   bands (ev):

     9.7225  10.1688  10.5844  12.2759  13.4307  18.1233  23.5061  24.9649
    27.7727

     occupation numbers 
     1.0000   1.0000   1.0000   1.0000   0.4438   0.0000   0.0000   0.0000
     0.0000

          k =-0.5076-0.2769 0.0000 (   831 PWs)   bands (ev):

     9.7347  10.0789  10.6203  12.3490  13.2921  17.3310  24.5558  24.9552
    28.3088

     occupation numbers 
     1.0000   1.0000   1.0000   1.0000   1.0483   0.0000   0.0000   0.0000
     0.0000

          k =-0.6921-0.4614-0.1384 (   825 PWs)   bands (ev):

     9.3513   9.7391  11.2292  12.6202  13.5531  17.6211  24.8721  25.0569
    26.6181

     occupation numbers 
     1.0000   1.0000   1.0000   1.0000   0.0512   0.0000   0.0000   0.0000
     0.0000

          k =-0.6691-0.4384-0.1154 (   827 PWs)   bands (ev):

     9.3897   9.8453  11.1220  12.4994  13.6629  18.4539  23.8163  25.0875
    26.1326

     occupation numbers 
     1.0000   1.0000   1.0000   1.0000   0.0020   0.0000   0.0000   0.0000
     0.0000

          k =-0.6460-0.4153-0.0923 (   827 PWs)   bands (ev):

     9.4334   9.9700  11.0072  12.3711  13.7358  19.3436  22.7411  25.1160
    25.8507

     occupation numbers 
     1.0000   1.0000   1.0000   1.0000   0.0001   0.0000   0.0000   0.0000
     0.0000

          k =-0.6229-0.3922-0.0692 (   831 PWs)   bands (ev):

     9.4860  10.0980  10.8784  12.2677  13.7591  20.2768  21.7268  24.8799
    25.9694

     occupation numbers 
     1.0000   1.0000   1.0000   1.0000   0.0000   0.0000   0.0000   0.0000
     0.0000

          k =-0.5999-0.3691-0.0461 (   832 PWs)   bands (ev):

     9.5464  10.2209  10.7277  12.2111  13.7313  20.6666  21.3549  24.5568
    26.3128

     occupation numbers 
     1.0000   1.0000   1.0000   1.0000   0.0001   0.0000   0.0000   0.0000
     0.0000

          k =-0.5768-0.3461-0.0231 (   829 PWs)   bands (ev):

     9.6110  10.3349  10.5560  12.2064  13.6577  19.7918  22.3202  24.3000
    26.7493

     occupation numbers 
     1.0000   1.0000   1.0000   1.0000   0.0024   0.0000   0.0000   0.0000
     0.0000

          k =-0.5537-0.3230 0.0000 (   832 PWs)   bands (ev):

     9.6739  10.3411  10.4756  12.2386  13.5501  18.9336  23.1957  24.2855
    27.2414

     occupation numbers 
     1.0000   1.0000   1.0000   1.0000   0.0549   0.0000   0.0000   0.0000
     0.0000

          k =-0.6921-0.4614-0.0923 (   824 PWs)   bands (ev):

     9.2241   9.6751  11.4481  12.6198  13.7641  18.5733  24.4781  24.5829
    25.5191

     occupation numbers 
     1.0000   1.0000   1.0000   1.0000   0.0000   0.0000   0.0000   0.0000
     0.0000

          k =-0.6691-0.4384-0.0692 (   823 PWs)   bands (ev):

     9.2817   9.8005  11.2966  12.4850  13.8337  19.4205  23.5102  24.4553
    25.3090

     occupation numbers 
     1.0000   1.0000   1.0000   1.0000   0.0000   0.0000   0.0000   0.0000
     0.0000

          k =-0.6460-0.4153-0.0461 (   829 PWs)   bands (ev):

     9.3500   9.9486  11.1206  12.3613  13.8568  20.3013  22.5213  24.1727
    25.4769

     occupation numbers 
     1.0000   1.0000   1.0000   1.0000   0.0000   0.0000   0.0000   0.0000
     0.0000

          k =-0.6229-0.3922-0.0231 (   830 PWs)   bands (ev):

     9.4295  10.1061  10.9205  12.2714  13.8300  21.1712  21.5747  23.9113
    25.8240

     occupation numbers 
     1.0000   1.0000   1.0000   1.0000   0.0000   0.0000   0.0000   0.0000
     0.0000

          k =-0.5999-0.3691-0.0000 (   829 PWs)   bands (ev):

     9.5181  10.2570  10.7081  12.2225  13.7591  20.6565  21.9302  23.8684
    26.2589

     occupation numbers 
     1.0000   1.0000   1.0000   1.0000   0.0000   0.0000   0.0000   0.0000
     0.0000

          k =-0.6921-0.4614-0.0461 (   825 PWs)   bands (ev):

     9.1430   9.6356  11.6119  12.5888  13.9022  19.4267  23.8496  24.2289
    25.0254

     occupation numbers 
     1.0000   1.0000   1.0000   1.0000   0.0000   0.0000   0.0000   0.0000
     0.0000

          k =-0.6691-0.4384-0.0231 (   826 PWs)   bands (ev):

     9.2255   9.7776  11.4012  12.4605  13.9256  20.1605  23.3000  23.7582
    25.0717

     occupation numbers 
     1.0000   1.0000   1.0000   1.0000   0.0000   0.0000   0.0000   0.0000
     0.0000

          k =-0.6460-0.4153 0.0000 (   828 PWs)   bands (ev):

     9.3215   9.9412  11.1636  12.3529  13.8995  20.7902  22.4445  23.6460
    25.3962

     occupation numbers 
     1.0000   1.0000   1.0000   1.0000   0.0000   0.0000   0.0000   0.0000
     0.0000

          k = 0.0000 0.2307-0.6921 (   832 PWs)   bands (ev):

     9.1153   9.6222  11.6754  12.5698  13.9504  19.8242  23.4369  24.1434
    24.9159

     occupation numbers 
     1.0000   1.0000   1.0000   1.0000   0.0000   0.0000   0.0000   0.0000
     0.0000

          k =-0.6921-0.4153-0.1384 (   828 PWs)   bands (ev):

     9.5556  10.0182  10.8159  12.4003  13.5508  18.2782  24.0419  24.6317
    26.8899

     occupation numbers 
     1.0000   1.0000   1.0000   1.0000   0.0540   0.0000   0.0000   0.0000
     0.0000

          k =-0.6691-0.3922-0.1154 (   830 PWs)   bands (ev):

     9.5579  10.1442  10.7273  12.3072  13.6592  19.1253  23.0885  24.6512
    26.3914

     occupation numbers 
     1.0000   1.0000   1.0000   1.0000   0.0023   0.0000   0.0000   0.0000
     0.0000

          k =-0.6460-0.3691-0.0923 (   829 PWs)   bands (ev):

     9.5574  10.2502  10.6583  12.2317  13.7322  20.0229  22.0451  24.8606
    25.9747

     occupation numbers 
     1.0000   1.0000   1.0000   1.0000   0.0001   0.0000   0.0000   0.0000
     0.0000

          k =-0.6229-0.3461-0.0692 (   832 PWs)   bands (ev):

     9.5572  10.2948  10.6288  12.2028  13.7575  20.8035  21.2125  24.9957
    25.7736

     occupation numbers 
     1.0000   1.0000   1.0000   1.0000   0.0000   0.0000   0.0000   0.0000
     0.0000

          k =-0.6921-0.4153-0.0923 (   830 PWs)   bands (ev):

     9.4169   9.9716  10.9933  12.4002  13.7622  19.2790  23.6465  24.3254
    25.6285

     occupation numbers 
     1.0000   1.0000   1.0000   1.0000   0.0000   0.0000   0.0000   0.0000
     0.0000

          k =-0.6691-0.3922-0.0692 (   830 PWs)   bands (ev):

     9.4424  10.1216  10.8511  12.3014  13.8321  20.1531  22.7859  24.3006
    25.2580

     occupation numbers 
     1.0000   1.0000   1.0000   1.0000   0.0000   0.0000   0.0000   0.0000
     0.0000

          k =-0.6460-0.3691-0.0461 (   832 PWs)   bands (ev):

     9.4704  10.2773  10.6936  12.2360  13.8563  21.0628  21.8205  24.2677
    25.1955

     occupation numbers 
     1.0000   1.0000   1.0000   1.0000   0.0000   0.0000   0.0000   0.0000
     0.0000

          k =-0.6229-0.3461-0.0231 (   831 PWs)   bands (ev):

     9.5010  10.4134  10.5360  12.2203  13.8308  20.8658  22.0011  24.0888
    25.4694

     occupation numbers 
     1.0000   1.0000   1.0000   1.0000   0.0000   0.0000   0.0000   0.0000
     0.0000

          k =-0.5999-0.3230-0.0000 (   832 PWs)   bands (ev):

     9.5321  10.3171  10.5939  12.2513  13.7604  19.9728  22.7920  24.0710
    25.8944

     occupation numbers 
     1.0000   1.0000   1.0000   1.0000   0.0000   0.0000   0.0000   0.0000
     0.0000

          k =-0.6921-0.4153-0.0461 (   831 PWs)   bands (ev):

     9.3301   9.9423  11.1227  12.3762  13.9017  20.2168  23.3958  23.8510
    24.8261

     occupation numbers 
     1.0000   1.0000   1.0000   1.0000   0.0000   0.0000   0.0000   0.0000
     0.0000

          k =-0.6691-0.3922-0.0231 (   829 PWs)   bands (ev):

     9.3831  10.1088  10.9241  12.2869  13.9258  21.0013  22.6247  23.7107
    24.7751

     occupation numbers 
     1.0000   1.0000   1.0000   1.0000   0.0000   0.0000   0.0000   0.0000
     0.0000

          k =-0.6460-0.3691-0.0000 (   832 PWs)   bands (ev):

     9.4408  10.2846  10.7095  12.2344  13.9004  21.6621  21.7391  23.7111
    25.0465

     occupation numbers 
     1.0000   1.0000   1.0000   1.0000   0.0000   0.0000   0.0000   0.0000
     0.0000

          k =-0.0000 0.2769-0.6921 (   828 PWs)   bands (ev):

     9.3007   9.9323  11.1713  12.3625  13.9507  20.6912  23.3097  23.4554
    24.6346

     occupation numbers 
     1.0000   1.0000   1.0000   1.0000   0.0000   0.0000   0.0000   0.0000
     0.0000

          k =-0.6921-0.3691-0.0461 (   828 PWs)   bands (ev):

     9.4440  10.3011  10.6785  12.2428  13.9011  20.9925  22.5350  23.7964
    24.8387

     occupation numbers 
     1.0000   1.0000   1.0000   1.0000   0.0000   0.0000   0.0000   0.0000
     0.0000

          k =-0.6691-0.3461-0.0231 (   838 PWs)   bands (ev):

     9.4440  10.4724  10.5111  12.2204  13.9258  21.8185  21.8439  23.7212
    24.6669

     occupation numbers 
     1.0000   1.0000   1.0000   1.0000   0.0000   0.0000   0.0000   0.0000
     0.0000

          k =-0.0000 0.3230-0.6921 (   840 PWs)   bands (ev):

     9.4141  10.2955  10.7096  12.2365  13.9508  21.5694  22.4465  23.4708
    24.4843

     occupation numbers 
     1.0000   1.0000   1.0000   1.0000   0.0000   0.0000   0.0000   0.0000
     0.0000

     the Fermi energy is    13.4391 ev

!    total energy              =     -57.78922269 Ry
     Harris-Foulkes estimate   =     -57.78922269 Ry
     estimated scf accuracy    <          4.3E-11 Ry

     The total energy is the sum of the following terms:

     one-electron contribution =       5.46010303 Ry
     hartree contribution      =       7.69598149 Ry
     xc contribution           =      -9.89768676 Ry
     ewald contribution        =     -61.04753657 Ry
     smearing contrib. (-TS)   =      -0.00008388 Ry

     total magnetization       =     0.48 Bohr mag/cell
     absolute magnetization    =     0.57 Bohr mag/cell

     convergence has been achieved in   8 iterations

     Forces acting on atoms (cartesian axes, Ry/au):

     atom    1 type  1   force =     0.00000000    0.00000000    0.00000000
     The non-local contrib.  to forces
     atom    1 type  1   force =     0.00000000    0.00000000   -0.00000000
     The ionic contribution  to forces
     atom    1 type  1   force =     0.00000000    0.00000000    0.00000000
     The local contribution  to forces
     atom    1 type  1   force =    -0.00000000    0.00000000   -0.00000000
     The core correction contribution to forces
     atom    1 type  1   force =     0.00000000    0.00000000    0.00000000
     The Hubbard contrib.    to forces
     atom    1 type  1   force =     0.00000000    0.00000000    0.00000000
     The SCF correction term to forces
     atom    1 type  1   force =    -0.00000000   -0.00000000   -0.00000000

     Total force =     0.000000     Total SCF correction =     0.000000


     Computing stress (Cartesian axis) and pressure

          total   stress  (Ry/bohr**3)                   (kbar)     P=   -0.60
  -0.00000407   0.00000000   0.00000000         -0.60      0.00      0.00
   0.00000000  -0.00000407  -0.00000000          0.00     -0.60     -0.00
   0.00000000  -0.00000000  -0.00000407          0.00     -0.00     -0.60

     kinetic stress (kbar)  14168.60      0.00     -0.00
                                0.00  14168.60      0.00
                               -0.00      0.00  14168.60

     local   stress (kbar)  43024.84      0.00      0.00
                                0.00  43024.84     -0.00
                                0.00     -0.00  43024.84

     nonloc. stress (kbar) -28187.42      0.00     -0.00
                                0.00 -28187.42      0.00
                               -0.00      0.00 -28187.42

     hartree stress (kbar)   3563.33      0.00      0.00
                                0.00   3563.33     -0.00
                                0.00     -0.00   3563.33

     exc-cor stress (kbar)  -4304.23      0.00      0.00
                                0.00  -4304.23      0.00
                                0.00      0.00  -4304.23

     corecor stress (kbar)      0.00      0.00      0.00
                                0.00      0.00      0.00
                                0.00      0.00      0.00

     ewald   stress (kbar) -28265.72     -0.00     -0.00
                               -0.00 -28265.72     -0.00
                               -0.00     -0.00 -28265.72

     hubbard stress (kbar)      0.00      0.00      0.00
                                0.00      0.00      0.00
                                0.00      0.00      0.00

     london  stress (kbar)      0.00      0.00      0.00
                                0.00      0.00      0.00
                                0.00      0.00      0.00

     DFT-D3  stress (kbar)      0.00      0.00      0.00
                                0.00      0.00      0.00
                                0.00      0.00      0.00

     XDM     stress (kbar)      0.00      0.00      0.00
                                0.00      0.00      0.00
                                0.00      0.00      0.00

     dft-nl  stress (kbar)      0.00      0.00      0.00
                                0.00      0.00      0.00
                                0.00      0.00      0.00

     TS-vdW  stress (kbar)      0.00      0.00      0.00
                                0.00      0.00      0.00
                                0.00      0.00      0.00


 
     init_run     :     79.90s CPU     66.92s WALL (       2 calls)
     electrons    :   5111.14s CPU   4196.35s WALL (       4 calls)
     update_pot   :      0.60s CPU      0.49s WALL (       2 calls)
     forces       :     45.37s CPU     38.23s WALL (       4 calls)
     stress       :     87.85s CPU     71.77s WALL (       4 calls)

     Called by init_run:
     wfcinit      :     78.38s CPU     65.33s WALL (       2 calls)
     wfcinit:atom :      0.71s CPU      0.69s WALL (    3008 calls)
     wfcinit:wfcr :     77.15s CPU     64.29s WALL (    3008 calls)
     potinit      :      0.20s CPU      0.17s WALL (       2 calls)
     hinit0       :      1.18s CPU      1.29s WALL (       2 calls)

     Called by electrons:
     c_bands      :   4309.98s CPU   3539.12s WALL (      38 calls)
     sum_band     :    798.54s CPU    654.98s WALL (      38 calls)
     v_of_rho     :      1.00s CPU      0.82s WALL (      40 calls)
     v_h          :      0.09s CPU      0.07s WALL (      40 calls)
     v_xc         :      0.91s CPU      0.74s WALL (      40 calls)
     newd         :      1.05s CPU      0.86s WALL (      40 calls)
     mix_rho      :      0.25s CPU      0.21s WALL (      38 calls)

     Called by c_bands:
     init_us_2    :     18.95s CPU     13.30s WALL (  129344 calls)
     cegterg      :   4178.67s CPU   3432.62s WALL (   57152 calls)

     Called by sum_band:
     sum_band:bec :      7.95s CPU      6.97s WALL (   57152 calls)
     addusdens    :      1.84s CPU      1.48s WALL (      38 calls)

     Called by *egterg:
     h_psi        :   3488.21s CPU   2863.91s WALL (  170011 calls)
     s_psi        :     16.18s CPU     12.62s WALL (  170011 calls)
     g_psi        :     10.18s CPU      8.39s WALL (  109851 calls)
     cdiaghg      :    208.43s CPU    170.33s WALL (  160987 calls)
     cegterg:over :    202.83s CPU    166.17s WALL (  109851 calls)
     cegterg:upda :     37.77s CPU     32.68s WALL (  109851 calls)
     cegterg:last :     12.01s CPU     10.46s WALL (   59867 calls)

     Called by h_psi:
     h_psi:pot    :   3471.50s CPU   2849.70s WALL (  170011 calls)
     h_psi:calbec :    152.88s CPU    124.66s WALL (  170011 calls)
     vloc_psi     :   3292.19s CPU   2702.89s WALL (  170011 calls)
     add_vuspsi   :     24.37s CPU     21.31s WALL (  170011 calls)

     General routines
     calbec       :    259.61s CPU    213.67s WALL (  257243 calls)
     fft          :      1.34s CPU      1.13s WALL (     896 calls)
     ffts         :      0.09s CPU      0.07s WALL (      76 calls)
     fftw         :   3525.97s CPU   2899.38s WALL ( 3078744 calls)
 
     Parallel routines
     fft_scatt_xy :    261.72s CPU    207.68s WALL ( 3079716 calls)
     fft_scatt_yz :   2251.90s CPU   1882.69s WALL ( 3079716 calls)
 
     PWSCF        :     1h28m CPU       28h 1m WALL

      12h
 
   This run was terminated on:  11: 2: 3  21Feb2019            

=------------------------------------------------------------------------------=
   JOB DONE.
=------------------------------------------------------------------------------=
