
     Program PWSCF v.6.3MaX starts on 21Feb2019 at  3: 7:39 

     This program is part of the open-source Quantum ESPRESSO suite
     for quantum simulation of materials; please cite
         "P. Giannozzi et al., J. Phys.:Condens. Matter 21 395502 (2009);
         "P. Giannozzi et al., J. Phys.:Condens. Matter 29 465901 (2017);
          URL http://www.quantum-espresso.org", 
     in publications or presentations arising from this work. More details at
     http://www.quantum-espresso.org/quote

 *** WARNING: using old-style file format, will disappear from next version ***

     Parallel version (MPI & OpenMP), running on      20 processor cores
     Number of MPI processes:                 5
     Threads/MPI process:                     4

     MPI processes distributed on     1 nodes
     R & G space division:  proc/nbgrp/npool/nimage =       5
     Reading input from /home/azadoks/dftman/projects/GP01 Cu Ecut/ConvergenceWorkflows/f82417787d3f/597da298fc13/pwscf.in

     Current dimensions of program PWSCF are:
     Max number of different atomic species (ntypx) = 10
     Max number of k-points (npk) =  40000
     Max angular momentum in pseudopotentials (lmaxx) =  3
     Message from routine iosys:
     minimal I/O required, wf_collect reset to FALSE

     Subspace diagonalization in iterative solution of the eigenvalue problem:
     a serial algorithm will be used

 
     Parallelization info
     --------------------
     sticks:   dense  smooth     PW     G-vecs:    dense   smooth      PW
     Min          72      72     24                  895      895     173
     Max          73      73     25                  896      896     174
     Sum         361     361    121                 4477     4477     869
 


     bravais-lattice index     =            0
     lattice parameter (alat)  =       4.8305  a.u.
     unit-cell volume          =      79.7006 (a.u.)^3
     number of atoms/cell      =            1
     number of atomic types    =            1
     number of electrons       =        11.00
     number of Kohn-Sham states=           10
     kinetic-energy cutoff     =      55.0000  Ry
     charge density cutoff     =     220.0000  Ry
     convergence threshold     =      1.0E-08
     mixing beta               =       0.7000
     number of iterations used =            8  plain     mixing
     Exchange-correlation      =  SLA  PW   PBE  PBE ( 1  4  3  4 0 0)
     nstep                     =           50


     celldm(1)=   4.830501  celldm(2)=   0.000000  celldm(3)=   0.000000
     celldm(4)=   0.000000  celldm(5)=   0.000000  celldm(6)=   0.000000

     crystal axes: (cart. coord. in units of alat)
               a(1) = (  -0.707107   0.707107   0.000000 )  
               a(2) = (  -0.707107   0.000000   0.707107 )  
               a(3) = (   0.000000   0.707107   0.707107 )  

     reciprocal axes: (cart. coord. in units 2 pi/alat)
               b(1) = ( -0.707107  0.707107 -0.707107 )  
               b(2) = ( -0.707107 -0.707107  0.707107 )  
               b(3) = (  0.707107  0.707107  0.707107 )  


     PseudoPot. # 1 for Cu read from file:
     /home/azadoks/.local/share/pseudo/DFTQE_PBE/Cu_PBE.UPF
     MD5 check sum: f96b10b0f61dc418faf9c97f6ccca034
     Pseudo is Ultrasoft + core correction, Zval = 11.0
     Generated by new atomic code, or converted to UPF format
     Using radial grid of  867 points,  6 beta functions with: 
                l(1) =   0
                l(2) =   0
                l(3) =   1
                l(4) =   1
                l(5) =   2
                l(6) =   2
     Q(r) pseudized with  8 coefficients,  rinner =    1.400   1.400   1.400
                                                       1.400   1.400

     atomic species   valence    mass     pseudopotential
        Cu            11.00    63.54600     Cu( 1.00)

     Starting magnetic structure 
     atomic species   magnetization
        Cu           0.100

     48 Sym. Ops., with inversion, found


                                    s                        frac. trans.

      isym =  1     identity                                     

 cryst.   s( 1) = (     1          0          0      )
                  (     0          1          0      )
                  (     0          0          1      )

 cart.    s( 1) = (  1.0000000 -0.0000000  0.0000000 )
                  ( -0.0000000  1.0000000 -0.0000000 )
                  ( -0.0000000 -0.0000000  1.0000000 )


      isym =  2     180 deg rotation - cart. axis [0,0,1]        

 cryst.   s( 2) = (    -1          0          0      )
                  (    -1          0          1      )
                  (    -1          1          0      )

 cart.    s( 2) = ( -1.0000000  0.0000000  0.0000000 )
                  (  0.0000000 -1.0000000 -0.0000000 )
                  (  0.0000000  0.0000000  1.0000000 )


      isym =  3     180 deg rotation - cart. axis [0,1,0]        

 cryst.   s( 3) = (     0         -1          1      )
                  (     0         -1          0      )
                  (     1         -1          0      )

 cart.    s( 3) = ( -1.0000000 -0.0000000 -0.0000000 )
                  (  0.0000000  1.0000000  0.0000000 )
                  (  0.0000000 -0.0000000 -1.0000000 )


      isym =  4     180 deg rotation - cart. axis [1,0,0]        

 cryst.   s( 4) = (     0          1         -1      )
                  (     1          0         -1      )
                  (     0          0         -1      )

 cart.    s( 4) = (  1.0000000  0.0000000 -0.0000000 )
                  ( -0.0000000 -1.0000000  0.0000000 )
                  ( -0.0000000  0.0000000 -1.0000000 )


      isym =  5     180 deg rotation - cart. axis [1,1,0]        

 cryst.   s( 5) = (    -1          0          0      )
                  (     0          0         -1      )
                  (     0         -1          0      )

 cart.    s( 5) = ( -0.0000000  1.0000000 -0.0000000 )
                  (  1.0000000 -0.0000000  0.0000000 )
                  ( -0.0000000 -0.0000000 -1.0000000 )


      isym =  6     180 deg rotation - cart. axis [1,-1,0]       

 cryst.   s( 6) = (     1          0          0      )
                  (     1         -1          0      )
                  (     1          0         -1      )

 cart.    s( 6) = (  0.0000000 -1.0000000 -0.0000000 )
                  ( -1.0000000  0.0000000  0.0000000 )
                  (  0.0000000  0.0000000 -1.0000000 )


      isym =  7      90 deg rotation - cart. axis [0,0,-1]       

 cryst.   s( 7) = (     0         -1          1      )
                  (     0          0          1      )
                  (    -1          0          1      )

 cart.    s( 7) = (  0.0000000  1.0000000  0.0000000 )
                  ( -1.0000000 -0.0000000 -0.0000000 )
                  (  0.0000000 -0.0000000  1.0000000 )


      isym =  8      90 deg rotation - cart. axis [0,0,1]        

 cryst.   s( 8) = (     0          1         -1      )
                  (    -1          1          0      )
                  (     0          1          0      )

 cart.    s( 8) = ( -0.0000000 -1.0000000  0.0000000 )
                  (  1.0000000  0.0000000 -0.0000000 )
                  ( -0.0000000  0.0000000  1.0000000 )


      isym =  9     180 deg rotation - cart. axis [1,0,1]        

 cryst.   s( 9) = (     0          0         -1      )
                  (     0         -1          0      )
                  (    -1          0          0      )

 cart.    s( 9) = (  0.0000000  0.0000000  1.0000000 )
                  ( -0.0000000 -1.0000000 -0.0000000 )
                  (  1.0000000  0.0000000 -0.0000000 )


      isym = 10     180 deg rotation - cart. axis [-1,0,1]       

 cryst.   s(10) = (    -1          1          0      )
                  (     0          1          0      )
                  (     0          1         -1      )

 cart.    s(10) = ( -0.0000000  0.0000000 -1.0000000 )
                  (  0.0000000 -1.0000000  0.0000000 )
                  ( -1.0000000  0.0000000  0.0000000 )


      isym = 11      90 deg rotation - cart. axis [0,1,0]        

 cryst.   s(11) = (     0          0          1      )
                  (    -1          0          1      )
                  (     0         -1          1      )

 cart.    s(11) = ( -0.0000000 -0.0000000  1.0000000 )
                  (  0.0000000  1.0000000 -0.0000000 )
                  ( -1.0000000 -0.0000000 -0.0000000 )


      isym = 12      90 deg rotation - cart. axis [0,-1,0]       

 cryst.   s(12) = (     1         -1          0      )
                  (     1          0         -1      )
                  (     1          0          0      )

 cart.    s(12) = (  0.0000000 -0.0000000 -1.0000000 )
                  ( -0.0000000  1.0000000  0.0000000 )
                  (  1.0000000 -0.0000000  0.0000000 )


      isym = 13     180 deg rotation - cart. axis [0,1,1]        

 cryst.   s(13) = (    -1          0          1      )
                  (     0         -1          1      )
                  (     0          0          1      )

 cart.    s(13) = ( -1.0000000  0.0000000 -0.0000000 )
                  (  0.0000000 -0.0000000  1.0000000 )
                  (  0.0000000  1.0000000 -0.0000000 )


      isym = 14     180 deg rotation - cart. axis [0,1,-1]       

 cryst.   s(14) = (     0         -1          0      )
                  (    -1          0          0      )
                  (     0          0         -1      )

 cart.    s(14) = ( -1.0000000 -0.0000000  0.0000000 )
                  (  0.0000000  0.0000000 -1.0000000 )
                  (  0.0000000 -1.0000000  0.0000000 )


      isym = 15      90 deg rotation - cart. axis [-1,0,0]       

 cryst.   s(15) = (     1          0         -1      )
                  (     1          0          0      )
                  (     1         -1          0      )

 cart.    s(15) = (  1.0000000 -0.0000000 -0.0000000 )
                  ( -0.0000000  0.0000000  1.0000000 )
                  ( -0.0000000 -1.0000000 -0.0000000 )


      isym = 16      90 deg rotation - cart. axis [1,0,0]        

 cryst.   s(16) = (     0          1          0      )
                  (     0          1         -1      )
                  (    -1          1          0      )

 cart.    s(16) = (  1.0000000  0.0000000  0.0000000 )
                  ( -0.0000000 -0.0000000 -1.0000000 )
                  ( -0.0000000  1.0000000  0.0000000 )


      isym = 17     120 deg rotation - cart. axis [-1,-1,-1]     

 cryst.   s(17) = (     0         -1          0      )
                  (     1         -1          0      )
                  (     0         -1          1      )

 cart.    s(17) = (  0.0000000  1.0000000 -0.0000000 )
                  ( -0.0000000 -0.0000000  1.0000000 )
                  (  1.0000000 -0.0000000 -0.0000000 )


      isym = 18     120 deg rotation - cart. axis [-1,1,1]       

 cryst.   s(18) = (     0          1          0      )
                  (     0          0          1      )
                  (     1          0          0      )

 cart.    s(18) = ( -0.0000000 -1.0000000 -0.0000000 )
                  (  0.0000000  0.0000000  1.0000000 )
                  ( -1.0000000  0.0000000 -0.0000000 )


      isym = 19     120 deg rotation - cart. axis [1,1,-1]       

 cryst.   s(19) = (    -1          0          1      )
                  (    -1          1          0      )
                  (    -1          0          0      )

 cart.    s(19) = ( -0.0000000  1.0000000  0.0000000 )
                  (  0.0000000 -0.0000000 -1.0000000 )
                  ( -1.0000000 -0.0000000  0.0000000 )


      isym = 20     120 deg rotation - cart. axis [1,-1,1]       

 cryst.   s(20) = (     1          0         -1      )
                  (     0          0         -1      )
                  (     0          1         -1      )

 cart.    s(20) = (  0.0000000 -1.0000000  0.0000000 )
                  ( -0.0000000  0.0000000 -1.0000000 )
                  (  1.0000000  0.0000000  0.0000000 )


      isym = 21     120 deg rotation - cart. axis [1,1,1]        

 cryst.   s(21) = (    -1          1          0      )
                  (    -1          0          0      )
                  (    -1          0          1      )

 cart.    s(21) = ( -0.0000000  0.0000000  1.0000000 )
                  (  1.0000000 -0.0000000 -0.0000000 )
                  ( -0.0000000  1.0000000 -0.0000000 )


      isym = 22     120 deg rotation - cart. axis [-1,1,-1]      

 cryst.   s(22) = (     1         -1          0      )
                  (     0         -1          1      )
                  (     0         -1          0      )

 cart.    s(22) = (  0.0000000 -0.0000000  1.0000000 )
                  ( -1.0000000  0.0000000 -0.0000000 )
                  (  0.0000000 -1.0000000 -0.0000000 )


      isym = 23     120 deg rotation - cart. axis [1,-1,-1]      

 cryst.   s(23) = (     0          0          1      )
                  (     1          0          0      )
                  (     0          1          0      )

 cart.    s(23) = (  0.0000000  0.0000000 -1.0000000 )
                  ( -1.0000000 -0.0000000  0.0000000 )
                  (  0.0000000  1.0000000  0.0000000 )


      isym = 24     120 deg rotation - cart. axis [-1,-1,1]      

 cryst.   s(24) = (     0          0         -1      )
                  (     0          1         -1      )
                  (     1          0         -1      )

 cart.    s(24) = ( -0.0000000 -0.0000000 -1.0000000 )
                  (  1.0000000  0.0000000  0.0000000 )
                  ( -0.0000000 -1.0000000  0.0000000 )


      isym = 25     inversion                                    

 cryst.   s(25) = (    -1          0          0      )
                  (     0         -1          0      )
                  (     0          0         -1      )

 cart.    s(25) = ( -1.0000000  0.0000000 -0.0000000 )
                  (  0.0000000 -1.0000000  0.0000000 )
                  (  0.0000000  0.0000000 -1.0000000 )


      isym = 26     inv. 180 deg rotation - cart. axis [0,0,1]   

 cryst.   s(26) = (     1          0          0      )
                  (     1          0         -1      )
                  (     1         -1          0      )

 cart.    s(26) = (  1.0000000 -0.0000000 -0.0000000 )
                  ( -0.0000000  1.0000000  0.0000000 )
                  ( -0.0000000 -0.0000000 -1.0000000 )


      isym = 27     inv. 180 deg rotation - cart. axis [0,1,0]   

 cryst.   s(27) = (     0          1         -1      )
                  (     0          1          0      )
                  (    -1          1          0      )

 cart.    s(27) = (  1.0000000  0.0000000  0.0000000 )
                  ( -0.0000000 -1.0000000 -0.0000000 )
                  ( -0.0000000  0.0000000  1.0000000 )


      isym = 28     inv. 180 deg rotation - cart. axis [1,0,0]   

 cryst.   s(28) = (     0         -1          1      )
                  (    -1          0          1      )
                  (     0          0          1      )

 cart.    s(28) = ( -1.0000000 -0.0000000  0.0000000 )
                  (  0.0000000  1.0000000 -0.0000000 )
                  (  0.0000000 -0.0000000  1.0000000 )


      isym = 29     inv. 180 deg rotation - cart. axis [1,1,0]   

 cryst.   s(29) = (     1          0          0      )
                  (     0          0          1      )
                  (     0          1          0      )

 cart.    s(29) = (  0.0000000 -1.0000000  0.0000000 )
                  ( -1.0000000  0.0000000 -0.0000000 )
                  (  0.0000000  0.0000000  1.0000000 )


      isym = 30     inv. 180 deg rotation - cart. axis [1,-1,0]  

 cryst.   s(30) = (    -1          0          0      )
                  (    -1          1          0      )
                  (    -1          0          1      )

 cart.    s(30) = ( -0.0000000  1.0000000  0.0000000 )
                  (  1.0000000 -0.0000000 -0.0000000 )
                  ( -0.0000000 -0.0000000  1.0000000 )


      isym = 31     inv.  90 deg rotation - cart. axis [0,0,-1]  

 cryst.   s(31) = (     0          1         -1      )
                  (     0          0         -1      )
                  (     1          0         -1      )

 cart.    s(31) = ( -0.0000000 -1.0000000 -0.0000000 )
                  (  1.0000000  0.0000000  0.0000000 )
                  ( -0.0000000  0.0000000 -1.0000000 )


      isym = 32     inv.  90 deg rotation - cart. axis [0,0,1]   

 cryst.   s(32) = (     0         -1          1      )
                  (     1         -1          0      )
                  (     0         -1          0      )

 cart.    s(32) = (  0.0000000  1.0000000 -0.0000000 )
                  ( -1.0000000 -0.0000000  0.0000000 )
                  (  0.0000000 -0.0000000 -1.0000000 )


      isym = 33     inv. 180 deg rotation - cart. axis [1,0,1]   

 cryst.   s(33) = (     0          0          1      )
                  (     0          1          0      )
                  (     1          0          0      )

 cart.    s(33) = ( -0.0000000 -0.0000000 -1.0000000 )
                  (  0.0000000  1.0000000  0.0000000 )
                  ( -1.0000000 -0.0000000  0.0000000 )


      isym = 34     inv. 180 deg rotation - cart. axis [-1,0,1]  

 cryst.   s(34) = (     1         -1          0      )
                  (     0         -1          0      )
                  (     0         -1          1      )

 cart.    s(34) = (  0.0000000 -0.0000000  1.0000000 )
                  ( -0.0000000  1.0000000 -0.0000000 )
                  (  1.0000000 -0.0000000 -0.0000000 )


      isym = 35     inv.  90 deg rotation - cart. axis [0,1,0]   

 cryst.   s(35) = (     0          0         -1      )
                  (     1          0         -1      )
                  (     0          1         -1      )

 cart.    s(35) = (  0.0000000  0.0000000 -1.0000000 )
                  ( -0.0000000 -1.0000000  0.0000000 )
                  (  1.0000000  0.0000000  0.0000000 )


      isym = 36     inv.  90 deg rotation - cart. axis [0,-1,0]  

 cryst.   s(36) = (    -1          1          0      )
                  (    -1          0          1      )
                  (    -1          0          0      )

 cart.    s(36) = ( -0.0000000  0.0000000  1.0000000 )
                  (  0.0000000 -1.0000000 -0.0000000 )
                  ( -1.0000000  0.0000000 -0.0000000 )


      isym = 37     inv. 180 deg rotation - cart. axis [0,1,1]   

 cryst.   s(37) = (     1          0         -1      )
                  (     0          1         -1      )
                  (     0          0         -1      )

 cart.    s(37) = (  1.0000000 -0.0000000  0.0000000 )
                  ( -0.0000000  0.0000000 -1.0000000 )
                  ( -0.0000000 -1.0000000  0.0000000 )


      isym = 38     inv. 180 deg rotation - cart. axis [0,1,-1]  

 cryst.   s(38) = (     0          1          0      )
                  (     1          0          0      )
                  (     0          0          1      )

 cart.    s(38) = (  1.0000000  0.0000000 -0.0000000 )
                  ( -0.0000000 -0.0000000  1.0000000 )
                  ( -0.0000000  1.0000000 -0.0000000 )


      isym = 39     inv.  90 deg rotation - cart. axis [-1,0,0]  

 cryst.   s(39) = (    -1          0          1      )
                  (    -1          0          0      )
                  (    -1          1          0      )

 cart.    s(39) = ( -1.0000000  0.0000000  0.0000000 )
                  (  0.0000000 -0.0000000 -1.0000000 )
                  (  0.0000000  1.0000000  0.0000000 )


      isym = 40     inv.  90 deg rotation - cart. axis [1,0,0]   

 cryst.   s(40) = (     0         -1          0      )
                  (     0         -1          1      )
                  (     1         -1          0      )

 cart.    s(40) = ( -1.0000000 -0.0000000 -0.0000000 )
                  (  0.0000000  0.0000000  1.0000000 )
                  (  0.0000000 -1.0000000 -0.0000000 )


      isym = 41     inv. 120 deg rotation - cart. axis [-1,-1,-1]

 cryst.   s(41) = (     0          1          0      )
                  (    -1          1          0      )
                  (     0          1         -1      )

 cart.    s(41) = ( -0.0000000 -1.0000000  0.0000000 )
                  (  0.0000000  0.0000000 -1.0000000 )
                  ( -1.0000000  0.0000000  0.0000000 )


      isym = 42     inv. 120 deg rotation - cart. axis [-1,1,1]  

 cryst.   s(42) = (     0         -1          0      )
                  (     0          0         -1      )
                  (    -1          0          0      )

 cart.    s(42) = (  0.0000000  1.0000000  0.0000000 )
                  ( -0.0000000 -0.0000000 -1.0000000 )
                  (  1.0000000 -0.0000000  0.0000000 )


      isym = 43     inv. 120 deg rotation - cart. axis [1,1,-1]  

 cryst.   s(43) = (     1          0         -1      )
                  (     1         -1          0      )
                  (     1          0          0      )

 cart.    s(43) = (  0.0000000 -1.0000000 -0.0000000 )
                  ( -0.0000000  0.0000000  1.0000000 )
                  (  1.0000000  0.0000000 -0.0000000 )


      isym = 44     inv. 120 deg rotation - cart. axis [1,-1,1]  

 cryst.   s(44) = (    -1          0          1      )
                  (     0          0          1      )
                  (     0         -1          1      )

 cart.    s(44) = ( -0.0000000  1.0000000 -0.0000000 )
                  (  0.0000000 -0.0000000  1.0000000 )
                  ( -1.0000000 -0.0000000 -0.0000000 )


      isym = 45     inv. 120 deg rotation - cart. axis [1,1,1]   

 cryst.   s(45) = (     1         -1          0      )
                  (     1          0          0      )
                  (     1          0         -1      )

 cart.    s(45) = (  0.0000000 -0.0000000 -1.0000000 )
                  ( -1.0000000  0.0000000  0.0000000 )
                  (  0.0000000 -1.0000000  0.0000000 )


      isym = 46     inv. 120 deg rotation - cart. axis [-1,1,-1] 

 cryst.   s(46) = (    -1          1          0      )
                  (     0          1         -1      )
                  (     0          1          0      )

 cart.    s(46) = ( -0.0000000  0.0000000 -1.0000000 )
                  (  1.0000000 -0.0000000  0.0000000 )
                  ( -0.0000000  1.0000000  0.0000000 )


      isym = 47     inv. 120 deg rotation - cart. axis [1,-1,-1] 

 cryst.   s(47) = (     0          0         -1      )
                  (    -1          0          0      )
                  (     0         -1          0      )

 cart.    s(47) = ( -0.0000000 -0.0000000  1.0000000 )
                  (  1.0000000  0.0000000 -0.0000000 )
                  ( -0.0000000 -1.0000000 -0.0000000 )


      isym = 48     inv. 120 deg rotation - cart. axis [-1,-1,1] 

 cryst.   s(48) = (     0          0          1      )
                  (     0         -1          1      )
                  (    -1          0          1      )

 cart.    s(48) = (  0.0000000  0.0000000  1.0000000 )
                  ( -1.0000000 -0.0000000 -0.0000000 )
                  (  0.0000000  1.0000000 -0.0000000 )


   Cartesian axes

     site n.     atom                  positions (alat units)
         1           Cu  tau(   1) = (   0.0000000   0.0000000   0.0000000  )

   Crystallographic axes

     site n.     atom                  positions (cryst. coord.)
         1           Cu  tau(   1) = (  0.0000000  0.0000000  0.0000000  )

     number of k points=    72  Marzari-Vanderbilt smearing, width (Ry)=  0.0100
                       cart. coord. in units 2pi/alat
        k(    1) = (   0.0000000   0.0000000   0.0000000), wk =   0.0005787
        k(    2) = (   0.0589256   0.0589256   0.0589256), wk =   0.0046296
        k(    3) = (   0.1178511   0.1178511   0.1178511), wk =   0.0046296
        k(    4) = (   0.1767767   0.1767767   0.1767767), wk =   0.0046296
        k(    5) = (   0.2357023   0.2357023   0.2357023), wk =   0.0046296
        k(    6) = (   0.2946278   0.2946278   0.2946278), wk =   0.0046296
        k(    7) = (  -0.3535534  -0.3535534  -0.3535534), wk =   0.0023148
        k(    8) = (   0.0000000   0.0000000   0.1178511), wk =   0.0034722
        k(    9) = (   0.0589256   0.0589256   0.1767767), wk =   0.0138889
        k(   10) = (   0.1178511   0.1178511   0.2357023), wk =   0.0138889
        k(   11) = (   0.1767767   0.1767767   0.2946278), wk =   0.0138889
        k(   12) = (   0.2357023   0.2357023   0.3535534), wk =   0.0138889
        k(   13) = (  -0.4124790  -0.4124790  -0.2946278), wk =   0.0138889
        k(   14) = (  -0.3535534  -0.3535534  -0.2357023), wk =   0.0138889
        k(   15) = (  -0.2946278  -0.2946278  -0.1767767), wk =   0.0138889
        k(   16) = (  -0.2357023  -0.2357023  -0.1178511), wk =   0.0138889
        k(   17) = (  -0.1767767  -0.1767767  -0.0589256), wk =   0.0138889
        k(   18) = (  -0.1178511  -0.1178511  -0.0000000), wk =   0.0069444
        k(   19) = (   0.0000000   0.0000000   0.2357023), wk =   0.0034722
        k(   20) = (   0.0589256   0.0589256   0.2946278), wk =   0.0138889
        k(   21) = (   0.1178511   0.1178511   0.3535534), wk =   0.0138889
        k(   22) = (   0.1767767   0.1767767   0.4124790), wk =   0.0138889
        k(   23) = (  -0.4714045  -0.4714045  -0.2357023), wk =   0.0138889
        k(   24) = (  -0.4124790  -0.4124790  -0.1767767), wk =   0.0138889
        k(   25) = (  -0.3535534  -0.3535534  -0.1178511), wk =   0.0138889
        k(   26) = (  -0.2946278  -0.2946278  -0.0589256), wk =   0.0138889
        k(   27) = (  -0.2357023  -0.2357023   0.0000000), wk =   0.0069444
        k(   28) = (   0.0000000   0.0000000   0.3535534), wk =   0.0034722
        k(   29) = (   0.0589256   0.0589256   0.4124790), wk =   0.0138889
        k(   30) = (   0.1178511   0.1178511   0.4714045), wk =   0.0138889
        k(   31) = (  -0.5303301  -0.5303301  -0.1767767), wk =   0.0138889
        k(   32) = (  -0.4714045  -0.4714045  -0.1178511), wk =   0.0138889
        k(   33) = (  -0.4124790  -0.4124790  -0.0589256), wk =   0.0138889
        k(   34) = (  -0.3535534  -0.3535534   0.0000000), wk =   0.0069444
        k(   35) = (   0.0000000   0.0000000   0.4714045), wk =   0.0034722
        k(   36) = (   0.0589256   0.0589256   0.5303301), wk =   0.0138889
        k(   37) = (  -0.5892557  -0.5892557  -0.1178511), wk =   0.0138889
        k(   38) = (  -0.5303301  -0.5303301  -0.0589256), wk =   0.0138889
        k(   39) = (  -0.4714045  -0.4714045  -0.0000000), wk =   0.0069444
        k(   40) = (   0.0000000   0.0000000   0.5892557), wk =   0.0034722
        k(   41) = (  -0.6481812  -0.6481812  -0.0589256), wk =   0.0138889
        k(   42) = (  -0.5892557  -0.5892557   0.0000000), wk =   0.0069444
        k(   43) = (   0.0000000   0.0000000  -0.7071068), wk =   0.0017361
        k(   44) = (   0.0000000   0.1178511   0.2357023), wk =   0.0138889
        k(   45) = (   0.0589256   0.1767767   0.2946278), wk =   0.0277778
        k(   46) = (   0.1178511   0.2357023   0.3535534), wk =   0.0277778
        k(   47) = (  -0.5303301  -0.4124790  -0.2946278), wk =   0.0277778
        k(   48) = (  -0.4714045  -0.3535534  -0.2357023), wk =   0.0138889
        k(   49) = (  -0.0000000   0.1178511   0.3535534), wk =   0.0138889
        k(   50) = (   0.0589256   0.1767767   0.4124790), wk =   0.0277778
        k(   51) = (  -0.5892557  -0.4714045  -0.2357023), wk =   0.0277778
        k(   52) = (  -0.5303301  -0.4124790  -0.1767767), wk =   0.0277778
        k(   53) = (  -0.4714045  -0.3535534  -0.1178511), wk =   0.0277778
        k(   54) = (  -0.4124790  -0.2946278  -0.0589256), wk =   0.0277778
        k(   55) = (  -0.3535534  -0.2357023   0.0000000), wk =   0.0138889
        k(   56) = (   0.0000000   0.1178511   0.4714045), wk =   0.0138889
        k(   57) = (  -0.6481812  -0.5303301  -0.1767767), wk =   0.0277778
        k(   58) = (  -0.5892557  -0.4714045  -0.1178511), wk =   0.0277778
        k(   59) = (  -0.5303301  -0.4124790  -0.0589256), wk =   0.0277778
        k(   60) = (  -0.4714045  -0.3535534  -0.0000000), wk =   0.0138889
        k(   61) = (  -0.7071068  -0.5892557  -0.1178511), wk =   0.0138889
        k(   62) = (  -0.6481812  -0.5303301  -0.0589256), wk =   0.0277778
        k(   63) = (  -0.5892557  -0.4714045  -0.0000000), wk =   0.0138889
        k(   64) = (   0.0000000   0.1178511  -0.7071068), wk =   0.0069444
        k(   65) = (  -0.7071068  -0.4714045  -0.2357023), wk =   0.0138889
        k(   66) = (  -0.6481812  -0.4124790  -0.1767767), wk =   0.0277778
        k(   67) = (  -0.5892557  -0.3535534  -0.1178511), wk =   0.0138889
        k(   68) = (  -0.7071068  -0.4714045  -0.1178511), wk =   0.0138889
        k(   69) = (  -0.6481812  -0.4124790  -0.0589256), wk =   0.0277778
        k(   70) = (  -0.5892557  -0.3535534   0.0000000), wk =   0.0138889
        k(   71) = (  -0.0000000   0.2357023  -0.7071068), wk =   0.0069444
        k(   72) = (   0.0000000   0.3535534  -0.7071068), wk =   0.0034722

                       cryst. coord.
        k(    1) = (   0.0000000   0.0000000   0.0000000), wk =   0.0005787
        k(    2) = (   0.0000000  -0.0000000   0.0833333), wk =   0.0046296
        k(    3) = (   0.0000000  -0.0000000   0.1666667), wk =   0.0046296
        k(    4) = (   0.0000000  -0.0000000   0.2500000), wk =   0.0046296
        k(    5) = (   0.0000000  -0.0000000   0.3333333), wk =   0.0046296
        k(    6) = (  -0.0000000   0.0000000   0.4166667), wk =   0.0046296
        k(    7) = (  -0.0000000   0.0000000  -0.5000000), wk =   0.0023148
        k(    8) = (  -0.0000000   0.0833333   0.0833333), wk =   0.0034722
        k(    9) = (   0.0000000   0.0833333   0.1666667), wk =   0.0138889
        k(   10) = (  -0.0000000   0.0833333   0.2500000), wk =   0.0138889
        k(   11) = (   0.0000000   0.0833333   0.3333333), wk =   0.0138889
        k(   12) = (  -0.0000000   0.0833333   0.4166667), wk =   0.0138889
        k(   13) = (  -0.0000000   0.0833333  -0.5000000), wk =   0.0138889
        k(   14) = (  -0.0000000   0.0833333  -0.4166667), wk =   0.0138889
        k(   15) = (  -0.0000000   0.0833333  -0.3333333), wk =   0.0138889
        k(   16) = (  -0.0000000   0.0833333  -0.2500000), wk =   0.0138889
        k(   17) = (  -0.0000000   0.0833333  -0.1666667), wk =   0.0138889
        k(   18) = (   0.0000000   0.0833333  -0.0833333), wk =   0.0069444
        k(   19) = (  -0.0000000   0.1666667   0.1666667), wk =   0.0034722
        k(   20) = (  -0.0000000   0.1666667   0.2500000), wk =   0.0138889
        k(   21) = (   0.0000000   0.1666667   0.3333333), wk =   0.0138889
        k(   22) = (  -0.0000000   0.1666667   0.4166667), wk =   0.0138889
        k(   23) = (  -0.0000000   0.1666667  -0.5000000), wk =   0.0138889
        k(   24) = (  -0.0000000   0.1666667  -0.4166667), wk =   0.0138889
        k(   25) = (  -0.0000000   0.1666667  -0.3333333), wk =   0.0138889
        k(   26) = (   0.0000000   0.1666667  -0.2500000), wk =   0.0138889
        k(   27) = (  -0.0000000   0.1666667  -0.1666667), wk =   0.0069444
        k(   28) = (   0.0000000   0.2500000   0.2500000), wk =   0.0034722
        k(   29) = (   0.0000000   0.2500000   0.3333333), wk =   0.0138889
        k(   30) = (  -0.0000000   0.2500000   0.4166667), wk =   0.0138889
        k(   31) = (   0.0000000   0.2500000  -0.5000000), wk =   0.0138889
        k(   32) = (  -0.0000000   0.2500000  -0.4166667), wk =   0.0138889
        k(   33) = (  -0.0000000   0.2500000  -0.3333333), wk =   0.0138889
        k(   34) = (  -0.0000000   0.2500000  -0.2500000), wk =   0.0069444
        k(   35) = (  -0.0000000   0.3333333   0.3333333), wk =   0.0034722
        k(   36) = (  -0.0000000   0.3333333   0.4166667), wk =   0.0138889
        k(   37) = (   0.0000000   0.3333333  -0.5000000), wk =   0.0138889
        k(   38) = (  -0.0000000   0.3333333  -0.4166667), wk =   0.0138889
        k(   39) = (   0.0000000   0.3333333  -0.3333333), wk =   0.0069444
        k(   40) = (   0.0000000   0.4166667   0.4166667), wk =   0.0034722
        k(   41) = (  -0.0000000   0.4166667  -0.5000000), wk =   0.0138889
        k(   42) = (   0.0000000   0.4166667  -0.4166667), wk =   0.0069444
        k(   43) = (   0.0000000  -0.5000000  -0.5000000), wk =   0.0017361
        k(   44) = (   0.0833333   0.1666667   0.2500000), wk =   0.0138889
        k(   45) = (   0.0833333   0.1666667   0.3333333), wk =   0.0277778
        k(   46) = (   0.0833333   0.1666667   0.4166667), wk =   0.0277778
        k(   47) = (   0.0833333   0.1666667  -0.5000000), wk =   0.0277778
        k(   48) = (   0.0833333   0.1666667  -0.4166667), wk =   0.0138889
        k(   49) = (   0.0833333   0.2500000   0.3333333), wk =   0.0138889
        k(   50) = (   0.0833333   0.2500000   0.4166667), wk =   0.0277778
        k(   51) = (   0.0833333   0.2500000  -0.5000000), wk =   0.0277778
        k(   52) = (   0.0833333   0.2500000  -0.4166667), wk =   0.0277778
        k(   53) = (   0.0833333   0.2500000  -0.3333333), wk =   0.0277778
        k(   54) = (   0.0833333   0.2500000  -0.2500000), wk =   0.0277778
        k(   55) = (   0.0833333   0.2500000  -0.1666667), wk =   0.0138889
        k(   56) = (   0.0833333   0.3333333   0.4166667), wk =   0.0138889
        k(   57) = (   0.0833333   0.3333333  -0.5000000), wk =   0.0277778
        k(   58) = (   0.0833333   0.3333333  -0.4166667), wk =   0.0277778
        k(   59) = (   0.0833333   0.3333333  -0.3333333), wk =   0.0277778
        k(   60) = (   0.0833333   0.3333333  -0.2500000), wk =   0.0138889
        k(   61) = (   0.0833333   0.4166667  -0.5000000), wk =   0.0138889
        k(   62) = (   0.0833333   0.4166667  -0.4166667), wk =   0.0277778
        k(   63) = (   0.0833333   0.4166667  -0.3333333), wk =   0.0138889
        k(   64) = (   0.0833333  -0.5000000  -0.4166667), wk =   0.0069444
        k(   65) = (   0.1666667   0.3333333  -0.5000000), wk =   0.0138889
        k(   66) = (   0.1666667   0.3333333  -0.4166667), wk =   0.0277778
        k(   67) = (   0.1666667   0.3333333  -0.3333333), wk =   0.0138889
        k(   68) = (   0.1666667   0.4166667  -0.4166667), wk =   0.0138889
        k(   69) = (   0.1666667   0.4166667  -0.3333333), wk =   0.0277778
        k(   70) = (   0.1666667   0.4166667  -0.2500000), wk =   0.0138889
        k(   71) = (   0.1666667  -0.5000000  -0.3333333), wk =   0.0069444
        k(   72) = (   0.2500000  -0.5000000  -0.2500000), wk =   0.0034722

     Dense  grid:     4477 G-vectors     FFT dimensions: (  24,  24,  24)

     Dynamical RAM for                 wfc:       0.02 MB

     Dynamical RAM for     wfc (w. buffer):       2.41 MB

     Dynamical RAM for           str. fact:       0.01 MB

     Dynamical RAM for           local pot:       0.00 MB

     Dynamical RAM for          nlocal pot:       0.03 MB

     Dynamical RAM for                qrad:       1.83 MB

     Dynamical RAM for          rho,v,vnew:       0.21 MB

     Dynamical RAM for               rhoin:       0.07 MB

     Dynamical RAM for            rho*nmix:       0.44 MB

     Dynamical RAM for           G-vectors:       0.06 MB

     Dynamical RAM for          h,s,v(r/c):       0.07 MB

     Dynamical RAM for          <psi|beta>:       0.00 MB

     Dynamical RAM for                 psi:       0.07 MB

     Dynamical RAM for                hpsi:       0.07 MB

     Dynamical RAM for                spsi:       0.07 MB

     Dynamical RAM for      wfcinit/wfcrot:       0.04 MB

     Dynamical RAM for           addusdens:       2.57 MB

     Dynamical RAM for          addusforce:       2.58 MB

     Dynamical RAM for         addusstress:       2.77 MB

     Estimated static dynamical RAM per process >       5.23 MB

     Estimated max dynamical RAM per process >       7.99 MB

     Estimated total dynamical RAM >      39.96 MB
     Generating pointlists ...
     new r_m :   0.4125 (alat units)  1.9926 (a.u.) for type    1

     Initial potential from superposition of free atoms

     starting charge   10.98818, renormalised to   11.00000
     Starting wfcs are    9 randomized atomic wfcs +    1 random wfcs

     total cpu time spent up to now is        5.2 secs

     Self-consistent Calculation

     iteration #  1     ecut=    55.00 Ry     beta= 0.70
     Davidson diagonalization with overlap
     ethr =  1.00E-02,  avg # of iterations =  3.9

     total cpu time spent up to now is       22.4 secs

     total energy              =    -121.39900181 Ry
     Harris-Foulkes estimate   =    -121.50220180 Ry
     estimated scf accuracy    <       0.16798107 Ry

     total magnetization       =     0.17 Bohr mag/cell
     absolute magnetization    =     0.17 Bohr mag/cell

     iteration #  2     ecut=    55.00 Ry     beta= 0.70
     Davidson diagonalization with overlap
     ethr =  1.53E-03,  avg # of iterations =  2.0

     total cpu time spent up to now is       37.4 secs

     total energy              =    -121.42032163 Ry
     Harris-Foulkes estimate   =    -121.59426146 Ry
     estimated scf accuracy    <       0.43097672 Ry

     total magnetization       =     0.03 Bohr mag/cell
     absolute magnetization    =     0.03 Bohr mag/cell

     iteration #  3     ecut=    55.00 Ry     beta= 0.70
     Davidson diagonalization with overlap
     ethr =  1.53E-03,  avg # of iterations =  2.0

     total cpu time spent up to now is       52.0 secs

     total energy              =    -121.48863778 Ry
     Harris-Foulkes estimate   =    -121.48758202 Ry
     estimated scf accuracy    <       0.00352744 Ry

     total magnetization       =     0.04 Bohr mag/cell
     absolute magnetization    =     0.05 Bohr mag/cell

     iteration #  4     ecut=    55.00 Ry     beta= 0.70
     Davidson diagonalization with overlap
     ethr =  3.21E-05,  avg # of iterations =  2.5

     total cpu time spent up to now is       68.4 secs

     total energy              =    -121.48898891 Ry
     Harris-Foulkes estimate   =    -121.48935487 Ry
     estimated scf accuracy    <       0.00086484 Ry

     total magnetization       =    -0.00 Bohr mag/cell
     absolute magnetization    =     0.01 Bohr mag/cell

     iteration #  5     ecut=    55.00 Ry     beta= 0.70
     Davidson diagonalization with overlap
     ethr =  7.86E-06,  avg # of iterations =  1.5

     total cpu time spent up to now is       82.0 secs

     total energy              =    -121.48917818 Ry
     Harris-Foulkes estimate   =    -121.48918770 Ry
     estimated scf accuracy    <       0.00002437 Ry

     total magnetization       =    -0.00 Bohr mag/cell
     absolute magnetization    =     0.00 Bohr mag/cell

     iteration #  6     ecut=    55.00 Ry     beta= 0.70
     Davidson diagonalization with overlap
     ethr =  2.22E-07,  avg # of iterations =  2.4

     total cpu time spent up to now is       96.0 secs

     total energy              =    -121.48918575 Ry
     Harris-Foulkes estimate   =    -121.48918609 Ry
     estimated scf accuracy    <       0.00000149 Ry

     total magnetization       =     0.00 Bohr mag/cell
     absolute magnetization    =     0.00 Bohr mag/cell

     iteration #  7     ecut=    55.00 Ry     beta= 0.70
     Davidson diagonalization with overlap
     ethr =  1.36E-08,  avg # of iterations =  1.7

     total cpu time spent up to now is      108.2 secs

     total energy              =    -121.48918599 Ry
     Harris-Foulkes estimate   =    -121.48918600 Ry
     estimated scf accuracy    <       0.00000006 Ry

     total magnetization       =    -0.00 Bohr mag/cell
     absolute magnetization    =     0.00 Bohr mag/cell

     iteration #  8     ecut=    55.00 Ry     beta= 0.70
     Davidson diagonalization with overlap
     ethr =  5.38E-10,  avg # of iterations =  2.3
 
     Magnetic moment per site:
     atom:    1    charge:    9.8311    magn:    0.0000    constr:    0.0000

     total cpu time spent up to now is      123.3 secs

     End of self-consistent calculation

 ------ SPIN UP ------------


          k = 0.0000 0.0000 0.0000 (   537 PWs)   bands (ev):

     3.2369   9.6135   9.6135   9.6135  10.4326  10.4326  35.2853  37.8636
    37.8636  37.8636

     occupation numbers 
     1.0000   1.0000   1.0000   1.0000   1.0000   1.0000   0.0000   0.0000
     0.0000   0.0000

          k = 0.0589 0.0589 0.0589 (   537 PWs)   bands (ev):

     3.4893   9.5607   9.6599   9.6599  10.4152  10.4152  33.5152  36.1237
    37.1687  37.1687

     occupation numbers 
     1.0000   1.0000   1.0000   1.0000   1.0000   1.0000   0.0000   0.0000
     0.0000   0.0000

          k = 0.1179 0.1179 0.1179 (   552 PWs)   bands (ev):

     4.2261   9.4368   9.7519   9.7519  10.4072  10.4072  29.2567  35.6950
    36.1824  36.1824

     occupation numbers 
     1.0000   1.0000   1.0000   1.0000   1.0000   1.0000   0.0000   0.0000
     0.0000   0.0000

          k = 0.1768 0.1768 0.1768 (   549 PWs)   bands (ev):

     5.3618   9.3555   9.7675   9.7675  10.5185  10.5185  25.0532  35.1391
    35.4312  35.4312

     occupation numbers 
     1.0000   1.0000   1.0000   1.0000   1.0000   1.0000   0.0000   0.0000
     0.0000   0.0000

          k = 0.2357 0.2357 0.2357 (   555 PWs)   bands (ev):

     6.6153   9.5972   9.6898   9.6898  10.7378  10.7378  21.2205  34.4646
    34.9606  34.9606

     occupation numbers 
     1.0000   1.0000   1.0000   1.0000   1.0000   1.0000   0.0000   0.0000
     0.0000   0.0000

          k = 0.2946 0.2946 0.2946 (   556 PWs)   bands (ev):

     7.3738   9.6076   9.6076  10.6262  10.9340  10.9340  17.9999  33.9425
    34.7367  34.7367

     occupation numbers 
     1.0000   1.0000   1.0000   1.0000   1.0000   1.0000   0.0000   0.0000
     0.0000   0.0000

          k =-0.3536-0.3536-0.3536 (   568 PWs)   bands (ev):

     7.5469   9.5749   9.5749  11.0107  11.0107  11.5877  16.3828  33.7501
    34.6808  34.6808

     occupation numbers 
     1.0000   1.0000   1.0000   1.0000   1.0000   1.0000   0.0000   0.0000
     0.0000   0.0000

          k = 0.0000 0.0000 0.1179 (   540 PWs)   bands (ev):

     3.5731   9.5144   9.6933   9.6933  10.3435  10.4688  34.2953  35.4397
    35.4397  36.6525

     occupation numbers 
     1.0000   1.0000   1.0000   1.0000   1.0000   1.0000   0.0000   0.0000
     0.0000   0.0000

          k = 0.0589 0.0589 0.1768 (   549 PWs)   bands (ev):

     4.1478   9.3929   9.7869   9.7924  10.2706  10.5046  30.8691  34.0669
    34.5471  37.6113

     occupation numbers 
     1.0000   1.0000   1.0000   1.0000   1.0000   1.0000   0.0000   0.0000
     0.0000   0.0000

          k = 0.1179 0.1179 0.2357 (   553 PWs)   bands (ev):

     5.1551   9.2688   9.7922   9.8491  10.3653  10.6038  26.5952  33.1051
    33.9545  37.4635

     occupation numbers 
     1.0000   1.0000   1.0000   1.0000   1.0000   1.0000   0.0000   0.0000
     0.0000   0.0000

          k = 0.1768 0.1768 0.2946 (   551 PWs)   bands (ev):

     6.4031   9.3014   9.6713   9.8037  10.7053  10.7913  22.6171  32.5844
    33.3926  35.4395

     occupation numbers 
     1.0000   1.0000   1.0000   1.0000   1.0000   1.0000   0.0000   0.0000
     0.0000   0.0000

          k = 0.2357 0.2357 0.3536 (   547 PWs)   bands (ev):

     7.3585   9.5372   9.7185   9.7982  10.9621  11.3078  19.1252  32.5465
    32.7006  34.1117

     occupation numbers 
     1.0000   1.0000   1.0000   1.0000   1.0000   1.0000   0.0000   0.0000
     0.0000   0.0000

          k =-0.4125-0.4125-0.2946 (   558 PWs)   bands (ev):

     7.6663   9.4868   9.6598  10.3186  11.0159  12.3244  16.6732  31.7622
    33.0384  33.8041

     occupation numbers 
     1.0000   1.0000   1.0000   1.0000   1.0000   1.0819   0.0000   0.0000
     0.0000   0.0000

          k =-0.3536-0.3536-0.2357 (   557 PWs)   bands (ev):

     7.6182   9.5121   9.6605  10.2496  10.9149  12.0342  17.2876  31.0576
    34.0853  34.1547

     occupation numbers 
     1.0000   1.0000   1.0000   1.0000   1.0000   1.0001   0.0000   0.0000
     0.0000   0.0000

          k =-0.2946-0.2946-0.1768 (   551 PWs)   bands (ev):

     7.1197   9.6038   9.6133   9.7246  10.6878  11.2373  20.2240  30.7880
    34.9905  35.6602

     occupation numbers 
     1.0000   1.0000   1.0000   1.0000   1.0000   1.0000   0.0000   0.0000
     0.0000   0.0000

          k =-0.2357-0.2357-0.1179 (   553 PWs)   bands (ev):

     5.9864   9.2839   9.7194   9.8206  10.4207  10.8441  23.9044  30.9596
    36.1936  37.5774

     occupation numbers 
     1.0000   1.0000   1.0000   1.0000   1.0000   1.0000   0.0000   0.0000
     0.0000   0.0000

          k =-0.1768-0.1768-0.0589 (   552 PWs)   bands (ev):

     4.7786   9.3303   9.7827   9.8404  10.2719  10.5905  27.9981  31.5462
    37.3054  38.7055

     occupation numbers 
     1.0000   1.0000   1.0000   1.0000   1.0000   1.0000   0.0000   0.0000
     0.0000   0.0000

          k =-0.1179-0.1179-0.0000 (   545 PWs)   bands (ev):

     3.9034   9.4670   9.7295   9.7377  10.3254  10.4699  31.9867  32.8789
    37.2030  38.8043

     occupation numbers 
     1.0000   1.0000   1.0000   1.0000   1.0000   1.0000   0.0000   0.0000
     0.0000   0.0000

          k = 0.0000 0.0000 0.2357 (   548 PWs)   bands (ev):

     4.5484   9.2477   9.9248   9.9248  10.1230  10.5686  32.3873  32.3873
    32.7875  34.4623

     occupation numbers 
     1.0000   1.0000   1.0000   1.0000   1.0000   1.0000   0.0000   0.0000
     0.0000   0.0000

          k = 0.0589 0.0589 0.2946 (   551 PWs)   bands (ev):

     5.3841   9.0872   9.8650  10.0456  10.2720  10.6590  28.4651  31.1731
    32.7470  34.2106

     occupation numbers 
     1.0000   1.0000   1.0000   1.0000   1.0000   1.0000   0.0000   0.0000
     0.0000   0.0000

          k = 0.1179 0.1179 0.3536 (   556 PWs)   bands (ev):

     6.5127   8.9912   9.6585  10.0506  10.7666  10.8288  24.4001  30.4635
    31.4634  33.3109

     occupation numbers 
     1.0000   1.0000   1.0000   1.0000   1.0000   1.0000   0.0000   0.0000
     0.0000   0.0000

          k = 0.1768 0.1768 0.4125 (   544 PWs)   bands (ev):

     7.5342   9.0811   9.5274   9.9770  10.9890  11.6401  20.7003  29.7889
    30.3055  32.9318

     occupation numbers 
     1.0000   1.0000   1.0000   1.0000   1.0000   1.0000   0.0000   0.0000
     0.0000   0.0000

          k =-0.4714-0.4714-0.2357 (   556 PWs)   bands (ev):

     7.9706   9.1988   9.6870   9.8998  11.0305  13.0915  17.6347  28.3597
    30.7386  32.9623

     occupation numbers 
     1.0000   1.0000   1.0000   1.0000   1.0000   0.0000   0.0000   0.0000
     0.0000   0.0000

          k =-0.4125-0.4125-0.1768 (   555 PWs)   bands (ev):

     8.0296   9.2474   9.7710   9.8641  10.9131  13.6133  16.9423  27.3554
    31.7697  33.3867

     occupation numbers 
     1.0000   1.0000   1.0000   1.0000   1.0000   0.0000   0.0000   0.0000
     0.0000   0.0000

          k =-0.3536-0.3536-0.1179 (   549 PWs)   bands (ev):

     7.7924   9.3686   9.4461   9.8905  10.6644  12.2732  19.6145  26.8335
    33.3611  34.2551

     occupation numbers 
     1.0000   1.0000   1.0000   1.0000   1.0000   1.0672   0.0000   0.0000
     0.0000   0.0000

          k =-0.2946-0.2946-0.0589 (   547 PWs)   bands (ev):

     6.9290   9.1526   9.5572   9.9780  10.3546  11.4142  23.1478  26.8081
    35.4398  35.5984

     occupation numbers 
     1.0000   1.0000   1.0000   1.0000   1.0000   1.0000   0.0000   0.0000
     0.0000   0.0000

          k =-0.2357-0.2357 0.0000 (   554 PWs)   bands (ev):

     5.7454   9.1880   9.7183  10.0385  10.1343  10.9134  26.8368  27.5345
    37.3412  37.9064

     occupation numbers 
     1.0000   1.0000   1.0000   1.0000   1.0000   1.0000   0.0000   0.0000
     0.0000   0.0000

          k = 0.0000 0.0000 0.3536 (   560 PWs)   bands (ev):

     6.0044   8.8928   9.9683  10.2775  10.2775  10.7062  29.7031  29.7031
    30.9505  31.5949

     occupation numbers 
     1.0000   1.0000   1.0000   1.0000   1.0000   1.0000   0.0000   0.0000
     0.0000   0.0000

          k = 0.0589 0.0589 0.4125 (   554 PWs)   bands (ev):

     6.8746   8.7411   9.8707  10.3801  10.7562  10.8392  26.4396  28.7602
    28.7856  32.0851

     occupation numbers 
     1.0000   1.0000   1.0000   1.0000   1.0000   1.0000   0.0000   0.0000
     0.0000   0.0000

          k = 0.1179 0.1179 0.4714 (   547 PWs)   bands (ev):

     7.7003   8.6925   9.7200  10.3347  11.0054  11.8168  22.6976  26.7903
    28.4109  32.1288

     occupation numbers 
     1.0000   1.0000   1.0000   1.0000   1.0000   1.0000   0.0000   0.0000
     0.0000   0.0000

          k =-0.5303-0.5303-0.1768 (   550 PWs)   bands (ev):

     8.1898   8.7641   9.6284  10.2490  11.0519  13.5602  19.3199  25.1708
    28.6998  32.2190

     occupation numbers 
     1.0000   1.0000   1.0000   1.0000   1.0000   0.0000   0.0000   0.0000
     0.0000   0.0000

          k =-0.4714-0.4714-0.1179 (   551 PWs)   bands (ev):

     8.4035   8.8699   9.5512  10.1749  10.9351  15.3573  17.0546  23.9897
    29.6223  32.5682

     occupation numbers 
     1.0000   1.0000   1.0000   1.0000   1.0000   0.0000   0.0000   0.0000
     0.0000   0.0000

          k =-0.4125-0.4125-0.0589 (   545 PWs)   bands (ev):

     8.4034   9.0454   9.3180  10.1335  10.6957  13.8051  19.3104  23.3084
    31.1184  33.2563

     occupation numbers 
     1.0000   1.0000   1.0000   1.0000   1.0000   0.0000   0.0000   0.0000
     0.0000   0.0000

          k =-0.3536-0.3536 0.0000 (   548 PWs)   bands (ev):

     7.9093   9.1046   9.3064  10.1047  10.4399  12.3250  22.3210  23.5101
    33.0947  34.3115

     occupation numbers 
     1.0000   1.0000   1.0000   1.0000   1.0000   1.0818   0.0000   0.0000
     0.0000   0.0000

          k = 0.0000 0.0000 0.4714 (   556 PWs)   bands (ev):

     7.3231   8.5485  10.5326  10.6830  10.6830  10.8456  26.2590  27.5720
    27.5720  30.7932

     occupation numbers 
     1.0000   1.0000   1.0000   1.0000   1.0000   1.0000   0.0000   0.0000
     0.0000   0.0000

          k = 0.0589 0.0589 0.5303 (   549 PWs)   bands (ev):

     7.7136   8.4482  10.4298  10.7080  11.0045  11.9133  24.1333  24.9497
    26.9934  31.3402

     occupation numbers 
     1.0000   1.0000   1.0000   1.0000   1.0000   1.0000   0.0000   0.0000
     0.0000   0.0000

          k =-0.5893-0.5893-0.1179 (   548 PWs)   bands (ev):

     8.0319   8.4680  10.1604  10.6247  11.0785  13.8249  21.5614  22.4762
    27.0912  31.6345

     occupation numbers 
     1.0000   1.0000   1.0000   1.0000   1.0000   0.0000   0.0000   0.0000
     0.0000   0.0000

          k =-0.5303-0.5303-0.0589 (   547 PWs)   bands (ev):

     8.3252   8.5825   9.8341  10.5139  10.9864  16.1632  18.5214  21.3014
    27.8657  31.9356

     occupation numbers 
     1.0000   1.0000   1.0000   1.0000   1.0000   0.0000   0.0000   0.0000
     0.0000   0.0000

          k =-0.4714-0.4714-0.0000 (   544 PWs)   bands (ev):

     8.5799   8.7422   9.4784  10.3605  10.8143  15.8617  18.5388  21.0947
    29.2450  32.4585

     occupation numbers 
     1.0000   1.0000   1.0000   1.0000   1.0000   0.0000   0.0000   0.0000
     0.0000   0.0000

          k = 0.0000 0.0000 0.5893 (   556 PWs)   bands (ev):

     7.7210   8.3029  10.9487  11.0229  11.0229  12.4895  22.0056  26.1727
    26.1727  30.3407

     occupation numbers 
     1.0000   1.0000   1.0000   1.0000   1.0000   0.4914   0.0000   0.0000
     0.0000   0.0000

          k =-0.6482-0.6482-0.0589 (   548 PWs)   bands (ev):

     7.8225   8.2823  10.8434  10.9039  11.1185  14.0018  20.4943  24.1003
    26.0453  31.0049

     occupation numbers 
     1.0000   1.0000   1.0000   1.0000   1.0000   0.0000   0.0000   0.0000
     0.0000   0.0000

          k =-0.5893-0.5893 0.0000 (   546 PWs)   bands (ev):

     8.0353   8.3897  10.3711  10.7730  11.0695  15.5692  19.9656  21.2022
    26.6330  31.4858

     occupation numbers 
     1.0000   1.0000   1.0000   1.0000   1.0000   0.0000   0.0000   0.0000
     0.0000   0.0000

          k = 0.0000 0.0000-0.7071 (   556 PWs)   bands (ev):

     7.7445   8.2143  10.9867  11.1587  11.1587  14.0858  19.7315  25.6799
    25.6799  30.1952

     occupation numbers 
     1.0000   1.0000   1.0000   1.0000   1.0000   0.0000   0.0000   0.0000
     0.0000   0.0000

          k = 0.0000 0.1179 0.2357 (   554 PWs)   bands (ev):

     4.8592   9.2478   9.8201   9.9350  10.2068  10.6180  29.4869  30.1464
    36.1155  36.3560

     occupation numbers 
     1.0000   1.0000   1.0000   1.0000   1.0000   1.0000   0.0000   0.0000
     0.0000   0.0000

          k = 0.0589 0.1768 0.2946 (   548 PWs)   bands (ev):

     5.9464   9.1289   9.6985  10.0018  10.3439  10.8867  25.5727  29.1303
    34.4345  36.4014

     occupation numbers 
     1.0000   1.0000   1.0000   1.0000   1.0000   1.0000   0.0000   0.0000
     0.0000   0.0000

          k = 0.1179 0.2357 0.3536 (   550 PWs)   bands (ev):

     7.1211   9.1925   9.5315   9.9256  10.6619  11.3725  21.7307  28.8288
    32.5250  35.8107

     occupation numbers 
     1.0000   1.0000   1.0000   1.0000   1.0000   1.0000   0.0000   0.0000
     0.0000   0.0000

          k =-0.5303-0.4125-0.2946 (   549 PWs)   bands (ev):

     7.7905   9.3467   9.6518   9.8505  10.9029  12.3661  18.4168  28.9968
    30.9438  35.3338

     occupation numbers 
     1.0000   1.0000   1.0000   1.0000   1.0000   1.0368   0.0000   0.0000
     0.0000   0.0000

          k =-0.4714-0.3536-0.2357 (   552 PWs)   bands (ev):

     7.9295   9.3070   9.8041   9.9077  10.9789  13.4265  16.5731  29.4422
    30.0142  35.1549

     occupation numbers 
     1.0000   1.0000   1.0000   1.0000   1.0000   0.0000   0.0000   0.0000
     0.0000   0.0000

          k =-0.0000 0.1179 0.3536 (   549 PWs)   bands (ev):

     6.2751   8.9299   9.7281  10.2787  10.3803  10.8788  27.3150  27.8426
    31.5026  34.4576

     occupation numbers 
     1.0000   1.0000   1.0000   1.0000   1.0000   1.0000   0.0000   0.0000
     0.0000   0.0000

          k = 0.0589 0.1768 0.4125 (   550 PWs)   bands (ev):

     7.3117   8.8567   9.5324  10.2700  10.6987  11.4603  23.6244  27.1536
    29.3958  34.8329

     occupation numbers 
     1.0000   1.0000   1.0000   1.0000   1.0000   1.0000   0.0000   0.0000
     0.0000   0.0000

          k =-0.5893-0.4714-0.2357 (   548 PWs)   bands (ev):

     8.0471   8.9323   9.4297  10.1730  10.9335  12.6864  20.0793  27.1332
    27.6921  34.8109

     occupation numbers 
     1.0000   1.0000   1.0000   1.0000   1.0000   0.0086   0.0000   0.0000
     0.0000   0.0000

          k =-0.5303-0.4125-0.1768 (   548 PWs)   bands (ev):

     8.2992   8.9806   9.5311  10.0844  10.9757  14.4824  17.2568  26.2240
    27.8330  35.0571

     occupation numbers 
     1.0000   1.0000   1.0000   1.0000   1.0000   0.0000   0.0000   0.0000
     0.0000   0.0000

          k =-0.4714-0.3536-0.1179 (   547 PWs)   bands (ev):

     8.3027   9.0494   9.4457  10.0711  10.8585  13.9511  18.0626  25.3556
    28.9049  35.7164

     occupation numbers 
     1.0000   1.0000   1.0000   1.0000   1.0000   0.0000   0.0000   0.0000
     0.0000   0.0000

          k =-0.4125-0.2946-0.0589 (   549 PWs)   bands (ev):

     7.9492   9.0809   9.2872  10.1380  10.6095  12.3794  21.2261  24.9875
    30.4319  36.8430

     occupation numbers 
     1.0000   1.0000   1.0000   1.0000   1.0000   1.0057   0.0000   0.0000
     0.0000   0.0000

          k =-0.3536-0.2357 0.0000 (   541 PWs)   bands (ev):

     7.0086   9.0207   9.5007  10.2156  10.3092  11.4404  24.6186  25.4257
    32.3421  38.5738

     occupation numbers 
     1.0000   1.0000   1.0000   1.0000   1.0000   1.0000   0.0000   0.0000
     0.0000   0.0000

          k = 0.0000 0.1179 0.4714 (   547 PWs)   bands (ev):

     7.5374   8.6162   9.8809  10.6811  10.7220  11.5105  25.5551  25.9823
    26.6422  33.2649

     occupation numbers 
     1.0000   1.0000   1.0000   1.0000   1.0000   1.0000   0.0000   0.0000
     0.0000   0.0000

          k =-0.6482-0.5303-0.1768 (   550 PWs)   bands (ev):

     8.0459   8.6052   9.7494  10.5720  10.9612  12.9350  22.2029  24.6429
    25.7652  33.9155

     occupation numbers 
     1.0000   1.0000   1.0000   1.0000   1.0000   0.0000   0.0000   0.0000
     0.0000   0.0000

          k =-0.5893-0.4714-0.1179 (   550 PWs)   bands (ev):

     8.3712   8.6810   9.5977  10.4252  11.0169  15.0324  18.9932  23.1917
    26.1988  34.2494

     occupation numbers 
     1.0000   1.0000   1.0000   1.0000   1.0000   0.0000   0.0000   0.0000
     0.0000   0.0000

          k =-0.5303-0.4125-0.0589 (   545 PWs)   bands (ev):

     8.6293   8.7406   9.3937  10.3177  10.9055  15.9877  17.9242  22.2236
    27.1816  34.8624

     occupation numbers 
     1.0000   1.0000   1.0000   1.0000   1.0000   0.0000   0.0000   0.0000
     0.0000   0.0000

          k =-0.4714-0.3536-0.0000 (   550 PWs)   bands (ev):

     8.5516   8.9759   9.1286  10.2693  10.7096  13.9142  20.4934  22.1878
    28.6191  35.8360

     occupation numbers 
     1.0000   1.0000   1.0000   1.0000   1.0000   0.0000   0.0000   0.0000
     0.0000   0.0000

          k =-0.7071-0.5893-0.1179 (   546 PWs)   bands (ev):

     7.8889   8.3907  10.4016  10.8730  11.0219  13.2790  22.2239  24.3686
    24.9025  32.5790

     occupation numbers 
     1.0000   1.0000   1.0000   1.0000   1.0000   0.0000   0.0000   0.0000
     0.0000   0.0000

          k =-0.6482-0.5303-0.0589 (   546 PWs)   bands (ev):

     8.1043   8.4622  10.1236  10.7110  11.0992  15.2336  20.8268  21.4640
    24.9795  33.4858

     occupation numbers 
     1.0000   1.0000   1.0000   1.0000   1.0000   0.0000   0.0000   0.0000
     0.0000   0.0000

          k =-0.5893-0.4714-0.0000 (   540 PWs)   bands (ev):

     8.3734   8.6187   9.7282  10.5256  11.0242  17.1609  18.5050  20.5155
    25.8390  34.0708

     occupation numbers 
     1.0000   1.0000   1.0000   1.0000   1.0000   0.0000   0.0000   0.0000
     0.0000   0.0000

          k = 0.0000 0.1179-0.7071 (   544 PWs)   bands (ev):

     7.8967   8.3091  10.6472  10.8706  11.1589  14.8995  19.8556  23.9437
    24.4812  32.3573

     occupation numbers 
     1.0000   1.0000   1.0000   1.0000   1.0000   0.0000   0.0000   0.0000
     0.0000   0.0000

          k =-0.7071-0.4714-0.2357 (   549 PWs)   bands (ev):

     8.0743   8.8164   9.3279  10.4781  10.6820  12.5511  22.8724  23.8760
    27.3510  37.3229

     occupation numbers 
     1.0000   1.0000   1.0000   1.0000   1.0000   0.2097   0.0000   0.0000
     0.0000   0.0000

          k =-0.6482-0.4125-0.1768 (   548 PWs)   bands (ev):

     8.5028   8.8635   9.2191  10.3648  10.8981  14.2845  19.8337  23.7381
    25.7017  37.7154

     occupation numbers 
     1.0000   1.0000   1.0000   1.0000   1.0000   0.0000   0.0000   0.0000
     0.0000   0.0000

          k =-0.5893-0.3536-0.1179 (   552 PWs)   bands (ev):

     8.7011   8.7270   9.3002  10.2889  10.9812  16.1731  17.4081  24.3507
    24.5964  37.6431

     occupation numbers 
     1.0000   1.0000   1.0000   1.0000   1.0000   0.0000   0.0000   0.0000
     0.0000   0.0000

          k =-0.7071-0.4714-0.1179 (   553 PWs)   bands (ev):

     8.2968   8.6585   9.5994  10.5941  11.0194  14.6947  21.7117  22.7808
    23.0783  36.5486

     occupation numbers 
     1.0000   1.0000   1.0000   1.0000   1.0000   0.0000   0.0000   0.0000
     0.0000   0.0000

          k =-0.6482-0.4125-0.0589 (   539 PWs)   bands (ev):

     8.4727   8.8110   9.3867  10.4373  11.0919  16.9556  19.0545  21.6935
    23.1228  37.6445

     occupation numbers 
     1.0000   1.0000   1.0000   1.0000   1.0000   0.0000   0.0000   0.0000
     0.0000   0.0000

          k =-0.5893-0.3536 0.0000 (   543 PWs)   bands (ev):

     8.5984   8.9754   9.1115  10.3808  11.0176  16.4080  19.2601  21.4190
    24.1812  38.3906

     occupation numbers 
     1.0000   1.0000   1.0000   1.0000   1.0000   0.0000   0.0000   0.0000
     0.0000   0.0000

          k =-0.0000 0.2357-0.7071 (   534 PWs)   bands (ev):

     8.2568   8.5999   9.8077  10.5816  11.1593  16.6369  20.2723  21.2967
    22.6092  36.2907

     occupation numbers 
     1.0000   1.0000   1.0000   1.0000   1.0000   0.0000   0.0000   0.0000
     0.0000   0.0000

          k = 0.0000 0.3536-0.7071 (   524 PWs)   bands (ev):

     8.4841   9.0994   9.0994  10.3894  11.1595  18.8120  18.8120  20.9214
    21.3946  40.9430

     occupation numbers 
     1.0000   1.0000   1.0000   1.0000   1.0000   0.0000   0.0000   0.0000
     0.0000   0.0000

 ------ SPIN DOWN ----------


          k = 0.0000 0.0000 0.0000 (   537 PWs)   bands (ev):

     3.2369   9.6135   9.6135   9.6135  10.4326  10.4326  35.2852  37.8635
    37.8635  37.8635

     occupation numbers 
     1.0000   1.0000   1.0000   1.0000   1.0000   1.0000   0.0000   0.0000
     0.0000   0.0000

          k = 0.0589 0.0589 0.0589 (   537 PWs)   bands (ev):

     3.4893   9.5607   9.6599   9.6599  10.4152  10.4152  33.5152  36.1236
    37.1687  37.1687

     occupation numbers 
     1.0000   1.0000   1.0000   1.0000   1.0000   1.0000   0.0000   0.0000
     0.0000   0.0000

          k = 0.1179 0.1179 0.1179 (   552 PWs)   bands (ev):

     4.2261   9.4368   9.7519   9.7519  10.4072  10.4072  29.2567  35.6949
    36.1824  36.1824

     occupation numbers 
     1.0000   1.0000   1.0000   1.0000   1.0000   1.0000   0.0000   0.0000
     0.0000   0.0000

          k = 0.1768 0.1768 0.1768 (   549 PWs)   bands (ev):

     5.3618   9.3555   9.7675   9.7675  10.5185  10.5185  25.0532  35.1390
    35.4312  35.4312

     occupation numbers 
     1.0000   1.0000   1.0000   1.0000   1.0000   1.0000   0.0000   0.0000
     0.0000   0.0000

          k = 0.2357 0.2357 0.2357 (   555 PWs)   bands (ev):

     6.6153   9.5972   9.6899   9.6899  10.7379  10.7379  21.2205  34.4645
    34.9605  34.9605

     occupation numbers 
     1.0000   1.0000   1.0000   1.0000   1.0000   1.0000   0.0000   0.0000
     0.0000   0.0000

          k = 0.2946 0.2946 0.2946 (   556 PWs)   bands (ev):

     7.3738   9.6076   9.6076  10.6262  10.9341  10.9341  17.9999  33.9424
    34.7367  34.7367

     occupation numbers 
     1.0000   1.0000   1.0000   1.0000   1.0000   1.0000   0.0000   0.0000
     0.0000   0.0000

          k =-0.3536-0.3536-0.3536 (   568 PWs)   bands (ev):

     7.5469   9.5750   9.5750  11.0107  11.0107  11.5876  16.3828  33.7500
    34.6807  34.6808

     occupation numbers 
     1.0000   1.0000   1.0000   1.0000   1.0000   1.0000   0.0000   0.0000
     0.0000   0.0000

          k = 0.0000 0.0000 0.1179 (   540 PWs)   bands (ev):

     3.5730   9.5144   9.6933   9.6933  10.3435  10.4689  34.2951  35.4396
    35.4396  36.6524

     occupation numbers 
     1.0000   1.0000   1.0000   1.0000   1.0000   1.0000   0.0000   0.0000
     0.0000   0.0000

          k = 0.0589 0.0589 0.1768 (   549 PWs)   bands (ev):

     4.1478   9.3929   9.7869   9.7924  10.2706  10.5046  30.8690  34.0669
    34.5470  37.6113

     occupation numbers 
     1.0000   1.0000   1.0000   1.0000   1.0000   1.0000   0.0000   0.0000
     0.0000   0.0000

          k = 0.1179 0.1179 0.2357 (   553 PWs)   bands (ev):

     5.1551   9.2688   9.7922   9.8492  10.3653  10.6039  26.5952  33.1051
    33.9544  37.4634

     occupation numbers 
     1.0000   1.0000   1.0000   1.0000   1.0000   1.0000   0.0000   0.0000
     0.0000   0.0000

          k = 0.1768 0.1768 0.2946 (   551 PWs)   bands (ev):

     6.4031   9.3014   9.6714   9.8037  10.7053  10.7913  22.6170  32.5844
    33.3925  35.4394

     occupation numbers 
     1.0000   1.0000   1.0000   1.0000   1.0000   1.0000   0.0000   0.0000
     0.0000   0.0000

          k = 0.2357 0.2357 0.3536 (   547 PWs)   bands (ev):

     7.3585   9.5372   9.7186   9.7982  10.9621  11.3078  19.1251  32.5464
    32.7005  34.1117

     occupation numbers 
     1.0000   1.0000   1.0000   1.0000   1.0000   1.0000   0.0000   0.0000
     0.0000   0.0000

          k =-0.4125-0.4125-0.2946 (   558 PWs)   bands (ev):

     7.6663   9.4868   9.6598  10.3186  11.0159  12.3243  16.6732  31.7621
    33.0383  33.8041

     occupation numbers 
     1.0000   1.0000   1.0000   1.0000   1.0000   1.0819   0.0000   0.0000
     0.0000   0.0000

          k =-0.3536-0.3536-0.2357 (   557 PWs)   bands (ev):

     7.6182   9.5121   9.6605  10.2496  10.9149  12.0342  17.2876  31.0575
    34.0852  34.1546

     occupation numbers 
     1.0000   1.0000   1.0000   1.0000   1.0000   1.0001   0.0000   0.0000
     0.0000   0.0000

          k =-0.2946-0.2946-0.1768 (   551 PWs)   bands (ev):

     7.1197   9.6039   9.6133   9.7246  10.6879  11.2373  20.2239  30.7879
    34.9904  35.6602

     occupation numbers 
     1.0000   1.0000   1.0000   1.0000   1.0000   1.0000   0.0000   0.0000
     0.0000   0.0000

          k =-0.2357-0.2357-0.1179 (   553 PWs)   bands (ev):

     5.9863   9.2839   9.7195   9.8206  10.4207  10.8441  23.9043  30.9596
    36.1935  37.5774

     occupation numbers 
     1.0000   1.0000   1.0000   1.0000   1.0000   1.0000   0.0000   0.0000
     0.0000   0.0000

          k =-0.1768-0.1768-0.0589 (   552 PWs)   bands (ev):

     4.7786   9.3303   9.7827   9.8405  10.2719  10.5906  27.9981  31.5461
    37.3053  38.7055

     occupation numbers 
     1.0000   1.0000   1.0000   1.0000   1.0000   1.0000   0.0000   0.0000
     0.0000   0.0000

          k =-0.1179-0.1179-0.0000 (   545 PWs)   bands (ev):

     3.9034   9.4671   9.7295   9.7378  10.3255  10.4699  31.9866  32.8789
    37.2029  38.8043

     occupation numbers 
     1.0000   1.0000   1.0000   1.0000   1.0000   1.0000   0.0000   0.0000
     0.0000   0.0000

          k = 0.0000 0.0000 0.2357 (   548 PWs)   bands (ev):

     4.5484   9.2477   9.9248   9.9248  10.1230  10.5686  32.3872  32.3872
    32.7874  34.4622

     occupation numbers 
     1.0000   1.0000   1.0000   1.0000   1.0000   1.0000   0.0000   0.0000
     0.0000   0.0000

          k = 0.0589 0.0589 0.2946 (   551 PWs)   bands (ev):

     5.3841   9.0872   9.8650  10.0457  10.2720  10.6591  28.4650  31.1731
    32.7469  34.2105

     occupation numbers 
     1.0000   1.0000   1.0000   1.0000   1.0000   1.0000   0.0000   0.0000
     0.0000   0.0000

          k = 0.1179 0.1179 0.3536 (   556 PWs)   bands (ev):

     6.5127   8.9912   9.6585  10.0506  10.7666  10.8289  24.4000  30.4634
    31.4633  33.3109

     occupation numbers 
     1.0000   1.0000   1.0000   1.0000   1.0000   1.0000   0.0000   0.0000
     0.0000   0.0000

          k = 0.1768 0.1768 0.4125 (   544 PWs)   bands (ev):

     7.5342   9.0811   9.5274   9.9770  10.9890  11.6401  20.7003  29.7889
    30.3054  32.9318

     occupation numbers 
     1.0000   1.0000   1.0000   1.0000   1.0000   1.0000   0.0000   0.0000
     0.0000   0.0000

          k =-0.4714-0.4714-0.2357 (   556 PWs)   bands (ev):

     7.9705   9.1988   9.6870   9.8998  11.0305  13.0915  17.6347  28.3596
    30.7386  32.9622

     occupation numbers 
     1.0000   1.0000   1.0000   1.0000   1.0000   0.0000   0.0000   0.0000
     0.0000   0.0000

          k =-0.4125-0.4125-0.1768 (   555 PWs)   bands (ev):

     8.0296   9.2474   9.7710   9.8642  10.9131  13.6133  16.9423  27.3553
    31.7697  33.3866

     occupation numbers 
     1.0000   1.0000   1.0000   1.0000   1.0000   0.0000   0.0000   0.0000
     0.0000   0.0000

          k =-0.3536-0.3536-0.1179 (   549 PWs)   bands (ev):

     7.7924   9.3687   9.4461   9.8905  10.6644  12.2732  19.6145  26.8335
    33.3610  34.2550

     occupation numbers 
     1.0000   1.0000   1.0000   1.0000   1.0000   1.0672   0.0000   0.0000
     0.0000   0.0000

          k =-0.2946-0.2946-0.0589 (   547 PWs)   bands (ev):

     6.9289   9.1526   9.5573   9.9781  10.3546  11.4142  23.1478  26.8080
    35.4397  35.5983

     occupation numbers 
     1.0000   1.0000   1.0000   1.0000   1.0000   1.0000   0.0000   0.0000
     0.0000   0.0000

          k =-0.2357-0.2357 0.0000 (   554 PWs)   bands (ev):

     5.7454   9.1880   9.7183  10.0386  10.1343  10.9134  26.8367  27.5344
    37.3412  37.9063

     occupation numbers 
     1.0000   1.0000   1.0000   1.0000   1.0000   1.0000   0.0000   0.0000
     0.0000   0.0000

          k = 0.0000 0.0000 0.3536 (   560 PWs)   bands (ev):

     6.0043   8.8928   9.9683  10.2776  10.2776  10.7062  29.7031  29.7031
    30.9505  31.5948

     occupation numbers 
     1.0000   1.0000   1.0000   1.0000   1.0000   1.0000   0.0000   0.0000
     0.0000   0.0000

          k = 0.0589 0.0589 0.4125 (   554 PWs)   bands (ev):

     6.8745   8.7411   9.8707  10.3801  10.7563  10.8392  26.4396  28.7602
    28.7855  32.0850

     occupation numbers 
     1.0000   1.0000   1.0000   1.0000   1.0000   1.0000   0.0000   0.0000
     0.0000   0.0000

          k = 0.1179 0.1179 0.4714 (   547 PWs)   bands (ev):

     7.7002   8.6925   9.7200  10.3347  11.0054  11.8168  22.6976  26.7903
    28.4108  32.1287

     occupation numbers 
     1.0000   1.0000   1.0000   1.0000   1.0000   1.0000   0.0000   0.0000
     0.0000   0.0000

          k =-0.5303-0.5303-0.1768 (   550 PWs)   bands (ev):

     8.1898   8.7641   9.6284  10.2490  11.0519  13.5602  19.3198  25.1708
    28.6998  32.2189

     occupation numbers 
     1.0000   1.0000   1.0000   1.0000   1.0000   0.0000   0.0000   0.0000
     0.0000   0.0000

          k =-0.4714-0.4714-0.1179 (   551 PWs)   bands (ev):

     8.4035   8.8699   9.5512  10.1749  10.9351  15.3572  17.0546  23.9897
    29.6222  32.5681

     occupation numbers 
     1.0000   1.0000   1.0000   1.0000   1.0000   0.0000   0.0000   0.0000
     0.0000   0.0000

          k =-0.4125-0.4125-0.0589 (   545 PWs)   bands (ev):

     8.4034   9.0454   9.3180  10.1335  10.6957  13.8051  19.3104  23.3084
    31.1184  33.2562

     occupation numbers 
     1.0000   1.0000   1.0000   1.0000   1.0000   0.0000   0.0000   0.0000
     0.0000   0.0000

          k =-0.3536-0.3536 0.0000 (   548 PWs)   bands (ev):

     7.9093   9.1046   9.3064  10.1047  10.4400  12.3250  22.3210  23.5101
    33.0947  34.3114

     occupation numbers 
     1.0000   1.0000   1.0000   1.0000   1.0000   1.0818   0.0000   0.0000
     0.0000   0.0000

          k = 0.0000 0.0000 0.4714 (   556 PWs)   bands (ev):

     7.3230   8.5485  10.5325  10.6830  10.6830  10.8456  26.2590  27.5720
    27.5720  30.7931

     occupation numbers 
     1.0000   1.0000   1.0000   1.0000   1.0000   1.0000   0.0000   0.0000
     0.0000   0.0000

          k = 0.0589 0.0589 0.5303 (   549 PWs)   bands (ev):

     7.7136   8.4482  10.4298  10.7080  11.0045  11.9132  24.1333  24.9497
    26.9933  31.3401

     occupation numbers 
     1.0000   1.0000   1.0000   1.0000   1.0000   1.0000   0.0000   0.0000
     0.0000   0.0000

          k =-0.5893-0.5893-0.1179 (   548 PWs)   bands (ev):

     8.0319   8.4680  10.1604  10.6247  11.0785  13.8248  21.5614  22.4761
    27.0911  31.6344

     occupation numbers 
     1.0000   1.0000   1.0000   1.0000   1.0000   0.0000   0.0000   0.0000
     0.0000   0.0000

          k =-0.5303-0.5303-0.0589 (   547 PWs)   bands (ev):

     8.3252   8.5825   9.8341  10.5139  10.9864  16.1632  18.5214  21.3014
    27.8657  31.9356

     occupation numbers 
     1.0000   1.0000   1.0000   1.0000   1.0000   0.0000   0.0000   0.0000
     0.0000   0.0000

          k =-0.4714-0.4714-0.0000 (   544 PWs)   bands (ev):

     8.5799   8.7422   9.4784  10.3605  10.8144  15.8616  18.5388  21.0947
    29.2450  32.4584

     occupation numbers 
     1.0000   1.0000   1.0000   1.0000   1.0000   0.0000   0.0000   0.0000
     0.0000   0.0000

          k = 0.0000 0.0000 0.5893 (   556 PWs)   bands (ev):

     7.7210   8.3029  10.9488  11.0230  11.0230  12.4895  22.0056  26.1727
    26.1727  30.3406

     occupation numbers 
     1.0000   1.0000   1.0000   1.0000   1.0000   0.4916   0.0000   0.0000
     0.0000   0.0000

          k =-0.6482-0.6482-0.0589 (   548 PWs)   bands (ev):

     7.8225   8.2823  10.8434  10.9039  11.1185  14.0017  20.4943  24.1002
    26.0453  31.0048

     occupation numbers 
     1.0000   1.0000   1.0000   1.0000   1.0000   0.0000   0.0000   0.0000
     0.0000   0.0000

          k =-0.5893-0.5893 0.0000 (   546 PWs)   bands (ev):

     8.0353   8.3897  10.3711  10.7730  11.0695  15.5692  19.9655  21.2021
    26.6330  31.4857

     occupation numbers 
     1.0000   1.0000   1.0000   1.0000   1.0000   0.0000   0.0000   0.0000
     0.0000   0.0000

          k = 0.0000 0.0000-0.7071 (   556 PWs)   bands (ev):

     7.7445   8.2143  10.9867  11.1587  11.1587  14.0857  19.7315  25.6798
    25.6798  30.1951

     occupation numbers 
     1.0000   1.0000   1.0000   1.0000   1.0000   0.0000   0.0000   0.0000
     0.0000   0.0000

          k = 0.0000 0.1179 0.2357 (   554 PWs)   bands (ev):

     4.8591   9.2478   9.8201   9.9350  10.2068  10.6180  29.4868  30.1464
    36.1155  36.3559

     occupation numbers 
     1.0000   1.0000   1.0000   1.0000   1.0000   1.0000   0.0000   0.0000
     0.0000   0.0000

          k = 0.0589 0.1768 0.2946 (   548 PWs)   bands (ev):

     5.9463   9.1289   9.6985  10.0018  10.3439  10.8867  25.5727  29.1303
    34.4344  36.4013

     occupation numbers 
     1.0000   1.0000   1.0000   1.0000   1.0000   1.0000   0.0000   0.0000
     0.0000   0.0000

          k = 0.1179 0.2357 0.3536 (   550 PWs)   bands (ev):

     7.1210   9.1925   9.5315   9.9256  10.6619  11.3726  21.7306  28.8288
    32.5249  35.8106

     occupation numbers 
     1.0000   1.0000   1.0000   1.0000   1.0000   1.0000   0.0000   0.0000
     0.0000   0.0000

          k =-0.5303-0.4125-0.2946 (   549 PWs)   bands (ev):

     7.7904   9.3467   9.6518   9.8505  10.9030  12.3661  18.4167  28.9968
    30.9438  35.3337

     occupation numbers 
     1.0000   1.0000   1.0000   1.0000   1.0000   1.0368   0.0000   0.0000
     0.0000   0.0000

          k =-0.4714-0.3536-0.2357 (   552 PWs)   bands (ev):

     7.9295   9.3070   9.8041   9.9077  10.9789  13.4265  16.5730  29.4421
    30.0142  35.1548

     occupation numbers 
     1.0000   1.0000   1.0000   1.0000   1.0000   0.0000   0.0000   0.0000
     0.0000   0.0000

          k =-0.0000 0.1179 0.3536 (   549 PWs)   bands (ev):

     6.2750   8.9299   9.7281  10.2787  10.3803  10.8788  27.3150  27.8426
    31.5026  34.4575

     occupation numbers 
     1.0000   1.0000   1.0000   1.0000   1.0000   1.0000   0.0000   0.0000
     0.0000   0.0000

          k = 0.0589 0.1768 0.4125 (   550 PWs)   bands (ev):

     7.3116   8.8567   9.5324  10.2701  10.6987  11.4603  23.6243  27.1536
    29.3957  34.8329

     occupation numbers 
     1.0000   1.0000   1.0000   1.0000   1.0000   1.0000   0.0000   0.0000
     0.0000   0.0000

          k =-0.5893-0.4714-0.2357 (   548 PWs)   bands (ev):

     8.0471   8.9323   9.4298  10.1730  10.9335  12.6864  20.0793  27.1331
    27.6921  34.8109

     occupation numbers 
     1.0000   1.0000   1.0000   1.0000   1.0000   0.0086   0.0000   0.0000
     0.0000   0.0000

          k =-0.5303-0.4125-0.1768 (   548 PWs)   bands (ev):

     8.2992   8.9806   9.5311  10.0844  10.9758  14.4824  17.2568  26.2239
    27.8330  35.0571

     occupation numbers 
     1.0000   1.0000   1.0000   1.0000   1.0000   0.0000   0.0000   0.0000
     0.0000   0.0000

          k =-0.4714-0.3536-0.1179 (   547 PWs)   bands (ev):

     8.3027   9.0494   9.4457  10.0711  10.8585  13.9511  18.0626  25.3556
    28.9048  35.7163

     occupation numbers 
     1.0000   1.0000   1.0000   1.0000   1.0000   0.0000   0.0000   0.0000
     0.0000   0.0000

          k =-0.4125-0.2946-0.0589 (   549 PWs)   bands (ev):

     7.9491   9.0809   9.2872  10.1380  10.6096  12.3794  21.2260  24.9875
    30.4318  36.8430

     occupation numbers 
     1.0000   1.0000   1.0000   1.0000   1.0000   1.0057   0.0000   0.0000
     0.0000   0.0000

          k =-0.3536-0.2357 0.0000 (   541 PWs)   bands (ev):

     7.0085   9.0207   9.5007  10.2156  10.3092  11.4404  24.6186  25.4256
    32.3421  38.3588

     occupation numbers 
     1.0000   1.0000   1.0000   1.0000   1.0000   1.0000   0.0000   0.0000
     0.0000   0.0000

          k = 0.0000 0.1179 0.4714 (   547 PWs)   bands (ev):

     7.5374   8.6162   9.8809  10.6811  10.7221  11.5105  25.5550  25.9823
    26.6421  33.2649

     occupation numbers 
     1.0000   1.0000   1.0000   1.0000   1.0000   1.0000   0.0000   0.0000
     0.0000   0.0000

          k =-0.6482-0.5303-0.1768 (   550 PWs)   bands (ev):

     8.0459   8.6052   9.7494  10.5720  10.9613  12.9349  22.2029  24.6429
    25.7652  33.9154

     occupation numbers 
     1.0000   1.0000   1.0000   1.0000   1.0000   0.0000   0.0000   0.0000
     0.0000   0.0000

          k =-0.5893-0.4714-0.1179 (   550 PWs)   bands (ev):

     8.3712   8.6810   9.5977  10.4253  11.0170  15.0324  18.9932  23.1917
    26.1987  34.2493

     occupation numbers 
     1.0000   1.0000   1.0000   1.0000   1.0000   0.0000   0.0000   0.0000
     0.0000   0.0000

          k =-0.5303-0.4125-0.0589 (   545 PWs)   bands (ev):

     8.6293   8.7406   9.3937  10.3178  10.9055  15.9876  17.9242  22.2236
    27.1816  34.8624

     occupation numbers 
     1.0000   1.0000   1.0000   1.0000   1.0000   0.0000   0.0000   0.0000
     0.0000   0.0000

          k =-0.4714-0.3536-0.0000 (   550 PWs)   bands (ev):

     8.5515   8.9759   9.1286  10.2693  10.7096  13.9142  20.4933  22.1878
    28.6190  35.8360

     occupation numbers 
     1.0000   1.0000   1.0000   1.0000   1.0000   0.0000   0.0000   0.0000
     0.0000   0.0000

          k =-0.7071-0.5893-0.1179 (   546 PWs)   bands (ev):

     7.8889   8.3907  10.4016  10.8730  11.0220  13.2790  22.2238  24.3686
    24.9024  32.5790

     occupation numbers 
     1.0000   1.0000   1.0000   1.0000   1.0000   0.0000   0.0000   0.0000
     0.0000   0.0000

          k =-0.6482-0.5303-0.0589 (   546 PWs)   bands (ev):

     8.1043   8.4622  10.1236  10.7110  11.0993  15.2335  20.8267  21.4640
    24.9794  33.4858

     occupation numbers 
     1.0000   1.0000   1.0000   1.0000   1.0000   0.0000   0.0000   0.0000
     0.0000   0.0000

          k =-0.5893-0.4714-0.0000 (   540 PWs)   bands (ev):

     8.3734   8.6187   9.7282  10.5256  11.0242  17.1608  18.5050  20.5154
    25.8390  34.0708

     occupation numbers 
     1.0000   1.0000   1.0000   1.0000   1.0000   0.0000   0.0000   0.0000
     0.0000   0.0000

          k = 0.0000 0.1179-0.7071 (   544 PWs)   bands (ev):

     7.8967   8.3092  10.6472  10.8707  11.1589  14.8995  19.8556  23.9436
    24.4812  32.3573

     occupation numbers 
     1.0000   1.0000   1.0000   1.0000   1.0000   0.0000   0.0000   0.0000
     0.0000   0.0000

          k =-0.7071-0.4714-0.2357 (   549 PWs)   bands (ev):

     8.0743   8.8164   9.3279  10.4781  10.6820  12.5511  22.8723  23.8759
    27.3509  37.3228

     occupation numbers 
     1.0000   1.0000   1.0000   1.0000   1.0000   0.2097   0.0000   0.0000
     0.0000   0.0000

          k =-0.6482-0.4125-0.1768 (   548 PWs)   bands (ev):

     8.5028   8.8635   9.2191  10.3648  10.8981  14.2845  19.8337  23.7381
    25.7017  37.7154

     occupation numbers 
     1.0000   1.0000   1.0000   1.0000   1.0000   0.0000   0.0000   0.0000
     0.0000   0.0000

          k =-0.5893-0.3536-0.1179 (   552 PWs)   bands (ev):

     8.7011   8.7271   9.3002  10.2890  10.9812  16.1731  17.4081  24.3507
    24.5963  37.6430

     occupation numbers 
     1.0000   1.0000   1.0000   1.0000   1.0000   0.0000   0.0000   0.0000
     0.0000   0.0000

          k =-0.7071-0.4714-0.1179 (   553 PWs)   bands (ev):

     8.2968   8.6585   9.5994  10.5942  11.0194  14.6947  21.7116  22.7807
    23.0783  36.5485

     occupation numbers 
     1.0000   1.0000   1.0000   1.0000   1.0000   0.0000   0.0000   0.0000
     0.0000   0.0000

          k =-0.6482-0.4125-0.0589 (   539 PWs)   bands (ev):

     8.4727   8.8110   9.3867  10.4373  11.0919  16.9556  19.0545  21.6934
    23.1227  37.6444

     occupation numbers 
     1.0000   1.0000   1.0000   1.0000   1.0000   0.0000   0.0000   0.0000
     0.0000   0.0000

[...]
     0.0000   0.0000

          k =-0.2348-0.2348 0.0000 (   554 PWs)   bands (ev):

     5.6137   9.0300   9.5507   9.8648   9.9590  10.7240  26.5316  27.2151
    36.9865  37.5081

     occupation numbers 
     1.0000   1.0000   1.0000   1.0000   1.0000   1.0000   0.0000   0.0000
     0.0000   0.0000

          k = 0.0000 0.0000 0.3522 (   560 PWs)   bands (ev):

     5.8719   8.7400   9.7962  10.0997  10.0997  10.5202  29.3716  29.3716
    30.6381  31.2779

     occupation numbers 
     1.0000   1.0000   1.0000   1.0000   1.0000   1.0000   0.0000   0.0000
     0.0000   0.0000

          k = 0.0587 0.0587 0.4109 (   554 PWs)   bands (ev):

     6.7383   8.5910   9.7005  10.2004  10.5708  10.6508  26.1348  28.4371
    28.4689  31.7475

     occupation numbers 
     1.0000   1.0000   1.0000   1.0000   1.0000   1.0000   0.0000   0.0000
     0.0000   0.0000

          k = 0.1174 0.1174 0.4696 (   547 PWs)   bands (ev):

     7.5608   8.5435   9.5526  10.1558  10.8140  11.6185  22.4154  26.4805
    28.0908  31.7837

     occupation numbers 
     1.0000   1.0000   1.0000   1.0000   1.0000   1.0000   0.0000   0.0000
     0.0000   0.0000

          k =-0.5283-0.5283-0.1761 (   550 PWs)   bands (ev):

     8.0469   8.6148   9.4631  10.0717  10.8598  13.3480  19.0577  24.8690
    28.3769  31.8756

     occupation numbers 
     1.0000   1.0000   1.0000   1.0000   1.0000   0.0000   0.0000   0.0000
     0.0000   0.0000

          k =-0.4696-0.4696-0.1174 (   551 PWs)   bands (ev):

     8.2573   8.7195   9.3879   9.9990  10.7451  15.1403  16.7984  23.6944
    29.2905  32.2270

     occupation numbers 
     1.0000   1.0000   1.0000   1.0000   1.0000   0.0000   0.0000   0.0000
     0.0000   0.0000

          k =-0.4109-0.4109-0.0587 (   545 PWs)   bands (ev):

     8.2562   8.8917   9.1586   9.9584  10.5102  13.5877  19.0496  23.0163
    30.7729  32.9153

     occupation numbers 
     1.0000   1.0000   1.0000   1.0000   1.0000   0.0000   0.0000   0.0000
     0.0000   0.0000

          k =-0.3522-0.3522-0.0000 (   548 PWs)   bands (ev):

     7.7649   8.9485   9.1473   9.9301  10.2591  12.1176  22.0454  23.2131
    32.7323  33.9683

     occupation numbers 
     1.0000   1.0000   1.0000   1.0000   1.0000   1.0827   0.0000   0.0000
     0.0000   0.0000

          k = 0.0000 0.0000 0.4696 (   556 PWs)   bands (ev):

     7.1872   8.4018  10.3542  10.4978  10.4978  10.6571  25.9541  27.2602
    27.2602  30.4738

     occupation numbers 
     1.0000   1.0000   1.0000   1.0000   1.0000   1.0000   0.0000   0.0000
     0.0000   0.0000

          k = 0.0587 0.0587 0.5283 (   549 PWs)   bands (ev):

     7.5773   8.3031  10.2512  10.5223  10.8132  11.7181  23.8393  24.6527
    26.6873  31.0075

     occupation numbers 
     1.0000   1.0000   1.0000   1.0000   1.0000   1.0000   0.0000   0.0000
     0.0000   0.0000

          k =-0.5870-0.5870-0.1174 (   548 PWs)   bands (ev):

     7.8933   8.3228   9.9867  10.4405  10.8859  13.6138  21.2919  22.1837
    26.7840  31.2923

     occupation numbers 
     1.0000   1.0000   1.0000   1.0000   1.0000   0.0000   0.0000   0.0000
     0.0000   0.0000

          k =-0.5283-0.5283-0.0587 (   547 PWs)   bands (ev):

     8.1824   8.4357   9.6661  10.3319  10.7955  15.9362  18.2698  21.0149
    27.5507  31.5926

     occupation numbers 
     1.0000   1.0000   1.0000   1.0000   1.0000   0.0000   0.0000   0.0000
     0.0000   0.0000

          k =-0.4696-0.4696-0.0000 (   544 PWs)   bands (ev):

     8.4315   8.5941   9.3164  10.1813  10.6266  15.6300  18.2939  20.8069
    28.9166  32.1164

     occupation numbers 
     1.0000   1.0000   1.0000   1.0000   1.0000   0.0000   0.0000   0.0000
     0.0000   0.0000

          k = 0.0000 0.0000 0.5870 (   556 PWs)   bands (ev):

     7.5866   8.1603  10.7583  10.8315  10.8315  12.2992  21.7178  25.8752
    25.8752  30.0197

     occupation numbers 
     1.0000   1.0000   1.0000   1.0000   1.0000   0.4216   0.0000   0.0000
     0.0000   0.0000

          k =-0.6457-0.6457-0.0587 (   548 PWs)   bands (ev):

     7.6877   8.1401  10.6568  10.7145  10.9252  13.8008  20.2113  23.8141
    25.7491  30.6733

     occupation numbers 
     1.0000   1.0000   1.0000   1.0000   1.0000   0.0000   0.0000   0.0000
     0.0000   0.0000

          k =-0.5870-0.5870-0.0000 (   546 PWs)   bands (ev):

     7.8976   8.2457  10.1939  10.5861  10.8771  15.3547  19.6879  20.9286
    26.3305  31.1439

     occupation numbers 
     1.0000   1.0000   1.0000   1.0000   1.0000   0.0000   0.0000   0.0000
     0.0000   0.0000

          k =-0.0000-0.0000-0.7044 (   556 PWs)   bands (ev):

     7.6110   8.0732  10.7956  10.9646  10.9646  13.8932  19.4482  25.3876
    25.3876  29.8736

     occupation numbers 
     1.0000   1.0000   1.0000   1.0000   1.0000   0.0000   0.0000   0.0000
     0.0000   0.0000

          k =-0.0000 0.1174 0.2348 (   554 PWs)   bands (ev):

     4.7338   9.0885   9.6504   9.7631  10.0301  10.4336  29.1671  29.8115
    35.7668  36.0126

     occupation numbers 
     1.0000   1.0000   1.0000   1.0000   1.0000   1.0000   0.0000   0.0000
     0.0000   0.0000

          k = 0.0587 0.1761 0.2935 (   548 PWs)   bands (ev):

     5.8136   8.9721   9.5313   9.8288  10.1649  10.6978  25.2709  28.8060
    34.0892  36.0260

     occupation numbers 
     1.0000   1.0000   1.0000   1.0000   1.0000   1.0000   0.0000   0.0000
     0.0000   0.0000

          k = 0.1174 0.2348 0.3522 (   550 PWs)   bands (ev):

     6.9824   9.0355   9.3672   9.7541  10.4772  11.1771  21.4512  28.5075
    32.1813  35.4421

     occupation numbers 
     1.0000   1.0000   1.0000   1.0000   1.0000   1.0000   0.0000   0.0000
     0.0000   0.0000

          k =-0.5283-0.4109-0.2935 (   549 PWs)   bands (ev):

     7.6499   9.1871   9.4877   9.6807  10.7137  12.1650  18.1548  28.6773
    30.6036  34.9768

     occupation numbers 
     1.0000   1.0000   1.0000   1.0000   1.0000   1.0318   0.0000   0.0000
     0.0000   0.0000

          k =-0.4696-0.3522-0.2348 (   552 PWs)   bands (ev):

     7.7887   9.1478   9.6348   9.7406  10.7881  13.2279  16.3138  29.1334
    29.6654  34.8026

     occupation numbers 
     1.0000   1.0000   1.0000   1.0000   1.0000   0.0000   0.0000   0.0000
     0.0000   0.0000

          k =-0.0000 0.1174 0.3522 (   549 PWs)   bands (ev):

     6.1407   8.7765   9.5603  10.1008  10.2007  10.6901  27.0059  27.5246
    31.1677  34.1159

     occupation numbers 
     1.0000   1.0000   1.0000   1.0000   1.0000   1.0000   0.0000   0.0000
     0.0000   0.0000

          k = 0.0587 0.1761 0.4109 (   550 PWs)   bands (ev):

     7.1721   8.7047   9.3681  10.0924  10.5135  11.2638  23.3355  26.8434
    29.0665  34.4758

     occupation numbers 
     1.0000   1.0000   1.0000   1.0000   1.0000   1.0000   0.0000   0.0000
     0.0000   0.0000

          k =-0.5870-0.4696-0.2348 (   548 PWs)   bands (ev):

     7.9042   8.7801   9.2674   9.9972  10.7437  12.4793  19.8115  26.8314
    27.3635  34.4531

     occupation numbers 
     1.0000   1.0000   1.0000   1.0000   1.0000   0.0096   0.0000   0.0000
     0.0000   0.0000

          k =-0.5283-0.4109-0.1761 (   548 PWs)   bands (ev):

     8.1540   8.8282   9.3682   9.9102  10.7850  14.2690  17.0004  25.9192
    27.5113  34.7005

     occupation numbers 
     1.0000   1.0000   1.0000   1.0000   1.0000   0.0000   0.0000   0.0000
     0.0000   0.0000

          k =-0.4696-0.3522-0.1174 (   547 PWs)   bands (ev):

     8.1571   8.8956   9.2844   9.8972  10.6700  13.7366  17.8049  25.0542
    28.5778  35.3568

     occupation numbers 
     1.0000   1.0000   1.0000   1.0000   1.0000   0.0000   0.0000   0.0000
     0.0000   0.0000

          k =-0.4109-0.2935-0.0587 (   549 PWs)   bands (ev):

     7.8052   8.9257   9.1277   9.9629  10.4257  12.1725  20.9519  24.6875
    30.0959  36.4737

     occupation numbers 
     1.0000   1.0000   1.0000   1.0000   1.0000   1.0146   0.0000   0.0000
     0.0000   0.0000

          k =-0.3522-0.2348-0.0000 (   541 PWs)   bands (ev):

     6.8694   8.8658   9.3374  10.0391  10.1307  11.2431  24.3272  25.1192
    31.9966  37.9674

     occupation numbers 
     1.0000   1.0000   1.0000   1.0000   1.0000   1.0000   0.0000   0.0000
     0.0000   0.0000

          k = 0.0000 0.1174 0.4696 (   547 PWs)   bands (ev):

     7.3995   8.4682   9.7109  10.4960  10.5365  11.3149  25.2584  25.6877
    26.3194  32.9286

     occupation numbers 
     1.0000   1.0000   1.0000   1.0000   1.0000   1.0000   0.0000   0.0000
     0.0000   0.0000

          k =-0.6457-0.5283-0.1761 (   550 PWs)   bands (ev):

     7.9056   8.4577   9.5819  10.3891  10.7709  12.7269  21.9258  24.3452
    25.4589  33.5647

     occupation numbers 
     1.0000   1.0000   1.0000   1.0000   1.0000   0.0000   0.0000   0.0000
     0.0000   0.0000

          k =-0.5870-0.4696-0.1174 (   550 PWs)   bands (ev):

     8.2273   8.5327   9.4333  10.2450  10.8255  14.8099  18.7353  22.8999
    25.8915  33.8943

     occupation numbers 
     1.0000   1.0000   1.0000   1.0000   1.0000   0.0000   0.0000   0.0000
     0.0000   0.0000

          k =-0.5283-0.4109-0.0587 (   545 PWs)   bands (ev):

     8.4802   8.5924   9.2330  10.1394  10.7161  15.7583  17.6737  21.9361
    26.8669  34.5045

     occupation numbers 
     1.0000   1.0000   1.0000   1.0000   1.0000   0.0000   0.0000   0.0000
     0.0000   0.0000

          k =-0.4696-0.3522-0.0000 (   550 PWs)   bands (ev):

     8.4030   8.8226   8.9723  10.0919  10.5239  13.6950  20.2321  21.8973
    28.2942  35.4727

     occupation numbers 
     1.0000   1.0000   1.0000   1.0000   1.0000   0.0000   0.0000   0.0000
     0.0000   0.0000

          k =-0.7044-0.5870-0.1174 (   546 PWs)   bands (ev):

     7.7524   8.2467  10.2233  10.6845  10.8305  13.0748  21.9365  24.0823
    24.6046  32.2453

     occupation numbers 
     1.0000   1.0000   1.0000   1.0000   1.0000   0.0000   0.0000   0.0000
     0.0000   0.0000

          k =-0.6457-0.5283-0.0587 (   546 PWs)   bands (ev):

     7.9655   8.3169   9.9506  10.5253  10.9063  15.0158  20.5503  21.1870
    24.6832  33.1374

     occupation numbers 
     1.0000   1.0000   1.0000   1.0000   1.0000   0.0000   0.0000   0.0000
     0.0000   0.0000

          k =-0.5870-0.4696-0.0000 (   540 PWs)   bands (ev):

     8.2305   8.4710   9.5620  10.3434  10.8327  16.9293  18.2578  20.2279
    25.5353  33.7162

     occupation numbers 
     1.0000   1.0000   1.0000   1.0000   1.0000   0.0000   0.0000   0.0000
     0.0000   0.0000

          k = 0.0000 0.1174-0.7044 (   544 PWs)   bands (ev):

     7.7611   8.1665  10.4646  10.6818  10.9648  14.6938  19.5733  23.6615
    24.1886  32.0243

     occupation numbers 
     1.0000   1.0000   1.0000   1.0000   1.0000   0.0000   0.0000   0.0000
     0.0000   0.0000

          k =-0.7044-0.4696-0.2348 (   549 PWs)   bands (ev):

     7.9310   8.6651   9.1673  10.2971  10.4968  12.3432  22.5938  23.5802
    27.0329  36.9626

     occupation numbers 
     1.0000   1.0000   1.0000   1.0000   1.0000   0.2254   0.0000   0.0000
     0.0000   0.0000

          k =-0.6457-0.4109-0.1761 (   548 PWs)   bands (ev):

     8.3565   8.7120   9.0605  10.1857  10.7089  14.0643  19.5709  23.4467
    25.3933  37.3412

     occupation numbers 
     1.0000   1.0000   1.0000   1.0000   1.0000   0.0000   0.0000   0.0000
     0.0000   0.0000

          k =-0.5870-0.3522-0.1174 (   552 PWs)   bands (ev):

     8.5508   8.5791   9.1410  10.1111  10.7904  15.9489  17.1520  24.0698
    24.2810  37.2696

     occupation numbers 
     1.0000   1.0000   1.0000   1.0000   1.0000   0.0000   0.0000   0.0000
     0.0000   0.0000

          k =-0.7044-0.4696-0.1174 (   553 PWs)   bands (ev):

     8.1548   8.5099   9.4348  10.4108  10.8280  14.4740  21.4430  22.5112
    22.7661  36.1922

     occupation numbers 
     1.0000   1.0000   1.0000   1.0000   1.0000   0.0000   0.0000   0.0000
     0.0000   0.0000

          k =-0.6457-0.4109-0.0587 (   539 PWs)   bands (ev):

     8.3287   8.6599   9.2260  10.2567  10.8991  16.7208  18.8005  21.4105
    22.8304  37.2720

     occupation numbers 
     1.0000   1.0000   1.0000   1.0000   1.0000   0.0000   0.0000   0.0000
     0.0000   0.0000

          k =-0.5870-0.3522 0.0000 (   543 PWs)   bands (ev):

     8.4526   8.8211   8.9555  10.2013  10.8262  16.1731  19.0100  21.1336
    23.8833  38.0095

     occupation numbers 
     1.0000   1.0000   1.0000   1.0000   1.0000   0.0000   0.0000   0.0000
     0.0000   0.0000

          k = 0.0000 0.2348-0.7044 (   534 PWs)   bands (ev):

     8.1162   8.4523   9.6402  10.3983  10.9652  16.4111  19.9933  21.0320
    22.3181  35.9357

     occupation numbers 
     1.0000   1.0000   1.0000   1.0000   1.0000   0.0000   0.0000   0.0000
     0.0000   0.0000

          k = 0.0000 0.3522-0.7044 (   524 PWs)   bands (ev):

     8.3402   8.9436   8.9436  10.2096  10.9654  18.5664  18.5664  20.6632
    21.0853  40.5610

     occupation numbers 
     1.0000   1.0000   1.0000   1.0000   1.0000   0.0000   0.0000   0.0000
     0.0000   0.0000

     the Fermi energy is    12.3034 ev

     WARNING: integrated charge=    11.00024675, expected=    11.00000000

!    total energy              =    -121.49728499 Ry
     Harris-Foulkes estimate   =    -121.49728499 Ry
     estimated scf accuracy    <          5.1E-12 Ry

     The total energy is the sum of the following terms:

     one-electron contribution =     -28.99952687 Ry
     hartree contribution      =      31.20476620 Ry
     xc contribution           =     -42.80443390 Ry
     ewald contribution        =     -80.89825312 Ry
     smearing contrib. (-TS)   =       0.00016270 Ry

     total magnetization       =    -0.00 Bohr mag/cell
     absolute magnetization    =     0.00 Bohr mag/cell

     convergence has been achieved in  10 iterations

     Forces acting on atoms (cartesian axes, Ry/au):

     atom    1 type  1   force =     0.00000000    0.00000000    0.00000000
     The non-local contrib.  to forces
     atom    1 type  1   force =     0.00000000    0.00000000    0.00000000
     The ionic contribution  to forces
     atom    1 type  1   force =     0.00000000    0.00000000    0.00000000
     The local contribution  to forces
     atom    1 type  1   force =     0.00000000   -0.00000000   -0.00000000
     The core correction contribution to forces
     atom    1 type  1   force =    -0.00000000   -0.00000000   -0.00000000
     The Hubbard contrib.    to forces
     atom    1 type  1   force =     0.00000000    0.00000000    0.00000000
     The SCF correction term to forces
     atom    1 type  1   force =    -0.00000000    0.00000000   -0.00000000

     Total force =     0.000000     Total SCF correction =     0.000000


     Computing stress (Cartesian axis) and pressure

          total   stress  (Ry/bohr**3)                   (kbar)     P=    0.00
   0.00000001   0.00000000  -0.00000000          0.00      0.00     -0.00
   0.00000000   0.00000001  -0.00000000          0.00      0.00     -0.00
  -0.00000000  -0.00000000   0.00000001         -0.00     -0.00      0.00

     kinetic stress (kbar)  13222.23      0.00      0.00
                                0.00  13222.23     -0.00
                                0.00     -0.00  13222.23

     local   stress (kbar)  23182.50      0.00     -0.00
                                0.00  23182.50     -0.00
                               -0.00     -0.00  23182.50

     nonloc. stress (kbar)   6860.25     -0.00     -0.00
                               -0.00   6860.25      0.00
                               -0.00      0.00   6860.25

     hartree stress (kbar)  18974.48      0.00      0.00
                                0.00  18974.48      0.00
                                0.00      0.00  18974.48

     exc-cor stress (kbar)  30064.87      0.00      0.00
                                0.00  30064.87      0.00
                                0.00      0.00  30064.87

     corecor stress (kbar) -43117.99     -0.00     -0.00
                               -0.00 -43117.99     -0.00
                               -0.00     -0.00 -43117.99

     ewald   stress (kbar) -49186.33     -0.00     -0.00
                               -0.00 -49186.33     -0.00
                               -0.00     -0.00 -49186.33

     hubbard stress (kbar)      0.00      0.00      0.00
                                0.00      0.00      0.00
                                0.00      0.00      0.00

     london  stress (kbar)      0.00      0.00      0.00
                                0.00      0.00      0.00
                                0.00      0.00      0.00

     DFT-D3  stress (kbar)      0.00      0.00      0.00
                                0.00      0.00      0.00
                                0.00      0.00      0.00

     XDM     stress (kbar)      0.00      0.00      0.00
                                0.00      0.00      0.00
                                0.00      0.00      0.00

     dft-nl  stress (kbar)      0.00      0.00      0.00
                                0.00      0.00      0.00
                                0.00      0.00      0.00

     TS-vdW  stress (kbar)      0.00      0.00      0.00
                                0.00      0.00      0.00
                                0.00      0.00      0.00



     number of scf cycles    =   6
     number of bfgs steps    =   5

     enthalpy old            =    -121.5732857531 Ry
     enthalpy new            =    -121.4972849898 Ry

     CASE: enthalpy_new > enthalpy_old

     new trust radius        =       0.0000000014 bohr

     trust_radius < trust_radius_min

     resetting bfgs history

     new conv_thr            =            1.0E-10 Ry

     new unit-cell volume =     80.43690 a.u.^3 (    11.91952 Ang^3 )
     density =      8.85276 g/cm^3

CELL_PARAMETERS (angstrom)
  -1.813049161   1.813049161   0.000000000
  -1.813049161   0.000000000   1.813049161
  -0.000000000   1.813049161   1.813049161

ATOMIC_POSITIONS (crystal)
Cu       0.000000000   0.000000000   0.000000000



     lsda relaxation :  a final configuration with zero
                        absolute magnetization has been found

     the program is checking if it is really the minimum energy structure
     by performing a new scf iteration without any "electronic" history

     Initial potential from superposition of free atoms

     starting charge   10.98818, renormalised to   11.00000

     total cpu time spent up to now is     1090.2 secs

     Self-consistent Calculation

     iteration #  1     ecut=    55.00 Ry     beta= 0.70
     Davidson diagonalization with overlap
     ethr =  1.00E-06,  avg # of iterations =  3.4

     total cpu time spent up to now is     1115.4 secs

     WARNING: integrated charge=    10.98858148, expected=    11.00000000

 %%%%%%%%%%%%%%%%%%%%%%%%%%%%%%%%%%%%%%%%%%%%%%%%%%%%%%%%%%%%%%%%%%%%%%%%%%%%%%
     Error in routine electrons (1):

 %%%%%%%%%%%%%%%%%%%%%%%%%%%%%%%%%%%%%%%%%%%%%%%%%%%%%%%%%%%%%%%%%%%%%%%%%%%%%%
     Error in routine electrons (1):
     charge is wrong
 %%%%%%%%%%%%%%%%%%%%%%%%%%%%%%%%%%%%%%%%%%%%%%%%%%%%%%%%%%%%%%%%%%%%%%%%%%%%%%
     charge is wrong
 %%%%%%%%%%%%%%%%%%%%%%%%%%%%%%%%%%%%%%%%%%%%%%%%%%%%%%%%%%%%%%%%%%%%%%%%%%%%%%

     stopping ...

     stopping ...

 %%%%%%%%%%%%%%%%%%%%%%%%%%%%%%%%%%%%%%%%%%%%%%%%%%%%%%%%%%%%%%%%%%%%%%%%%%%%%%
     Error in routine electrons (1):

 %%%%%%%%%%%%%%%%%%%%%%%%%%%%%%%%%%%%%%%%%%%%%%%%%%%%%%%%%%%%%%%%%%%%%%%%%%%%%%
     Error in routine electrons (1):
     charge is wrong
 %%%%%%%%%%%%%%%%%%%%%%%%%%%%%%%%%%%%%%%%%%%%%%%%%%%%%%%%%%%%%%%%%%%%%%%%%%%%%%

     stopping ...
     charge is wrong
 %%%%%%%%%%%%%%%%%%%%%%%%%%%%%%%%%%%%%%%%%%%%%%%%%%%%%%%%%%%%%%%%%%%%%%%%%%%%%%

     stopping ...

 %%%%%%%%%%%%%%%%%%%%%%%%%%%%%%%%%%%%%%%%%%%%%%%%%%%%%%%%%%%%%%%%%%%%%%%%%%%%%%
     Error in routine electrons (1):
     charge is wrong
 %%%%%%%%%%%%%%%%%%%%%%%%%%%%%%%%%%%%%%%%%%%%%%%%%%%%%%%%%%%%%%%%%%%%%%%%%%%%%%

     stopping ...
