
     Program PWSCF v.6.3MaX starts on 21Feb2019 at  1:19:44 

     This program is part of the open-source Quantum ESPRESSO suite
     for quantum simulation of materials; please cite
         "P. Giannozzi et al., J. Phys.:Condens. Matter 21 395502 (2009);
         "P. Giannozzi et al., J. Phys.:Condens. Matter 29 465901 (2017);
          URL http://www.quantum-espresso.org", 
     in publications or presentations arising from this work. More details at
     http://www.quantum-espresso.org/quote

 *** WARNING: using old-style file format, will disappear from next version ***

     Parallel version (MPI & OpenMP), running on      20 processor cores
     Number of MPI processes:                 5
     Threads/MPI process:                     4

     MPI processes distributed on     1 nodes
     R & G space division:  proc/nbgrp/npool/nimage =       5
     Reading input from /home/azadoks/dftman/projects/GP01 Cu Ecut/ConvergenceWorkflows/f82417787d3f/48c1e8d66c76/pwscf.in

     Current dimensions of program PWSCF are:
     Max number of different atomic species (ntypx) = 10
     Max number of k-points (npk) =  40000
     Max angular momentum in pseudopotentials (lmaxx) =  3
     Message from routine iosys:
     minimal I/O required, wf_collect reset to FALSE

     Subspace diagonalization in iterative solution of the eigenvalue problem:
     a serial algorithm will be used

 
     Parallelization info
     --------------------
     sticks:   dense  smooth     PW     G-vecs:    dense   smooth      PW
     Min          39      39     14                  361      361      82
     Max          40      40     15                  363      363      83
     Sum         199     199     73                 1807     1807     411
 


     bravais-lattice index     =            0
     lattice parameter (alat)  =       4.8305  a.u.
     unit-cell volume          =      79.7006 (a.u.)^3
     number of atoms/cell      =            1
     number of atomic types    =            1
     number of electrons       =        11.00
     number of Kohn-Sham states=           10
     kinetic-energy cutoff     =      30.0000  Ry
     charge density cutoff     =     120.0000  Ry
     convergence threshold     =      1.0E-08
     mixing beta               =       0.7000
     number of iterations used =            8  plain     mixing
     Exchange-correlation      =  SLA  PW   PBE  PBE ( 1  4  3  4 0 0)
     nstep                     =           50


     celldm(1)=   4.830501  celldm(2)=   0.000000  celldm(3)=   0.000000
     celldm(4)=   0.000000  celldm(5)=   0.000000  celldm(6)=   0.000000

     crystal axes: (cart. coord. in units of alat)
               a(1) = (  -0.707107   0.707107   0.000000 )  
               a(2) = (  -0.707107   0.000000   0.707107 )  
               a(3) = (   0.000000   0.707107   0.707107 )  

     reciprocal axes: (cart. coord. in units 2 pi/alat)
               b(1) = ( -0.707107  0.707107 -0.707107 )  
               b(2) = ( -0.707107 -0.707107  0.707107 )  
               b(3) = (  0.707107  0.707107  0.707107 )  


     PseudoPot. # 1 for Cu read from file:
     /home/azadoks/.local/share/pseudo/DFTQE_PBE/Cu_PBE.UPF
     MD5 check sum: f96b10b0f61dc418faf9c97f6ccca034
     Pseudo is Ultrasoft + core correction, Zval = 11.0
     Generated by new atomic code, or converted to UPF format
     Using radial grid of  867 points,  6 beta functions with: 
                l(1) =   0
                l(2) =   0
                l(3) =   1
                l(4) =   1
                l(5) =   2
                l(6) =   2
     Q(r) pseudized with  8 coefficients,  rinner =    1.400   1.400   1.400
                                                       1.400   1.400

     atomic species   valence    mass     pseudopotential
        Cu            11.00    63.54600     Cu( 1.00)

     Starting magnetic structure 
     atomic species   magnetization
        Cu           0.100

     48 Sym. Ops., with inversion, found


                                    s                        frac. trans.

      isym =  1     identity                                     

 cryst.   s( 1) = (     1          0          0      )
                  (     0          1          0      )
                  (     0          0          1      )

 cart.    s( 1) = (  1.0000000 -0.0000000  0.0000000 )
                  ( -0.0000000  1.0000000 -0.0000000 )
                  ( -0.0000000 -0.0000000  1.0000000 )


      isym =  2     180 deg rotation - cart. axis [0,0,1]        

 cryst.   s( 2) = (    -1          0          0      )
                  (    -1          0          1      )
                  (    -1          1          0      )

 cart.    s( 2) = ( -1.0000000  0.0000000  0.0000000 )
                  (  0.0000000 -1.0000000 -0.0000000 )
                  (  0.0000000  0.0000000  1.0000000 )


      isym =  3     180 deg rotation - cart. axis [0,1,0]        

 cryst.   s( 3) = (     0         -1          1      )
                  (     0         -1          0      )
                  (     1         -1          0      )

 cart.    s( 3) = ( -1.0000000 -0.0000000 -0.0000000 )
                  (  0.0000000  1.0000000  0.0000000 )
                  (  0.0000000 -0.0000000 -1.0000000 )


      isym =  4     180 deg rotation - cart. axis [1,0,0]        

 cryst.   s( 4) = (     0          1         -1      )
                  (     1          0         -1      )
                  (     0          0         -1      )

 cart.    s( 4) = (  1.0000000  0.0000000 -0.0000000 )
                  ( -0.0000000 -1.0000000  0.0000000 )
                  ( -0.0000000  0.0000000 -1.0000000 )


      isym =  5     180 deg rotation - cart. axis [1,1,0]        

 cryst.   s( 5) = (    -1          0          0      )
                  (     0          0         -1      )
                  (     0         -1          0      )

 cart.    s( 5) = ( -0.0000000  1.0000000 -0.0000000 )
                  (  1.0000000 -0.0000000  0.0000000 )
                  ( -0.0000000 -0.0000000 -1.0000000 )


      isym =  6     180 deg rotation - cart. axis [1,-1,0]       

 cryst.   s( 6) = (     1          0          0      )
                  (     1         -1          0      )
                  (     1          0         -1      )

 cart.    s( 6) = (  0.0000000 -1.0000000 -0.0000000 )
                  ( -1.0000000  0.0000000  0.0000000 )
                  (  0.0000000  0.0000000 -1.0000000 )


      isym =  7      90 deg rotation - cart. axis [0,0,-1]       

 cryst.   s( 7) = (     0         -1          1      )
                  (     0          0          1      )
                  (    -1          0          1      )

 cart.    s( 7) = (  0.0000000  1.0000000  0.0000000 )
                  ( -1.0000000 -0.0000000 -0.0000000 )
                  (  0.0000000 -0.0000000  1.0000000 )


      isym =  8      90 deg rotation - cart. axis [0,0,1]        

 cryst.   s( 8) = (     0          1         -1      )
                  (    -1          1          0      )
                  (     0          1          0      )

 cart.    s( 8) = ( -0.0000000 -1.0000000  0.0000000 )
                  (  1.0000000  0.0000000 -0.0000000 )
                  ( -0.0000000  0.0000000  1.0000000 )


      isym =  9     180 deg rotation - cart. axis [1,0,1]        

 cryst.   s( 9) = (     0          0         -1      )
                  (     0         -1          0      )
                  (    -1          0          0      )

 cart.    s( 9) = (  0.0000000  0.0000000  1.0000000 )
                  ( -0.0000000 -1.0000000 -0.0000000 )
                  (  1.0000000  0.0000000 -0.0000000 )


      isym = 10     180 deg rotation - cart. axis [-1,0,1]       

 cryst.   s(10) = (    -1          1          0      )
                  (     0          1          0      )
                  (     0          1         -1      )

 cart.    s(10) = ( -0.0000000  0.0000000 -1.0000000 )
                  (  0.0000000 -1.0000000  0.0000000 )
                  ( -1.0000000  0.0000000  0.0000000 )


      isym = 11      90 deg rotation - cart. axis [0,1,0]        

 cryst.   s(11) = (     0          0          1      )
                  (    -1          0          1      )
                  (     0         -1          1      )

 cart.    s(11) = ( -0.0000000 -0.0000000  1.0000000 )
                  (  0.0000000  1.0000000 -0.0000000 )
                  ( -1.0000000 -0.0000000 -0.0000000 )


      isym = 12      90 deg rotation - cart. axis [0,-1,0]       

 cryst.   s(12) = (     1         -1          0      )
                  (     1          0         -1      )
                  (     1          0          0      )

 cart.    s(12) = (  0.0000000 -0.0000000 -1.0000000 )
                  ( -0.0000000  1.0000000  0.0000000 )
                  (  1.0000000 -0.0000000  0.0000000 )


      isym = 13     180 deg rotation - cart. axis [0,1,1]        

 cryst.   s(13) = (    -1          0          1      )
                  (     0         -1          1      )
                  (     0          0          1      )

 cart.    s(13) = ( -1.0000000  0.0000000 -0.0000000 )
                  (  0.0000000 -0.0000000  1.0000000 )
                  (  0.0000000  1.0000000 -0.0000000 )


      isym = 14     180 deg rotation - cart. axis [0,1,-1]       

 cryst.   s(14) = (     0         -1          0      )
                  (    -1          0          0      )
                  (     0          0         -1      )

 cart.    s(14) = ( -1.0000000 -0.0000000  0.0000000 )
                  (  0.0000000  0.0000000 -1.0000000 )
                  (  0.0000000 -1.0000000  0.0000000 )


      isym = 15      90 deg rotation - cart. axis [-1,0,0]       

 cryst.   s(15) = (     1          0         -1      )
                  (     1          0          0      )
                  (     1         -1          0      )

 cart.    s(15) = (  1.0000000 -0.0000000 -0.0000000 )
                  ( -0.0000000  0.0000000  1.0000000 )
                  ( -0.0000000 -1.0000000 -0.0000000 )


      isym = 16      90 deg rotation - cart. axis [1,0,0]        

 cryst.   s(16) = (     0          1          0      )
                  (     0          1         -1      )
                  (    -1          1          0      )

 cart.    s(16) = (  1.0000000  0.0000000  0.0000000 )
                  ( -0.0000000 -0.0000000 -1.0000000 )
                  ( -0.0000000  1.0000000  0.0000000 )


      isym = 17     120 deg rotation - cart. axis [-1,-1,-1]     

 cryst.   s(17) = (     0         -1          0      )
                  (     1         -1          0      )
                  (     0         -1          1      )

 cart.    s(17) = (  0.0000000  1.0000000 -0.0000000 )
                  ( -0.0000000 -0.0000000  1.0000000 )
                  (  1.0000000 -0.0000000 -0.0000000 )


      isym = 18     120 deg rotation - cart. axis [-1,1,1]       

 cryst.   s(18) = (     0          1          0      )
                  (     0          0          1      )
                  (     1          0          0      )

 cart.    s(18) = ( -0.0000000 -1.0000000 -0.0000000 )
                  (  0.0000000  0.0000000  1.0000000 )
                  ( -1.0000000  0.0000000 -0.0000000 )


      isym = 19     120 deg rotation - cart. axis [1,1,-1]       

 cryst.   s(19) = (    -1          0          1      )
                  (    -1          1          0      )
                  (    -1          0          0      )

 cart.    s(19) = ( -0.0000000  1.0000000  0.0000000 )
                  (  0.0000000 -0.0000000 -1.0000000 )
                  ( -1.0000000 -0.0000000  0.0000000 )


      isym = 20     120 deg rotation - cart. axis [1,-1,1]       

 cryst.   s(20) = (     1          0         -1      )
                  (     0          0         -1      )
                  (     0          1         -1      )

 cart.    s(20) = (  0.0000000 -1.0000000  0.0000000 )
                  ( -0.0000000  0.0000000 -1.0000000 )
                  (  1.0000000  0.0000000  0.0000000 )


      isym = 21     120 deg rotation - cart. axis [1,1,1]        

 cryst.   s(21) = (    -1          1          0      )
                  (    -1          0          0      )
                  (    -1          0          1      )

 cart.    s(21) = ( -0.0000000  0.0000000  1.0000000 )
                  (  1.0000000 -0.0000000 -0.0000000 )
                  ( -0.0000000  1.0000000 -0.0000000 )


      isym = 22     120 deg rotation - cart. axis [-1,1,-1]      

 cryst.   s(22) = (     1         -1          0      )
                  (     0         -1          1      )
                  (     0         -1          0      )

 cart.    s(22) = (  0.0000000 -0.0000000  1.0000000 )
                  ( -1.0000000  0.0000000 -0.0000000 )
                  (  0.0000000 -1.0000000 -0.0000000 )


      isym = 23     120 deg rotation - cart. axis [1,-1,-1]      

 cryst.   s(23) = (     0          0          1      )
                  (     1          0          0      )
                  (     0          1          0      )

 cart.    s(23) = (  0.0000000  0.0000000 -1.0000000 )
                  ( -1.0000000 -0.0000000  0.0000000 )
                  (  0.0000000  1.0000000  0.0000000 )


      isym = 24     120 deg rotation - cart. axis [-1,-1,1]      

 cryst.   s(24) = (     0          0         -1      )
                  (     0          1         -1      )
                  (     1          0         -1      )

 cart.    s(24) = ( -0.0000000 -0.0000000 -1.0000000 )
                  (  1.0000000  0.0000000  0.0000000 )
                  ( -0.0000000 -1.0000000  0.0000000 )


      isym = 25     inversion                                    

 cryst.   s(25) = (    -1          0          0      )
                  (     0         -1          0      )
                  (     0          0         -1      )

 cart.    s(25) = ( -1.0000000  0.0000000 -0.0000000 )
                  (  0.0000000 -1.0000000  0.0000000 )
                  (  0.0000000  0.0000000 -1.0000000 )


      isym = 26     inv. 180 deg rotation - cart. axis [0,0,1]   

 cryst.   s(26) = (     1          0          0      )
                  (     1          0         -1      )
                  (     1         -1          0      )

 cart.    s(26) = (  1.0000000 -0.0000000 -0.0000000 )
                  ( -0.0000000  1.0000000  0.0000000 )
                  ( -0.0000000 -0.0000000 -1.0000000 )


      isym = 27     inv. 180 deg rotation - cart. axis [0,1,0]   

 cryst.   s(27) = (     0          1         -1      )
                  (     0          1          0      )
                  (    -1          1          0      )

 cart.    s(27) = (  1.0000000  0.0000000  0.0000000 )
                  ( -0.0000000 -1.0000000 -0.0000000 )
                  ( -0.0000000  0.0000000  1.0000000 )


      isym = 28     inv. 180 deg rotation - cart. axis [1,0,0]   

 cryst.   s(28) = (     0         -1          1      )
                  (    -1          0          1      )
                  (     0          0          1      )

 cart.    s(28) = ( -1.0000000 -0.0000000  0.0000000 )
                  (  0.0000000  1.0000000 -0.0000000 )
                  (  0.0000000 -0.0000000  1.0000000 )


      isym = 29     inv. 180 deg rotation - cart. axis [1,1,0]   

 cryst.   s(29) = (     1          0          0      )
                  (     0          0          1      )
                  (     0          1          0      )

 cart.    s(29) = (  0.0000000 -1.0000000  0.0000000 )
                  ( -1.0000000  0.0000000 -0.0000000 )
                  (  0.0000000  0.0000000  1.0000000 )


      isym = 30     inv. 180 deg rotation - cart. axis [1,-1,0]  

 cryst.   s(30) = (    -1          0          0      )
                  (    -1          1          0      )
                  (    -1          0          1      )

 cart.    s(30) = ( -0.0000000  1.0000000  0.0000000 )
                  (  1.0000000 -0.0000000 -0.0000000 )
                  ( -0.0000000 -0.0000000  1.0000000 )


      isym = 31     inv.  90 deg rotation - cart. axis [0,0,-1]  

 cryst.   s(31) = (     0          1         -1      )
                  (     0          0         -1      )
                  (     1          0         -1      )

 cart.    s(31) = ( -0.0000000 -1.0000000 -0.0000000 )
                  (  1.0000000  0.0000000  0.0000000 )
                  ( -0.0000000  0.0000000 -1.0000000 )


      isym = 32     inv.  90 deg rotation - cart. axis [0,0,1]   

 cryst.   s(32) = (     0         -1          1      )
                  (     1         -1          0      )
                  (     0         -1          0      )

 cart.    s(32) = (  0.0000000  1.0000000 -0.0000000 )
                  ( -1.0000000 -0.0000000  0.0000000 )
                  (  0.0000000 -0.0000000 -1.0000000 )


      isym = 33     inv. 180 deg rotation - cart. axis [1,0,1]   

 cryst.   s(33) = (     0          0          1      )
                  (     0          1          0      )
                  (     1          0          0      )

 cart.    s(33) = ( -0.0000000 -0.0000000 -1.0000000 )
                  (  0.0000000  1.0000000  0.0000000 )
                  ( -1.0000000 -0.0000000  0.0000000 )


      isym = 34     inv. 180 deg rotation - cart. axis [-1,0,1]  

 cryst.   s(34) = (     1         -1          0      )
                  (     0         -1          0      )
                  (     0         -1          1      )

 cart.    s(34) = (  0.0000000 -0.0000000  1.0000000 )
                  ( -0.0000000  1.0000000 -0.0000000 )
                  (  1.0000000 -0.0000000 -0.0000000 )


      isym = 35     inv.  90 deg rotation - cart. axis [0,1,0]   

 cryst.   s(35) = (     0          0         -1      )
                  (     1          0         -1      )
                  (     0          1         -1      )

 cart.    s(35) = (  0.0000000  0.0000000 -1.0000000 )
                  ( -0.0000000 -1.0000000  0.0000000 )
                  (  1.0000000  0.0000000  0.0000000 )


      isym = 36     inv.  90 deg rotation - cart. axis [0,-1,0]  

 cryst.   s(36) = (    -1          1          0      )
                  (    -1          0          1      )
                  (    -1          0          0      )

 cart.    s(36) = ( -0.0000000  0.0000000  1.0000000 )
                  (  0.0000000 -1.0000000 -0.0000000 )
                  ( -1.0000000  0.0000000 -0.0000000 )


      isym = 37     inv. 180 deg rotation - cart. axis [0,1,1]   

 cryst.   s(37) = (     1          0         -1      )
                  (     0          1         -1      )
                  (     0          0         -1      )

 cart.    s(37) = (  1.0000000 -0.0000000  0.0000000 )
                  ( -0.0000000  0.0000000 -1.0000000 )
                  ( -0.0000000 -1.0000000  0.0000000 )


      isym = 38     inv. 180 deg rotation - cart. axis [0,1,-1]  

 cryst.   s(38) = (     0          1          0      )
                  (     1          0          0      )
                  (     0          0          1      )

 cart.    s(38) = (  1.0000000  0.0000000 -0.0000000 )
                  ( -0.0000000 -0.0000000  1.0000000 )
                  ( -0.0000000  1.0000000 -0.0000000 )


      isym = 39     inv.  90 deg rotation - cart. axis [-1,0,0]  

 cryst.   s(39) = (    -1          0          1      )
                  (    -1          0          0      )
                  (    -1          1          0      )

 cart.    s(39) = ( -1.0000000  0.0000000  0.0000000 )
                  (  0.0000000 -0.0000000 -1.0000000 )
                  (  0.0000000  1.0000000  0.0000000 )


      isym = 40     inv.  90 deg rotation - cart. axis [1,0,0]   

 cryst.   s(40) = (     0         -1          0      )
                  (     0         -1          1      )
                  (     1         -1          0      )

 cart.    s(40) = ( -1.0000000 -0.0000000 -0.0000000 )
                  (  0.0000000  0.0000000  1.0000000 )
                  (  0.0000000 -1.0000000 -0.0000000 )


      isym = 41     inv. 120 deg rotation - cart. axis [-1,-1,-1]

 cryst.   s(41) = (     0          1          0      )
                  (    -1          1          0      )
                  (     0          1         -1      )

 cart.    s(41) = ( -0.0000000 -1.0000000  0.0000000 )
                  (  0.0000000  0.0000000 -1.0000000 )
                  ( -1.0000000  0.0000000  0.0000000 )


      isym = 42     inv. 120 deg rotation - cart. axis [-1,1,1]  

 cryst.   s(42) = (     0         -1          0      )
                  (     0          0         -1      )
                  (    -1          0          0      )

 cart.    s(42) = (  0.0000000  1.0000000  0.0000000 )
                  ( -0.0000000 -0.0000000 -1.0000000 )
                  (  1.0000000 -0.0000000  0.0000000 )


      isym = 43     inv. 120 deg rotation - cart. axis [1,1,-1]  

 cryst.   s(43) = (     1          0         -1      )
                  (     1         -1          0      )
                  (     1          0          0      )

 cart.    s(43) = (  0.0000000 -1.0000000 -0.0000000 )
                  ( -0.0000000  0.0000000  1.0000000 )
                  (  1.0000000  0.0000000 -0.0000000 )


      isym = 44     inv. 120 deg rotation - cart. axis [1,-1,1]  

 cryst.   s(44) = (    -1          0          1      )
                  (     0          0          1      )
                  (     0         -1          1      )

 cart.    s(44) = ( -0.0000000  1.0000000 -0.0000000 )
                  (  0.0000000 -0.0000000  1.0000000 )
                  ( -1.0000000 -0.0000000 -0.0000000 )


      isym = 45     inv. 120 deg rotation - cart. axis [1,1,1]   

 cryst.   s(45) = (     1         -1          0      )
                  (     1          0          0      )
                  (     1          0         -1      )

 cart.    s(45) = (  0.0000000 -0.0000000 -1.0000000 )
                  ( -1.0000000  0.0000000  0.0000000 )
                  (  0.0000000 -1.0000000  0.0000000 )


      isym = 46     inv. 120 deg rotation - cart. axis [-1,1,-1] 

 cryst.   s(46) = (    -1          1          0      )
                  (     0          1         -1      )
                  (     0          1          0      )

 cart.    s(46) = ( -0.0000000  0.0000000 -1.0000000 )
                  (  1.0000000 -0.0000000  0.0000000 )
                  ( -0.0000000  1.0000000  0.0000000 )


      isym = 47     inv. 120 deg rotation - cart. axis [1,-1,-1] 

 cryst.   s(47) = (     0          0         -1      )
                  (    -1          0          0      )
                  (     0         -1          0      )

 cart.    s(47) = ( -0.0000000 -0.0000000  1.0000000 )
                  (  1.0000000  0.0000000 -0.0000000 )
                  ( -0.0000000 -1.0000000 -0.0000000 )


      isym = 48     inv. 120 deg rotation - cart. axis [-1,-1,1] 

 cryst.   s(48) = (     0          0          1      )
                  (     0         -1          1      )
                  (    -1          0          1      )

 cart.    s(48) = (  0.0000000  0.0000000  1.0000000 )
                  ( -1.0000000 -0.0000000 -0.0000000 )
                  (  0.0000000  1.0000000 -0.0000000 )


   Cartesian axes

     site n.     atom                  positions (alat units)
         1           Cu  tau(   1) = (   0.0000000   0.0000000   0.0000000  )

   Crystallographic axes

     site n.     atom                  positions (cryst. coord.)
         1           Cu  tau(   1) = (  0.0000000  0.0000000  0.0000000  )

     number of k points=    72  Marzari-Vanderbilt smearing, width (Ry)=  0.0100
                       cart. coord. in units 2pi/alat
        k(    1) = (   0.0000000   0.0000000   0.0000000), wk =   0.0005787
        k(    2) = (   0.0589256   0.0589256   0.0589256), wk =   0.0046296
        k(    3) = (   0.1178511   0.1178511   0.1178511), wk =   0.0046296
        k(    4) = (   0.1767767   0.1767767   0.1767767), wk =   0.0046296
        k(    5) = (   0.2357023   0.2357023   0.2357023), wk =   0.0046296
        k(    6) = (   0.2946278   0.2946278   0.2946278), wk =   0.0046296
        k(    7) = (  -0.3535534  -0.3535534  -0.3535534), wk =   0.0023148
        k(    8) = (   0.0000000   0.0000000   0.1178511), wk =   0.0034722
        k(    9) = (   0.0589256   0.0589256   0.1767767), wk =   0.0138889
        k(   10) = (   0.1178511   0.1178511   0.2357023), wk =   0.0138889
        k(   11) = (   0.1767767   0.1767767   0.2946278), wk =   0.0138889
        k(   12) = (   0.2357023   0.2357023   0.3535534), wk =   0.0138889
        k(   13) = (  -0.4124790  -0.4124790  -0.2946278), wk =   0.0138889
        k(   14) = (  -0.3535534  -0.3535534  -0.2357023), wk =   0.0138889
        k(   15) = (  -0.2946278  -0.2946278  -0.1767767), wk =   0.0138889
        k(   16) = (  -0.2357023  -0.2357023  -0.1178511), wk =   0.0138889
        k(   17) = (  -0.1767767  -0.1767767  -0.0589256), wk =   0.0138889
        k(   18) = (  -0.1178511  -0.1178511  -0.0000000), wk =   0.0069444
        k(   19) = (   0.0000000   0.0000000   0.2357023), wk =   0.0034722
        k(   20) = (   0.0589256   0.0589256   0.2946278), wk =   0.0138889
        k(   21) = (   0.1178511   0.1178511   0.3535534), wk =   0.0138889
        k(   22) = (   0.1767767   0.1767767   0.4124790), wk =   0.0138889
        k(   23) = (  -0.4714045  -0.4714045  -0.2357023), wk =   0.0138889
        k(   24) = (  -0.4124790  -0.4124790  -0.1767767), wk =   0.0138889
        k(   25) = (  -0.3535534  -0.3535534  -0.1178511), wk =   0.0138889
        k(   26) = (  -0.2946278  -0.2946278  -0.0589256), wk =   0.0138889
        k(   27) = (  -0.2357023  -0.2357023   0.0000000), wk =   0.0069444
        k(   28) = (   0.0000000   0.0000000   0.3535534), wk =   0.0034722
        k(   29) = (   0.0589256   0.0589256   0.4124790), wk =   0.0138889
        k(   30) = (   0.1178511   0.1178511   0.4714045), wk =   0.0138889
        k(   31) = (  -0.5303301  -0.5303301  -0.1767767), wk =   0.0138889
        k(   32) = (  -0.4714045  -0.4714045  -0.1178511), wk =   0.0138889
        k(   33) = (  -0.4124790  -0.4124790  -0.0589256), wk =   0.0138889
        k(   34) = (  -0.3535534  -0.3535534   0.0000000), wk =   0.0069444
        k(   35) = (   0.0000000   0.0000000   0.4714045), wk =   0.0034722
        k(   36) = (   0.0589256   0.0589256   0.5303301), wk =   0.0138889
        k(   37) = (  -0.5892557  -0.5892557  -0.1178511), wk =   0.0138889
        k(   38) = (  -0.5303301  -0.5303301  -0.0589256), wk =   0.0138889
        k(   39) = (  -0.4714045  -0.4714045  -0.0000000), wk =   0.0069444
        k(   40) = (   0.0000000   0.0000000   0.5892557), wk =   0.0034722
        k(   41) = (  -0.6481812  -0.6481812  -0.0589256), wk =   0.0138889
        k(   42) = (  -0.5892557  -0.5892557   0.0000000), wk =   0.0069444
        k(   43) = (   0.0000000   0.0000000  -0.7071068), wk =   0.0017361
        k(   44) = (   0.0000000   0.1178511   0.2357023), wk =   0.0138889
        k(   45) = (   0.0589256   0.1767767   0.2946278), wk =   0.0277778
        k(   46) = (   0.1178511   0.2357023   0.3535534), wk =   0.0277778
        k(   47) = (  -0.5303301  -0.4124790  -0.2946278), wk =   0.0277778
        k(   48) = (  -0.4714045  -0.3535534  -0.2357023), wk =   0.0138889
        k(   49) = (  -0.0000000   0.1178511   0.3535534), wk =   0.0138889
        k(   50) = (   0.0589256   0.1767767   0.4124790), wk =   0.0277778
        k(   51) = (  -0.5892557  -0.4714045  -0.2357023), wk =   0.0277778
        k(   52) = (  -0.5303301  -0.4124790  -0.1767767), wk =   0.0277778
        k(   53) = (  -0.4714045  -0.3535534  -0.1178511), wk =   0.0277778
        k(   54) = (  -0.4124790  -0.2946278  -0.0589256), wk =   0.0277778
        k(   55) = (  -0.3535534  -0.2357023   0.0000000), wk =   0.0138889
        k(   56) = (   0.0000000   0.1178511   0.4714045), wk =   0.0138889
        k(   57) = (  -0.6481812  -0.5303301  -0.1767767), wk =   0.0277778
        k(   58) = (  -0.5892557  -0.4714045  -0.1178511), wk =   0.0277778
        k(   59) = (  -0.5303301  -0.4124790  -0.0589256), wk =   0.0277778
        k(   60) = (  -0.4714045  -0.3535534  -0.0000000), wk =   0.0138889
        k(   61) = (  -0.7071068  -0.5892557  -0.1178511), wk =   0.0138889
        k(   62) = (  -0.6481812  -0.5303301  -0.0589256), wk =   0.0277778
        k(   63) = (  -0.5892557  -0.4714045  -0.0000000), wk =   0.0138889
        k(   64) = (   0.0000000   0.1178511  -0.7071068), wk =   0.0069444
        k(   65) = (  -0.7071068  -0.4714045  -0.2357023), wk =   0.0138889
        k(   66) = (  -0.6481812  -0.4124790  -0.1767767), wk =   0.0277778
        k(   67) = (  -0.5892557  -0.3535534  -0.1178511), wk =   0.0138889
        k(   68) = (  -0.7071068  -0.4714045  -0.1178511), wk =   0.0138889
        k(   69) = (  -0.6481812  -0.4124790  -0.0589256), wk =   0.0277778
        k(   70) = (  -0.5892557  -0.3535534   0.0000000), wk =   0.0138889
        k(   71) = (  -0.0000000   0.2357023  -0.7071068), wk =   0.0069444
        k(   72) = (   0.0000000   0.3535534  -0.7071068), wk =   0.0034722

                       cryst. coord.
        k(    1) = (   0.0000000   0.0000000   0.0000000), wk =   0.0005787
        k(    2) = (   0.0000000  -0.0000000   0.0833333), wk =   0.0046296
        k(    3) = (   0.0000000  -0.0000000   0.1666667), wk =   0.0046296
        k(    4) = (   0.0000000  -0.0000000   0.2500000), wk =   0.0046296
        k(    5) = (   0.0000000  -0.0000000   0.3333333), wk =   0.0046296
        k(    6) = (  -0.0000000   0.0000000   0.4166667), wk =   0.0046296
        k(    7) = (  -0.0000000   0.0000000  -0.5000000), wk =   0.0023148
        k(    8) = (  -0.0000000   0.0833333   0.0833333), wk =   0.0034722
        k(    9) = (   0.0000000   0.0833333   0.1666667), wk =   0.0138889
        k(   10) = (  -0.0000000   0.0833333   0.2500000), wk =   0.0138889
        k(   11) = (   0.0000000   0.0833333   0.3333333), wk =   0.0138889
        k(   12) = (  -0.0000000   0.0833333   0.4166667), wk =   0.0138889
        k(   13) = (  -0.0000000   0.0833333  -0.5000000), wk =   0.0138889
        k(   14) = (  -0.0000000   0.0833333  -0.4166667), wk =   0.0138889
        k(   15) = (  -0.0000000   0.0833333  -0.3333333), wk =   0.0138889
        k(   16) = (  -0.0000000   0.0833333  -0.2500000), wk =   0.0138889
        k(   17) = (  -0.0000000   0.0833333  -0.1666667), wk =   0.0138889
        k(   18) = (   0.0000000   0.0833333  -0.0833333), wk =   0.0069444
        k(   19) = (  -0.0000000   0.1666667   0.1666667), wk =   0.0034722
        k(   20) = (  -0.0000000   0.1666667   0.2500000), wk =   0.0138889
        k(   21) = (   0.0000000   0.1666667   0.3333333), wk =   0.0138889
        k(   22) = (  -0.0000000   0.1666667   0.4166667), wk =   0.0138889
        k(   23) = (  -0.0000000   0.1666667  -0.5000000), wk =   0.0138889
        k(   24) = (  -0.0000000   0.1666667  -0.4166667), wk =   0.0138889
        k(   25) = (  -0.0000000   0.1666667  -0.3333333), wk =   0.0138889
        k(   26) = (   0.0000000   0.1666667  -0.2500000), wk =   0.0138889
        k(   27) = (  -0.0000000   0.1666667  -0.1666667), wk =   0.0069444
        k(   28) = (   0.0000000   0.2500000   0.2500000), wk =   0.0034722
        k(   29) = (   0.0000000   0.2500000   0.3333333), wk =   0.0138889
        k(   30) = (  -0.0000000   0.2500000   0.4166667), wk =   0.0138889
        k(   31) = (   0.0000000   0.2500000  -0.5000000), wk =   0.0138889
        k(   32) = (  -0.0000000   0.2500000  -0.4166667), wk =   0.0138889
        k(   33) = (  -0.0000000   0.2500000  -0.3333333), wk =   0.0138889
        k(   34) = (  -0.0000000   0.2500000  -0.2500000), wk =   0.0069444
        k(   35) = (  -0.0000000   0.3333333   0.3333333), wk =   0.0034722
        k(   36) = (  -0.0000000   0.3333333   0.4166667), wk =   0.0138889
        k(   37) = (   0.0000000   0.3333333  -0.5000000), wk =   0.0138889
        k(   38) = (  -0.0000000   0.3333333  -0.4166667), wk =   0.0138889
        k(   39) = (   0.0000000   0.3333333  -0.3333333), wk =   0.0069444
        k(   40) = (   0.0000000   0.4166667   0.4166667), wk =   0.0034722
        k(   41) = (  -0.0000000   0.4166667  -0.5000000), wk =   0.0138889
        k(   42) = (   0.0000000   0.4166667  -0.4166667), wk =   0.0069444
        k(   43) = (   0.0000000  -0.5000000  -0.5000000), wk =   0.0017361
        k(   44) = (   0.0833333   0.1666667   0.2500000), wk =   0.0138889
        k(   45) = (   0.0833333   0.1666667   0.3333333), wk =   0.0277778
        k(   46) = (   0.0833333   0.1666667   0.4166667), wk =   0.0277778
        k(   47) = (   0.0833333   0.1666667  -0.5000000), wk =   0.0277778
        k(   48) = (   0.0833333   0.1666667  -0.4166667), wk =   0.0138889
        k(   49) = (   0.0833333   0.2500000   0.3333333), wk =   0.0138889
        k(   50) = (   0.0833333   0.2500000   0.4166667), wk =   0.0277778
        k(   51) = (   0.0833333   0.2500000  -0.5000000), wk =   0.0277778
        k(   52) = (   0.0833333   0.2500000  -0.4166667), wk =   0.0277778
        k(   53) = (   0.0833333   0.2500000  -0.3333333), wk =   0.0277778
        k(   54) = (   0.0833333   0.2500000  -0.2500000), wk =   0.0277778
        k(   55) = (   0.0833333   0.2500000  -0.1666667), wk =   0.0138889
        k(   56) = (   0.0833333   0.3333333   0.4166667), wk =   0.0138889
        k(   57) = (   0.0833333   0.3333333  -0.5000000), wk =   0.0277778
        k(   58) = (   0.0833333   0.3333333  -0.4166667), wk =   0.0277778
        k(   59) = (   0.0833333   0.3333333  -0.3333333), wk =   0.0277778
        k(   60) = (   0.0833333   0.3333333  -0.2500000), wk =   0.0138889
        k(   61) = (   0.0833333   0.4166667  -0.5000000), wk =   0.0138889
        k(   62) = (   0.0833333   0.4166667  -0.4166667), wk =   0.0277778
        k(   63) = (   0.0833333   0.4166667  -0.3333333), wk =   0.0138889
        k(   64) = (   0.0833333  -0.5000000  -0.4166667), wk =   0.0069444
        k(   65) = (   0.1666667   0.3333333  -0.5000000), wk =   0.0138889
        k(   66) = (   0.1666667   0.3333333  -0.4166667), wk =   0.0277778
        k(   67) = (   0.1666667   0.3333333  -0.3333333), wk =   0.0138889
        k(   68) = (   0.1666667   0.4166667  -0.4166667), wk =   0.0138889
        k(   69) = (   0.1666667   0.4166667  -0.3333333), wk =   0.0277778
        k(   70) = (   0.1666667   0.4166667  -0.2500000), wk =   0.0138889
        k(   71) = (   0.1666667  -0.5000000  -0.3333333), wk =   0.0069444
        k(   72) = (   0.2500000  -0.5000000  -0.2500000), wk =   0.0034722

     Dense  grid:     1807 G-vectors     FFT dimensions: (  18,  18,  18)

     Dynamical RAM for                 wfc:       0.01 MB

     Dynamical RAM for     wfc (w. buffer):       0.97 MB

     Dynamical RAM for           str. fact:       0.01 MB

     Dynamical RAM for           local pot:       0.00 MB

     Dynamical RAM for          nlocal pot:       0.01 MB

     Dynamical RAM for                qrad:       1.36 MB

     Dynamical RAM for          rho,v,vnew:       0.09 MB

     Dynamical RAM for               rhoin:       0.03 MB

     Dynamical RAM for            rho*nmix:       0.18 MB

     Dynamical RAM for           G-vectors:       0.02 MB

     Dynamical RAM for          h,s,v(r/c):       0.07 MB

     Dynamical RAM for          <psi|beta>:       0.00 MB

     Dynamical RAM for                 psi:       0.03 MB

     Dynamical RAM for                hpsi:       0.03 MB

     Dynamical RAM for                spsi:       0.03 MB

     Dynamical RAM for      wfcinit/wfcrot:       0.02 MB

     Dynamical RAM for           addusdens:       1.04 MB

     Dynamical RAM for          addusforce:       1.05 MB

     Dynamical RAM for         addusstress:       1.12 MB

     Estimated static dynamical RAM per process >       2.74 MB

     Estimated max dynamical RAM per process >       3.86 MB

     Estimated total dynamical RAM >      19.31 MB
     Generating pointlists ...
     new r_m :   0.4125 (alat units)  1.9926 (a.u.) for type    1

     Initial potential from superposition of free atoms

     starting charge   10.98818, renormalised to   11.00000
     Starting wfcs are    9 randomized atomic wfcs +    1 random wfcs

     total cpu time spent up to now is        4.8 secs

     Self-consistent Calculation

     iteration #  1     ecut=    30.00 Ry     beta= 0.70
     Davidson diagonalization with overlap
     ethr =  1.00E-02,  avg # of iterations =  3.9

     total cpu time spent up to now is       20.6 secs

     total energy              =    -121.39818991 Ry
     Harris-Foulkes estimate   =    -121.50181083 Ry
     estimated scf accuracy    <       0.16850195 Ry

     total magnetization       =     0.17 Bohr mag/cell
     absolute magnetization    =     0.17 Bohr mag/cell

     iteration #  2     ecut=    30.00 Ry     beta= 0.70
     Davidson diagonalization with overlap
     ethr =  1.53E-03,  avg # of iterations =  2.0

     total cpu time spent up to now is       33.7 secs

     total energy              =    -121.41971669 Ry
     Harris-Foulkes estimate   =    -121.59429478 Ry
     estimated scf accuracy    <       0.43252457 Ry

     total magnetization       =     0.03 Bohr mag/cell
     absolute magnetization    =     0.03 Bohr mag/cell

     iteration #  3     ecut=    30.00 Ry     beta= 0.70
     Davidson diagonalization with overlap
     ethr =  1.53E-03,  avg # of iterations =  2.0

     total cpu time spent up to now is       48.7 secs

     total energy              =    -121.48820657 Ry
     Harris-Foulkes estimate   =    -121.48716063 Ry
     estimated scf accuracy    <       0.00354037 Ry

     total magnetization       =     0.04 Bohr mag/cell
     absolute magnetization    =     0.05 Bohr mag/cell

     iteration #  4     ecut=    30.00 Ry     beta= 0.70
     Davidson diagonalization with overlap
     ethr =  3.22E-05,  avg # of iterations =  2.2

     total cpu time spent up to now is       60.9 secs

     total energy              =    -121.48853236 Ry
     Harris-Foulkes estimate   =    -121.48890768 Ry
     estimated scf accuracy    <       0.00088547 Ry

     total magnetization       =    -0.00 Bohr mag/cell
     absolute magnetization    =     0.01 Bohr mag/cell

     iteration #  5     ecut=    30.00 Ry     beta= 0.70
     Davidson diagonalization with overlap
     ethr =  8.05E-06,  avg # of iterations =  1.6

     total cpu time spent up to now is       71.7 secs

     total energy              =    -121.48872763 Ry
     Harris-Foulkes estimate   =    -121.48873841 Ry
     estimated scf accuracy    <       0.00002675 Ry

     total magnetization       =    -0.00 Bohr mag/cell
     absolute magnetization    =     0.00 Bohr mag/cell

     iteration #  6     ecut=    30.00 Ry     beta= 0.70
     Davidson diagonalization with overlap
     ethr =  2.43E-07,  avg # of iterations =  2.2

     total cpu time spent up to now is       83.7 secs

     total energy              =    -121.48873595 Ry
     Harris-Foulkes estimate   =    -121.48873644 Ry
     estimated scf accuracy    <       0.00000195 Ry

     total magnetization       =     0.00 Bohr mag/cell
     absolute magnetization    =     0.00 Bohr mag/cell

     iteration #  7     ecut=    30.00 Ry     beta= 0.70
     Davidson diagonalization with overlap
     ethr =  1.77E-08,  avg # of iterations =  1.7

     total cpu time spent up to now is       94.9 secs

     total energy              =    -121.48873626 Ry
     Harris-Foulkes estimate   =    -121.48873627 Ry
     estimated scf accuracy    <       0.00000007 Ry

     total magnetization       =    -0.00 Bohr mag/cell
     absolute magnetization    =     0.00 Bohr mag/cell

     iteration #  8     ecut=    30.00 Ry     beta= 0.70
     Davidson diagonalization with overlap
     ethr =  6.62E-10,  avg # of iterations =  2.2
 
     Magnetic moment per site:
     atom:    1    charge:    9.8332    magn:    0.0000    constr:    0.0000

     total cpu time spent up to now is      107.3 secs

     End of self-consistent calculation

 ------ SPIN UP ------------


          k = 0.0000 0.0000 0.0000 (   229 PWs)   bands (ev):

     3.2363   9.6127   9.6127   9.6127  10.4317  10.4317  35.2861  37.8627
    37.8627  37.8627

     occupation numbers 
     1.0000   1.0000   1.0000   1.0000   1.0000   1.0000   0.0000   0.0000
     0.0000   0.0000

          k = 0.0589 0.0589 0.0589 (   220 PWs)   bands (ev):

     3.4887   9.5600   9.6592   9.6592  10.4143  10.4143  33.5150  36.1237
    37.1678  37.1678

     occupation numbers 
     1.0000   1.0000   1.0000   1.0000   1.0000   1.0000   0.0000   0.0000
     0.0000   0.0000

          k = 0.1179 0.1179 0.1179 (   226 PWs)   bands (ev):

     4.2255   9.4361   9.7511   9.7511  10.4063  10.4063  29.2560  35.6954
    36.1814  36.1814

     occupation numbers 
     1.0000   1.0000   1.0000   1.0000   1.0000   1.0000   0.0000   0.0000
     0.0000   0.0000

          k = 0.1768 0.1768 0.1768 (   217 PWs)   bands (ev):

     5.3613   9.3549   9.7667   9.7667  10.5176  10.5176  25.0523  35.1397
    35.4300  35.4300

     occupation numbers 
     1.0000   1.0000   1.0000   1.0000   1.0000   1.0000   0.0000   0.0000
     0.0000   0.0000

          k = 0.2357 0.2357 0.2357 (   223 PWs)   bands (ev):

     6.6148   9.5965   9.6891   9.6891  10.7369  10.7369  21.2195  34.4652
    34.9591  34.9591

     occupation numbers 
     1.0000   1.0000   1.0000   1.0000   1.0000   1.0000   0.0000   0.0000
     0.0000   0.0000

          k = 0.2946 0.2946 0.2946 (   226 PWs)   bands (ev):

     7.3734   9.6069   9.6069  10.6256  10.9330  10.9330  17.9988  33.9431
    34.7350  34.7350

     occupation numbers 
     1.0000   1.0000   1.0000   1.0000   1.0000   1.0000   0.0000   0.0000
     0.0000   0.0000

          k =-0.3536-0.3536-0.3536 (   228 PWs)   bands (ev):

     7.5465   9.5742   9.5742  11.0096  11.0096  11.5872  16.3815  33.7507
    34.6789  34.6789

     occupation numbers 
     1.0000   1.0000   1.0000   1.0000   1.0000   1.0000   0.0000   0.0000
     0.0000   0.0000

          k = 0.0000 0.0000 0.1179 (   226 PWs)   bands (ev):

     3.5725   9.5136   9.6926   9.6926  10.3427  10.4680  34.2957  35.4387
    35.4387  36.6521

     occupation numbers 
     1.0000   1.0000   1.0000   1.0000   1.0000   1.0000   0.0000   0.0000
     0.0000   0.0000

          k = 0.0589 0.0589 0.1768 (   221 PWs)   bands (ev):

     4.1472   9.3923   9.7862   9.7917  10.2698  10.5037  30.8684  34.0658
    34.5472  37.6112

     occupation numbers 
     1.0000   1.0000   1.0000   1.0000   1.0000   1.0000   0.0000   0.0000
     0.0000   0.0000

          k = 0.1179 0.1179 0.2357 (   220 PWs)   bands (ev):

     5.1545   9.2682   9.7915   9.8484  10.3644  10.6030  26.5943  33.1039
    33.9547  37.4627

     occupation numbers 
     1.0000   1.0000   1.0000   1.0000   1.0000   1.0000   0.0000   0.0000
     0.0000   0.0000

          k = 0.1768 0.1768 0.2946 (   217 PWs)   bands (ev):

     6.4026   9.3008   9.6707   9.8030  10.7044  10.7903  22.6161  32.5831
    33.3930  35.4381

     occupation numbers 
     1.0000   1.0000   1.0000   1.0000   1.0000   1.0000   0.0000   0.0000
     0.0000   0.0000

          k = 0.2357 0.2357 0.3536 (   224 PWs)   bands (ev):

     7.3580   9.5365   9.7178   9.7975  10.9610  11.3068  19.1241  32.5451
    32.7008  34.1104

     occupation numbers 
     1.0000   1.0000   1.0000   1.0000   1.0000   1.0000   0.0000   0.0000
     0.0000   0.0000

          k =-0.4125-0.4125-0.2946 (   224 PWs)   bands (ev):

     7.6659   9.4861   9.6591  10.3178  11.0148  12.3236  16.6720  31.7617
    33.0369  33.8034

     occupation numbers 
     1.0000   1.0000   1.0000   1.0000   1.0000   1.0819   0.0000   0.0000
     0.0000   0.0000

          k =-0.3536-0.3536-0.2357 (   225 PWs)   bands (ev):

     7.6178   9.5114   9.6598  10.2489  10.9138  12.0333  17.2864  31.0569
    34.0837  34.1543

     occupation numbers 
     1.0000   1.0000   1.0000   1.0000   1.0000   1.0001   0.0000   0.0000
     0.0000   0.0000

          k =-0.2946-0.2946-0.1768 (   221 PWs)   bands (ev):

     7.1192   9.6032   9.6127   9.7238  10.6869  11.2362  20.2229  30.7872
    34.9902  35.6587

     occupation numbers 
     1.0000   1.0000   1.0000   1.0000   1.0000   1.0000   0.0000   0.0000
     0.0000   0.0000

          k =-0.2357-0.2357-0.1179 (   215 PWs)   bands (ev):

     5.9858   9.2833   9.7188   9.8199  10.4198  10.8431  23.9034  30.9589
    36.1935  37.5757

     occupation numbers 
     1.0000   1.0000   1.0000   1.0000   1.0000   1.0000   0.0000   0.0000
     0.0000   0.0000

          k =-0.1768-0.1768-0.0589 (   217 PWs)   bands (ev):

     4.7780   9.3298   9.7820   9.8397  10.2711  10.5897  27.9973  31.5455
    37.3054  38.7049

     occupation numbers 
     1.0000   1.0000   1.0000   1.0000   1.0000   1.0000   0.0000   0.0000
     0.0000   0.0000

          k =-0.1179-0.1179-0.0000 (   217 PWs)   bands (ev):

     3.9028   9.4664   9.7288   9.7370  10.3247  10.4690  31.9863  32.8781
    37.2029  38.8036

     occupation numbers 
     1.0000   1.0000   1.0000   1.0000   1.0000   1.0000   0.0000   0.0000
     0.0000   0.0000

          k = 0.0000 0.0000 0.2357 (   218 PWs)   bands (ev):

     4.5478   9.2471   9.9241   9.9241  10.1223  10.5677  32.3861  32.3861
    32.7876  34.4626

     occupation numbers 
     1.0000   1.0000   1.0000   1.0000   1.0000   1.0000   0.0000   0.0000
     0.0000   0.0000

          k = 0.0589 0.0589 0.2946 (   219 PWs)   bands (ev):

     5.3835   9.0867   9.8643  10.0449  10.2712  10.6582  28.4642  31.1719
    32.7472  34.2101

     occupation numbers 
     1.0000   1.0000   1.0000   1.0000   1.0000   1.0000   0.0000   0.0000
     0.0000   0.0000

          k = 0.1179 0.1179 0.3536 (   221 PWs)   bands (ev):

     6.5122   8.9907   9.6577  10.0498  10.7656  10.8279  24.3991  30.4622
    31.4632  33.3101

     occupation numbers 
     1.0000   1.0000   1.0000   1.0000   1.0000   1.0000   0.0000   0.0000
     0.0000   0.0000

          k = 0.1768 0.1768 0.4125 (   224 PWs)   bands (ev):

     7.5337   9.0806   9.5267   9.9762  10.9880  11.6391  20.6993  29.7883
    30.3042  32.9313

     occupation numbers 
     1.0000   1.0000   1.0000   1.0000   1.0000   1.0000   0.0000   0.0000
     0.0000   0.0000

          k =-0.4714-0.4714-0.2357 (   223 PWs)   bands (ev):

     7.9701   9.1982   9.6863   9.8990  11.0294  13.0906  17.6335  28.3589
    30.7372  32.9619

     occupation numbers 
     1.0000   1.0000   1.0000   1.0000   1.0000   0.0000   0.0000   0.0000
     0.0000   0.0000

          k =-0.4125-0.4125-0.1768 (   223 PWs)   bands (ev):

     8.0292   9.2468   9.7703   9.8633  10.9120  13.6125  16.9411  27.3545
    31.7683  33.3864

     occupation numbers 
     1.0000   1.0000   1.0000   1.0000   1.0000   0.0000   0.0000   0.0000
     0.0000   0.0000

          k =-0.3536-0.3536-0.1179 (   221 PWs)   bands (ev):

     7.7919   9.3681   9.4454   9.8897  10.6634  12.2721  19.6135  26.8326
    33.3598  34.2548

     occupation numbers 
     1.0000   1.0000   1.0000   1.0000   1.0000   1.0672   0.0000   0.0000
     0.0000   0.0000

          k =-0.2946-0.2946-0.0589 (   219 PWs)   bands (ev):

     6.9284   9.1521   9.5566   9.9772  10.3537  11.4131  23.1468  26.8072
    35.4386  35.5982

     occupation numbers 
     1.0000   1.0000   1.0000   1.0000   1.0000   1.0000   0.0000   0.0000
     0.0000   0.0000

          k =-0.2357-0.2357 0.0000 (   218 PWs)   bands (ev):

     5.7448   9.1874   9.7176  10.0377  10.1335  10.9124  26.8359  27.5336
    37.3411  37.9056

     occupation numbers 
     1.0000   1.0000   1.0000   1.0000   1.0000   1.0000   0.0000   0.0000
     0.0000   0.0000

          k = 0.0000 0.0000 0.3536 (   218 PWs)   bands (ev):

     6.0038   8.8923   9.9675  10.2767  10.2767  10.7054  29.7019  29.7019
    30.9504  31.5949

     occupation numbers 
     1.0000   1.0000   1.0000   1.0000   1.0000   1.0000   0.0000   0.0000
     0.0000   0.0000

          k = 0.0589 0.0589 0.4125 (   220 PWs)   bands (ev):

     6.8741   8.7406   9.8700  10.3793  10.7553  10.8382  26.4386  28.7590
    28.7849  32.0848

     occupation numbers 
     1.0000   1.0000   1.0000   1.0000   1.0000   1.0000   0.0000   0.0000
     0.0000   0.0000

          k = 0.1179 0.1179 0.4714 (   221 PWs)   bands (ev):

     7.6998   8.6921   9.7192  10.3338  11.0043  11.8157  22.6966  26.7895
    28.4096  32.1284

     occupation numbers 
     1.0000   1.0000   1.0000   1.0000   1.0000   1.0000   0.0000   0.0000
     0.0000   0.0000

          k =-0.5303-0.5303-0.1768 (   223 PWs)   bands (ev):

     8.1893   8.7636   9.6277  10.2481  11.0508  13.5592  19.3188  25.1699
    28.6985  32.2186

     occupation numbers 
     1.0000   1.0000   1.0000   1.0000   1.0000   0.0000   0.0000   0.0000
     0.0000   0.0000

          k =-0.4714-0.4714-0.1179 (   221 PWs)   bands (ev):

     8.4030   8.8694   9.5504  10.1740  10.9340  15.3564  17.0534  23.9888
    29.6210  32.5679

     occupation numbers 
     1.0000   1.0000   1.0000   1.0000   1.0000   0.0000   0.0000   0.0000
     0.0000   0.0000

          k =-0.4125-0.4125-0.0589 (   224 PWs)   bands (ev):

     8.4029   9.0449   9.3173  10.1326  10.6947  13.8040  19.3093  23.3074
    31.1171  33.2561

     occupation numbers 
     1.0000   1.0000   1.0000   1.0000   1.0000   0.0000   0.0000   0.0000
     0.0000   0.0000

          k =-0.3536-0.3536 0.0000 (   218 PWs)   bands (ev):

     7.9088   9.1040   9.3059  10.1038  10.4390  12.3239  22.3200  23.5091
    33.0934  34.3113

     occupation numbers 
     1.0000   1.0000   1.0000   1.0000   1.0000   1.0818   0.0000   0.0000
     0.0000   0.0000

          k = 0.0000 0.0000 0.4714 (   218 PWs)   bands (ev):

     7.3227   8.5481  10.5317  10.6820  10.6820  10.8447  26.2583  27.5708
    27.5708  30.7930

     occupation numbers 
     1.0000   1.0000   1.0000   1.0000   1.0000   1.0000   0.0000   0.0000
     0.0000   0.0000

          k = 0.0589 0.0589 0.5303 (   220 PWs)   bands (ev):

     7.7132   8.4478  10.4289  10.7071  11.0035  11.9123  24.1324  24.9486
    26.9921  31.3399

     occupation numbers 
     1.0000   1.0000   1.0000   1.0000   1.0000   1.0000   0.0000   0.0000
     0.0000   0.0000

          k =-0.5893-0.5893-0.1179 (   224 PWs)   bands (ev):

     8.0316   8.4676  10.1596  10.6237  11.0774  13.8239  21.5605  22.4751
    27.0899  31.6342

     occupation numbers 
     1.0000   1.0000   1.0000   1.0000   1.0000   0.0000   0.0000   0.0000
     0.0000   0.0000

          k =-0.5303-0.5303-0.0589 (   223 PWs)   bands (ev):

     8.3248   8.5820   9.8332  10.5130  10.9853  16.1623  18.5204  21.3004
    27.8645  31.9353

     occupation numbers 
     1.0000   1.0000   1.0000   1.0000   1.0000   0.0000   0.0000   0.0000
     0.0000   0.0000

          k =-0.4714-0.4714-0.0000 (   220 PWs)   bands (ev):

     8.5794   8.7417   9.4777  10.3596  10.8133  15.8607  18.5378  21.0936
    29.2437  32.4582

     occupation numbers 
     1.0000   1.0000   1.0000   1.0000   1.0000   0.0000   0.0000   0.0000
     0.0000   0.0000

          k = 0.0000 0.0000 0.5893 (   222 PWs)   bands (ev):

     7.7207   8.3025  10.9478  11.0218  11.0218  12.4887  22.0047  26.1715
    26.1715  30.3404

     occupation numbers 
     1.0000   1.0000   1.0000   1.0000   1.0000   0.4902   0.0000   0.0000
     0.0000   0.0000

          k =-0.6482-0.6482-0.0589 (   221 PWs)   bands (ev):

     7.8223   8.2819  10.8424  10.9030  11.1173  14.0009  20.4933  24.0992
    26.0441  31.0045

     occupation numbers 
     1.0000   1.0000   1.0000   1.0000   1.0000   0.0000   0.0000   0.0000
     0.0000   0.0000

          k =-0.5893-0.5893 0.0000 (   224 PWs)   bands (ev):

     8.0350   8.3893  10.3701  10.7720  11.0684  15.5683  19.9646  21.2011
    26.6318  31.4855

     occupation numbers 
     1.0000   1.0000   1.0000   1.0000   1.0000   0.0000   0.0000   0.0000
     0.0000   0.0000

          k = 0.0000 0.0000-0.7071 (   222 PWs)   bands (ev):

     7.7443   8.2140  10.9858  11.1575  11.1575  14.0851  19.7304  25.6787
    25.6787  30.1949

     occupation numbers 
     1.0000   1.0000   1.0000   1.0000   1.0000   0.0000   0.0000   0.0000
     0.0000   0.0000

          k = 0.0000 0.1179 0.2357 (   216 PWs)   bands (ev):

     4.8586   9.2472   9.8194   9.9342  10.2060  10.6172  29.4862  30.1455
    36.1154  36.3561

     occupation numbers 
     1.0000   1.0000   1.0000   1.0000   1.0000   1.0000   0.0000   0.0000
     0.0000   0.0000

          k = 0.0589 0.1768 0.2946 (   222 PWs)   bands (ev):

     5.9458   9.1284   9.6978  10.0010  10.3430  10.8857  25.5718  29.1294
    34.4341  36.4007

     occupation numbers 
     1.0000   1.0000   1.0000   1.0000   1.0000   1.0000   0.0000   0.0000
     0.0000   0.0000

          k = 0.1179 0.2357 0.3536 (   221 PWs)   bands (ev):

     7.1206   9.1919   9.5308   9.9248  10.6609  11.3715  21.7297  28.8279
    32.5243  35.8099

     occupation numbers 
     1.0000   1.0000   1.0000   1.0000   1.0000   1.0000   0.0000   0.0000
     0.0000   0.0000

          k =-0.5303-0.4125-0.2946 (   225 PWs)   bands (ev):

     7.7900   9.3460   9.6512   9.8498  10.9019  12.3651  18.4157  28.9960
    30.9428  35.3330

     occupation numbers 
     1.0000   1.0000   1.0000   1.0000   1.0000   1.0367   0.0000   0.0000
     0.0000   0.0000

          k =-0.4714-0.3536-0.2357 (   222 PWs)   bands (ev):

     7.9291   9.3063   9.8033   9.9069  10.9778  13.4257  16.5718  29.4417
    30.0128  35.1541

     occupation numbers 
     1.0000   1.0000   1.0000   1.0000   1.0000   0.0000   0.0000   0.0000
     0.0000   0.0000

          k =-0.0000 0.1179 0.3536 (   220 PWs)   bands (ev):

     6.2745   8.9294   9.7274  10.2779  10.3794  10.8779  27.3141  27.8417
    31.5020  34.4573

     occupation numbers 
     1.0000   1.0000   1.0000   1.0000   1.0000   1.0000   0.0000   0.0000
     0.0000   0.0000

          k = 0.0589 0.1768 0.4125 (   221 PWs)   bands (ev):

     7.3112   8.8562   9.5317  10.2692  10.6978  11.4593  23.6234  27.1527
    29.3949  34.8325

     occupation numbers 
     1.0000   1.0000   1.0000   1.0000   1.0000   1.0000   0.0000   0.0000
     0.0000   0.0000

          k =-0.5893-0.4714-0.2357 (   224 PWs)   bands (ev):

     8.0466   8.9317   9.4291  10.1721  10.9325  12.6853  20.0783  27.1324
    27.6909  34.8104

     occupation numbers 
     1.0000   1.0000   1.0000   1.0000   1.0000   0.0087   0.0000   0.0000
     0.0000   0.0000

          k =-0.5303-0.4125-0.1768 (   224 PWs)   bands (ev):

     8.2986   8.9801   9.5304  10.0835  10.9747  14.4815  17.2556  26.2231
    27.8319  35.0565

     occupation numbers 
     1.0000   1.0000   1.0000   1.0000   1.0000   0.0000   0.0000   0.0000
     0.0000   0.0000

          k =-0.4714-0.3536-0.1179 (   225 PWs)   bands (ev):

     8.3022   9.0488   9.4450  10.0702  10.8575  13.9502  18.0615  25.3547
    28.9038  35.7157

     occupation numbers 
     1.0000   1.0000   1.0000   1.0000   1.0000   0.0000   0.0000   0.0000
     0.0000   0.0000

          k =-0.4125-0.2946-0.0589 (   221 PWs)   bands (ev):

     7.9486   9.0803   9.2866  10.1371  10.6086  12.3783  21.2250  24.9866
    30.4310  36.8423

     occupation numbers 
     1.0000   1.0000   1.0000   1.0000   1.0000   1.0059   0.0000   0.0000
     0.0000   0.0000

          k =-0.3536-0.2357 0.0000 (   218 PWs)   bands (ev):

     7.0080   9.0201   9.5001  10.2147  10.3084  11.4393  24.6177  25.4247
    32.3414  38.5737

     occupation numbers 
     1.0000   1.0000   1.0000   1.0000   1.0000   1.0000   0.0000   0.0000
     0.0000   0.0000

          k = 0.0000 0.1179 0.4714 (   219 PWs)   bands (ev):

     7.5370   8.6157   9.8802  10.6801  10.7211  11.5095  25.5541  25.9815
    26.6410  33.2646

     occupation numbers 
     1.0000   1.0000   1.0000   1.0000   1.0000   1.0000   0.0000   0.0000
     0.0000   0.0000

          k =-0.6482-0.5303-0.1768 (   221 PWs)   bands (ev):

     8.0455   8.6048   9.7486  10.5710  10.9602  12.9339  22.2019  24.6420
    25.7640  33.9151

     occupation numbers 
     1.0000   1.0000   1.0000   1.0000   1.0000   0.0000   0.0000   0.0000
     0.0000   0.0000

          k =-0.5893-0.4714-0.1179 (   221 PWs)   bands (ev):

     8.3708   8.6805   9.5970  10.4243  11.0159  15.0314  18.9922  23.1908
    26.1977  34.2489

     occupation numbers 
     1.0000   1.0000   1.0000   1.0000   1.0000   0.0000   0.0000   0.0000
     0.0000   0.0000

          k =-0.5303-0.4125-0.0589 (   225 PWs)   bands (ev):

     8.6288   8.7401   9.3930  10.3168  10.9044  15.9867  17.9232  22.2226
    27.1806  34.8619

     occupation numbers 
     1.0000   1.0000   1.0000   1.0000   1.0000   0.0000   0.0000   0.0000
     0.0000   0.0000

          k =-0.4714-0.3536-0.0000 (   227 PWs)   bands (ev):

     8.5510   8.9754   9.1280  10.2684  10.7086  13.9131  20.4924  22.1868
    28.6181  35.8355

     occupation numbers 
     1.0000   1.0000   1.0000   1.0000   1.0000   0.0000   0.0000   0.0000
     0.0000   0.0000

          k =-0.7071-0.5893-0.1179 (   220 PWs)   bands (ev):

     7.8886   8.3904  10.4007  10.8720  11.0208  13.2780  22.2229  24.3676
    24.9013  32.5787

     occupation numbers 
     1.0000   1.0000   1.0000   1.0000   1.0000   0.0000   0.0000   0.0000
     0.0000   0.0000

          k =-0.6482-0.5303-0.0589 (   220 PWs)   bands (ev):

     8.1040   8.4617  10.1227  10.7100  11.0981  15.2326  20.8259  21.4629
    24.9784  33.4854

     occupation numbers 
     1.0000   1.0000   1.0000   1.0000   1.0000   0.0000   0.0000   0.0000
     0.0000   0.0000

          k =-0.5893-0.4714-0.0000 (   223 PWs)   bands (ev):

     8.3730   8.6182   9.7274  10.5247  11.0231  17.1599  18.5041  20.5143
    25.8379  34.0704

     occupation numbers 
     1.0000   1.0000   1.0000   1.0000   1.0000   0.0000   0.0000   0.0000
     0.0000   0.0000

          k = 0.0000 0.1179-0.7071 (   222 PWs)   bands (ev):

     7.8964   8.3088  10.6462  10.8697  11.1577  14.8987  19.8546  23.9426
    24.4801  32.3570

     occupation numbers 
     1.0000   1.0000   1.0000   1.0000   1.0000   0.0000   0.0000   0.0000
     0.0000   0.0000

          k =-0.7071-0.4714-0.2357 (   223 PWs)   bands (ev):

     8.0738   8.8159   9.3273  10.4772  10.6810  12.5500  22.8714  23.8750
    27.3500  37.3228

     occupation numbers 
     1.0000   1.0000   1.0000   1.0000   1.0000   0.2099   0.0000   0.0000
     0.0000   0.0000

          k =-0.6482-0.4125-0.1768 (   220 PWs)   bands (ev):

     8.5024   8.8630   9.2184  10.3639  10.8970  14.2835  19.8327  23.7371
    25.7007  37.7149

     occupation numbers 
     1.0000   1.0000   1.0000   1.0000   1.0000   0.0000   0.0000   0.0000
     0.0000   0.0000

          k =-0.5893-0.3536-0.1179 (   220 PWs)   bands (ev):

     8.7006   8.7266   9.2995  10.2880  10.9801  16.1723  17.4069  24.3501
    24.5950  37.6425

     occupation numbers 
     1.0000   1.0000   1.0000   1.0000   1.0000   0.0000   0.0000   0.0000
     0.0000   0.0000

          k =-0.7071-0.4714-0.1179 (   214 PWs)   bands (ev):

     8.2964   8.6581   9.5987  10.5932  11.0183  14.6937  21.7107  22.7802
    23.0769  36.5485

     occupation numbers 
     1.0000   1.0000   1.0000   1.0000   1.0000   0.0000   0.0000   0.0000
     0.0000   0.0000

          k =-0.6482-0.4125-0.0589 (   217 PWs)   bands (ev):

     8.4723   8.8105   9.3860  10.4363  11.0908  16.9546  19.0535  21.6925
    23.1217  37.6442

     occupation numbers 
     1.0000   1.0000   1.0000   1.0000   1.0000   0.0000   0.0000   0.0000
     0.0000   0.0000

          k =-0.5893-0.3536 0.0000 (   218 PWs)   bands (ev):

     8.5980   8.9749   9.1109  10.3799  11.0165  16.4070  19.2591  21.4180
    24.1801  38.3901

     occupation numbers 
     1.0000   1.0000   1.0000   1.0000   1.0000   0.0000   0.0000   0.0000
     0.0000   0.0000

          k =-0.0000 0.2357-0.7071 (   216 PWs)   bands (ev):

     8.2565   8.5995   9.8069  10.5807  11.1581  16.6360  20.2714  21.2957
    22.6080  36.2906

     occupation numbers 
     1.0000   1.0000   1.0000   1.0000   1.0000   0.0000   0.0000   0.0000
     0.0000   0.0000

          k = 0.0000 0.3536-0.7071 (   224 PWs)   bands (ev):

     8.4837   9.0988   9.0988  10.3884  11.1583  18.8111  18.8111  20.9209
    21.3931  40.9432

     occupation numbers 
     1.0000   1.0000   1.0000   1.0000   1.0000   0.0000   0.0000   0.0000
     0.0000   0.0000

 ------ SPIN DOWN ----------


          k = 0.0000 0.0000 0.0000 (   229 PWs)   bands (ev):

     3.2362   9.6128   9.6128   9.6128  10.4317  10.4317  35.2859  37.8627
    37.8627  37.8627

     occupation numbers 
     1.0000   1.0000   1.0000   1.0000   1.0000   1.0000   0.0000   0.0000
     0.0000   0.0000

          k = 0.0589 0.0589 0.0589 (   220 PWs)   bands (ev):

     3.4886   9.5600   9.6592   9.6592  10.4144  10.4144  33.5149  36.1236
    37.1678  37.1678

     occupation numbers 
     1.0000   1.0000   1.0000   1.0000   1.0000   1.0000   0.0000   0.0000
     0.0000   0.0000

          k = 0.1179 0.1179 0.1179 (   226 PWs)   bands (ev):

     4.2254   9.4362   9.7512   9.7512  10.4064  10.4064  29.2559  35.6953
    36.1814  36.1814

     occupation numbers 
     1.0000   1.0000   1.0000   1.0000   1.0000   1.0000   0.0000   0.0000
     0.0000   0.0000

          k = 0.1768 0.1768 0.1768 (   217 PWs)   bands (ev):

     5.3612   9.3549   9.7668   9.7668  10.5177  10.5177  25.0522  35.1396
    35.4300  35.4300

     occupation numbers 
     1.0000   1.0000   1.0000   1.0000   1.0000   1.0000   0.0000   0.0000
     0.0000   0.0000

          k = 0.2357 0.2357 0.2357 (   223 PWs)   bands (ev):

     6.6148   9.5965   9.6892   9.6892  10.7369  10.7369  21.2194  34.4651
    34.9591  34.9591

     occupation numbers 
     1.0000   1.0000   1.0000   1.0000   1.0000   1.0000   0.0000   0.0000
     0.0000   0.0000

          k = 0.2946 0.2946 0.2946 (   226 PWs)   bands (ev):

     7.3734   9.6070   9.6070  10.6255  10.9330  10.9330  17.9987  33.9429
    34.7349  34.7349

     occupation numbers 
     1.0000   1.0000   1.0000   1.0000   1.0000   1.0000   0.0000   0.0000
     0.0000   0.0000

          k =-0.3536-0.3536-0.3536 (   228 PWs)   bands (ev):

     7.5465   9.5743   9.5743  11.0097  11.0097  11.5871  16.3815  33.7506
    34.6789  34.6789

     occupation numbers 
     1.0000   1.0000   1.0000   1.0000   1.0000   1.0000   0.0000   0.0000
     0.0000   0.0000

          k = 0.0000 0.0000 0.1179 (   226 PWs)   bands (ev):

     3.5724   9.5136   9.6927   9.6927  10.3427  10.4681  34.2955  35.4386
    35.4386  36.6521

     occupation numbers 
     1.0000   1.0000   1.0000   1.0000   1.0000   1.0000   0.0000   0.0000
     0.0000   0.0000

          k = 0.0589 0.0589 0.1768 (   221 PWs)   bands (ev):

     4.1471   9.3923   9.7862   9.7917  10.2699  10.5038  30.8683  34.0658
    34.5471  37.6111

     occupation numbers 
     1.0000   1.0000   1.0000   1.0000   1.0000   1.0000   0.0000   0.0000
     0.0000   0.0000

          k = 0.1179 0.1179 0.2357 (   220 PWs)   bands (ev):

     5.1545   9.2683   9.7915   9.8484  10.3645  10.6030  26.5943  33.1039
    33.9546  37.4626

     occupation numbers 
     1.0000   1.0000   1.0000   1.0000   1.0000   1.0000   0.0000   0.0000
     0.0000   0.0000

          k = 0.1768 0.1768 0.2946 (   217 PWs)   bands (ev):

     6.4025   9.3009   9.6707   9.8030  10.7044  10.7904  22.6160  32.5831
    33.3929  35.4380

     occupation numbers 
     1.0000   1.0000   1.0000   1.0000   1.0000   1.0000   0.0000   0.0000
     0.0000   0.0000

          k = 0.2357 0.2357 0.3536 (   224 PWs)   bands (ev):

     7.3580   9.5365   9.7179   9.7975  10.9611  11.3068  19.1240  32.5451
    32.7007  34.1103

     occupation numbers 
     1.0000   1.0000   1.0000   1.0000   1.0000   1.0000   0.0000   0.0000
     0.0000   0.0000

          k =-0.4125-0.4125-0.2946 (   224 PWs)   bands (ev):

     7.6659   9.4861   9.6591  10.3179  11.0149  12.3236  16.6720  31.7616
    33.0369  33.8033

     occupation numbers 
     1.0000   1.0000   1.0000   1.0000   1.0000   1.0819   0.0000   0.0000
     0.0000   0.0000

          k =-0.3536-0.3536-0.2357 (   225 PWs)   bands (ev):

     7.6178   9.5114   9.6599  10.2489  10.9138  12.0333  17.2864  31.0568
    34.0837  34.1542

     occupation numbers 
     1.0000   1.0000   1.0000   1.0000   1.0000   1.0001   0.0000   0.0000
     0.0000   0.0000

          k =-0.2946-0.2946-0.1768 (   221 PWs)   bands (ev):

     7.1192   9.6032   9.6127   9.7239  10.6869  11.2363  20.2229  30.7871
    34.9901  35.6586

     occupation numbers 
     1.0000   1.0000   1.0000   1.0000   1.0000   1.0000   0.0000   0.0000
     0.0000   0.0000

          k =-0.2357-0.2357-0.1179 (   215 PWs)   bands (ev):

     5.9857   9.2834   9.7188   9.8199  10.4199  10.8431  23.9034  30.9588
    36.1934  37.5756

     occupation numbers 
     1.0000   1.0000   1.0000   1.0000   1.0000   1.0000   0.0000   0.0000
     0.0000   0.0000

          k =-0.1768-0.1768-0.0589 (   217 PWs)   bands (ev):

     4.7780   9.3298   9.7821   9.8398  10.2712  10.5897  27.9973  31.5454
    37.3053  38.7046

     occupation numbers 
     1.0000   1.0000   1.0000   1.0000   1.0000   1.0000   0.0000   0.0000
     0.0000   0.0000

          k =-0.1179-0.1179-0.0000 (   217 PWs)   bands (ev):

     3.9027   9.4665   9.7288   9.7371  10.3247  10.4691  31.9862  32.8780
    37.2028  38.8036

     occupation numbers 
     1.0000   1.0000   1.0000   1.0000   1.0000   1.0000   0.0000   0.0000
     0.0000   0.0000

          k = 0.0000 0.0000 0.2357 (   218 PWs)   bands (ev):

     4.5478   9.2471   9.9241   9.9241  10.1223  10.5678  32.3861  32.3861
    32.7875  34.4625

     occupation numbers 
     1.0000   1.0000   1.0000   1.0000   1.0000   1.0000   0.0000   0.0000
     0.0000   0.0000

          k = 0.0589 0.0589 0.2946 (   219 PWs)   bands (ev):

     5.3835   9.0867   9.8643  10.0449  10.2712  10.6582  28.4641  31.1719
    32.7471  34.2101

     occupation numbers 
     1.0000   1.0000   1.0000   1.0000   1.0000   1.0000   0.0000   0.0000
     0.0000   0.0000

          k = 0.1179 0.1179 0.3536 (   221 PWs)   bands (ev):

     6.5121   8.9907   9.6578  10.0499  10.7657  10.8280  24.3990  30.4622
    31.4632  33.3100

     occupation numbers 
     1.0000   1.0000   1.0000   1.0000   1.0000   1.0000   0.0000   0.0000
     0.0000   0.0000

          k = 0.1768 0.1768 0.4125 (   224 PWs)   bands (ev):

     7.5337   9.0806   9.5267   9.9763  10.9880  11.6391  20.6992  29.7883
    30.3041  32.9312

     occupation numbers 
     1.0000   1.0000   1.0000   1.0000   1.0000   1.0000   0.0000   0.0000
     0.0000   0.0000

          k =-0.4714-0.4714-0.2357 (   223 PWs)   bands (ev):

     7.9701   9.1982   9.6863   9.8991  11.0295  13.0906  17.6335  28.3588
    30.7372  32.9618

     occupation numbers 
     1.0000   1.0000   1.0000   1.0000   1.0000   0.0000   0.0000   0.0000
     0.0000   0.0000

          k =-0.4125-0.4125-0.1768 (   223 PWs)   bands (ev):

     8.0292   9.2468   9.7703   9.8634  10.9121  13.6125  16.9411  27.3544
    31.7683  33.3863

     occupation numbers 
     1.0000   1.0000   1.0000   1.0000   1.0000   0.0000   0.0000   0.0000
     0.0000   0.0000

          k =-0.3536-0.3536-0.1179 (   221 PWs)   bands (ev):

     7.7919   9.3681   9.4454   9.8897  10.6634  12.2721  19.6134  26.8325
    33.3597  34.2547

     occupation numbers 
     1.0000   1.0000   1.0000   1.0000   1.0000   1.0672   0.0000   0.0000
     0.0000   0.0000

          k =-0.2946-0.2946-0.0589 (   219 PWs)   bands (ev):

     6.9284   9.1521   9.5567   9.9773  10.3538  11.4131  23.1468  26.8071
    35.4386  35.5981

     occupation numbers 
     1.0000   1.0000   1.0000   1.0000   1.0000   1.0000   0.0000   0.0000
     0.0000   0.0000

          k =-0.2357-0.2357 0.0000 (   218 PWs)   bands (ev):

     5.7448   9.1875   9.7177  10.0378  10.1335  10.9124  26.8358  27.5335
    37.3410  37.9055

     occupation numbers 
     1.0000   1.0000   1.0000   1.0000   1.0000   1.0000   0.0000   0.0000
     0.0000   0.0000

          k = 0.0000 0.0000 0.3536 (   218 PWs)   bands (ev):

     6.0037   8.8924   9.9676  10.2768  10.2768  10.7054  29.7018  29.7018
    30.9503  31.5948

     occupation numbers 
     1.0000   1.0000   1.0000   1.0000   1.0000   1.0000   0.0000   0.0000
     0.0000   0.0000

          k = 0.0589 0.0589 0.4125 (   220 PWs)   bands (ev):

     6.8740   8.7407   9.8700  10.3793  10.7553  10.8383  26.4386  28.7589
    28.7848  32.0847

     occupation numbers 
     1.0000   1.0000   1.0000   1.0000   1.0000   1.0000   0.0000   0.0000
     0.0000   0.0000

          k = 0.1179 0.1179 0.4714 (   221 PWs)   bands (ev):

     7.6998   8.6921   9.7193  10.3339  11.0044  11.8157  22.6965  26.7895
    28.4095  32.1283

     occupation numbers 
     1.0000   1.0000   1.0000   1.0000   1.0000   1.0000   0.0000   0.0000
     0.0000   0.0000

          k =-0.5303-0.5303-0.1768 (   223 PWs)   bands (ev):

     8.1893   8.7636   9.6277  10.2482  11.0509  13.5591  19.3188  25.1698
    28.6984  32.2185

     occupation numbers 
     1.0000   1.0000   1.0000   1.0000   1.0000   0.0000   0.0000   0.0000
     0.0000   0.0000

          k =-0.4714-0.4714-0.1179 (   221 PWs)   bands (ev):

     8.4030   8.8694   9.5505  10.1741  10.9341  15.3564  17.0534  23.9887
    29.6209  32.5678

     occupation numbers 
     1.0000   1.0000   1.0000   1.0000   1.0000   0.0000   0.0000   0.0000
     0.0000   0.0000

          k =-0.4125-0.4125-0.0589 (   224 PWs)   bands (ev):

     8.4029   9.0449   9.3173  10.1326  10.6947  13.8040  19.3093  23.3074
    31.1171  33.2560

     occupation numbers 
     1.0000   1.0000   1.0000   1.0000   1.0000   0.0000   0.0000   0.0000
     0.0000   0.0000

          k =-0.3536-0.3536 0.0000 (   218 PWs)   bands (ev):

     7.9088   9.1040   9.3059  10.1038  10.4391  12.3239  22.3200  23.5091
    33.0934  34.3112

     occupation numbers 
     1.0000   1.0000   1.0000   1.0000   1.0000   1.0818   0.0000   0.0000
     0.0000   0.0000

          k = 0.0000 0.0000 0.4714 (   218 PWs)   bands (ev):

     7.3226   8.5482  10.5317  10.6821  10.6821  10.8447  26.2582  27.5707
    27.5707  30.7929

     occupation numbers 
     1.0000   1.0000   1.0000   1.0000   1.0000   1.0000   0.0000   0.0000
     0.0000   0.0000

          k = 0.0589 0.0589 0.5303 (   220 PWs)   bands (ev):

     7.7132   8.4478  10.4289  10.7071  11.0035  11.9123  24.1324  24.9485
    26.9921  31.3398

     occupation numbers 
     1.0000   1.0000   1.0000   1.0000   1.0000   1.0000   0.0000   0.0000
     0.0000   0.0000

          k =-0.5893-0.5893-0.1179 (   224 PWs)   bands (ev):

     8.0316   8.4676  10.1596  10.6238  11.0775  13.8238  21.5604  22.4751
    27.0899  31.6341

     occupation numbers 
     1.0000   1.0000   1.0000   1.0000   1.0000   0.0000   0.0000   0.0000
     0.0000   0.0000

          k =-0.5303-0.5303-0.0589 (   223 PWs)   bands (ev):

     8.3248   8.5820   9.8333  10.5130  10.9854  16.1622  18.5204  21.3003
    27.8644  31.9352

     occupation numbers 
     1.0000   1.0000   1.0000   1.0000   1.0000   0.0000   0.0000   0.0000
     0.0000   0.0000

          k =-0.4714-0.4714-0.0000 (   220 PWs)   bands (ev):

     8.5794   8.7417   9.4777  10.3596  10.8134  15.8607  18.5378  21.0936
    29.2437  32.4581

     occupation numbers 
     1.0000   1.0000   1.0000   1.0000   1.0000   0.0000   0.0000   0.0000
     0.0000   0.0000

          k = 0.0000 0.0000 0.5893 (   222 PWs)   bands (ev):

     7.7207   8.3026  10.9478  11.0219  11.0219  12.4886  22.0046  26.1715
    26.1715  30.3403

     occupation numbers 
     1.0000   1.0000   1.0000   1.0000   1.0000   0.4906   0.0000   0.0000
     0.0000   0.0000

          k =-0.6482-0.6482-0.0589 (   221 PWs)   bands (ev):

     7.8223   8.2820  10.8424  10.9030  11.1174  14.0008  20.4933  24.0991
    26.0441  31.0045

     occupation numbers 
     1.0000   1.0000   1.0000   1.0000   1.0000   0.0000   0.0000   0.0000
     0.0000   0.0000

          k =-0.5893-0.5893 0.0000 (   224 PWs)   bands (ev):

     8.0350   8.3893  10.3702  10.7720  11.0685  15.5683  19.9646  21.2010
    26.6317  31.4854

     occupation numbers 
     1.0000   1.0000   1.0000   1.0000   1.0000   0.0000   0.0000   0.0000
     0.0000   0.0000

          k = 0.0000 0.0000-0.7071 (   222 PWs)   bands (ev):

     7.7443   8.2140  10.9858  11.1576  11.1576  14.0850  19.7304  25.6786
    25.6786  30.1948

     occupation numbers 
     1.0000   1.0000   1.0000   1.0000   1.0000   0.0000   0.0000   0.0000
     0.0000   0.0000

          k = 0.0000 0.1179 0.2357 (   216 PWs)   bands (ev):

     4.8585   9.2473   9.8194   9.9343  10.2060  10.6172  29.4861  30.1455
    36.1153  36.3561

     occupation numbers 
     1.0000   1.0000   1.0000   1.0000   1.0000   1.0000   0.0000   0.0000
     0.0000   0.0000

          k = 0.0589 0.1768 0.2946 (   222 PWs)   bands (ev):

     5.9457   9.1284   9.6979  10.0010  10.3431  10.8858  25.5718  29.1294
    34.4341  36.4006

     occupation numbers 
     1.0000   1.0000   1.0000   1.0000   1.0000   1.0000   0.0000   0.0000
     0.0000   0.0000

          k = 0.1179 0.2357 0.3536 (   221 PWs)   bands (ev):

     7.1205   9.1919   9.5308   9.9249  10.6610  11.3715  21.7296  28.8279
    32.5242  35.8098

     occupation numbers 
     1.0000   1.0000   1.0000   1.0000   1.0000   1.0000   0.0000   0.0000
     0.0000   0.0000

          k =-0.5303-0.4125-0.2946 (   225 PWs)   bands (ev):

     7.7899   9.3460   9.6512   9.8498  10.9020  12.3651  18.4156  28.9959
    30.9428  35.3329

     occupation numbers 
     1.0000   1.0000   1.0000   1.0000   1.0000   1.0367   0.0000   0.0000
     0.0000   0.0000

          k =-0.4714-0.3536-0.2357 (   222 PWs)   bands (ev):

     7.9291   9.3064   9.8034   9.9070  10.9779  13.4257  16.5718  29.4416
    30.0127  35.1540

     occupation numbers 
     1.0000   1.0000   1.0000   1.0000   1.0000   0.0000   0.0000   0.0000
     0.0000   0.0000

          k =-0.0000 0.1179 0.3536 (   220 PWs)   bands (ev):

     6.2744   8.9294   9.7275  10.2779  10.3795  10.8779  27.3140  27.8416
    31.5019  34.4572

     occupation numbers 
     1.0000   1.0000   1.0000   1.0000   1.0000   1.0000   0.0000   0.0000
     0.0000   0.0000

          k = 0.0589 0.1768 0.4125 (   221 PWs)   bands (ev):

     7.3111   8.8562   9.5317  10.2693  10.6978  11.4593  23.6233  27.1526
    29.3948  34.8324

     occupation numbers 
     1.0000   1.0000   1.0000   1.0000   1.0000   1.0000   0.0000   0.0000
     0.0000   0.0000

          k =-0.5893-0.4714-0.2357 (   224 PWs)   bands (ev):

     8.0466   8.9318   9.4291  10.1722  10.9325  12.6853  20.0782  27.1324
    27.6909  34.8103

     occupation numbers 
     1.0000   1.0000   1.0000   1.0000   1.0000   0.0086   0.0000   0.0000
     0.0000   0.0000

          k =-0.5303-0.4125-0.1768 (   224 PWs)   bands (ev):

     8.2987   8.9801   9.5304  10.0836  10.9747  14.4815  17.2556  26.2231
    27.8319  35.0564

     occupation numbers 
     1.0000   1.0000   1.0000   1.0000   1.0000   0.0000   0.0000   0.0000
     0.0000   0.0000

          k =-0.4714-0.3536-0.1179 (   225 PWs)   bands (ev):

     8.3022   9.0489   9.4450  10.0703  10.8575  13.9501  18.0614  25.3546
    28.9038  35.7156

     occupation numbers 
     1.0000   1.0000   1.0000   1.0000   1.0000   0.0000   0.0000   0.0000
     0.0000   0.0000

          k =-0.4125-0.2946-0.0589 (   221 PWs)   bands (ev):

     7.9486   9.0803   9.2866  10.1372  10.6086  12.3783  21.2250  24.9865
    30.4309  36.8422

     occupation numbers 
     1.0000   1.0000   1.0000   1.0000   1.0000   1.0058   0.0000   0.0000
     0.0000   0.0000

          k =-0.3536-0.2357 0.0000 (   218 PWs)   bands (ev):

     7.0080   9.0202   9.5001  10.2148  10.3084  11.4393  24.6176  25.4247
    32.3413  38.5739

     occupation numbers 
     1.0000   1.0000   1.0000   1.0000   1.0000   1.0000   0.0000   0.0000
     0.0000   0.0000

          k = 0.0000 0.1179 0.4714 (   219 PWs)   bands (ev):

     7.5369   8.6158   9.8802  10.6802  10.7212  11.5095  25.5540  25.9815
    26.6410  33.2645

     occupation numbers 
     1.0000   1.0000   1.0000   1.0000   1.0000   1.0000   0.0000   0.0000
     0.0000   0.0000

          k =-0.6482-0.5303-0.1768 (   221 PWs)   bands (ev):

     8.0455   8.6048   9.7487  10.5711  10.9602  12.9339  22.2018  24.6420
    25.7640  33.9150

     occupation numbers 
     1.0000   1.0000   1.0000   1.0000   1.0000   0.0000   0.0000   0.0000
     0.0000   0.0000

          k =-0.5893-0.4714-0.1179 (   221 PWs)   bands (ev):

     8.3709   8.6805   9.5970  10.4244  11.0159  15.0314  18.9922  23.1907
    26.1976  34.2489

     occupation numbers 
     1.0000   1.0000   1.0000   1.0000   1.0000   0.0000   0.0000   0.0000
     0.0000   0.0000

          k =-0.5303-0.4125-0.0589 (   225 PWs)   bands (ev):

     8.6288   8.7402   9.3930  10.3168  10.9045  15.9867  17.9231  22.2225
    27.1805  34.8619

     occupation numbers 
     1.0000   1.0000   1.0000   1.0000   1.0000   0.0000   0.0000   0.0000
     0.0000   0.0000

          k =-0.4714-0.3536-0.0000 (   227 PWs)   bands (ev):

     8.5510   8.9754   9.1280  10.2684  10.7087  13.9131  20.4923  22.1867
    28.6180  35.8354

     occupation numbers 
     1.0000   1.0000   1.0000   1.0000   1.0000   0.0000   0.0000   0.0000
     0.0000   0.0000

          k =-0.7071-0.5893-0.1179 (   220 PWs)   bands (ev):

     7.8886   8.3904  10.4008  10.8721  11.0209  13.2780  22.2229  24.3675
    24.9013  32.5786

     occupation numbers 
     1.0000   1.0000   1.0000   1.0000   1.0000   0.0000   0.0000   0.0000
     0.0000   0.0000

          k =-0.6482-0.5303-0.0589 (   220 PWs)   bands (ev):

     8.1041   8.4618  10.1228  10.7101  11.0982  15.2326  20.8258  21.4628
    24.9783  33.4854

     occupation numbers 
     1.0000   1.0000   1.0000   1.0000   1.0000   0.0000   0.0000   0.0000
     0.0000   0.0000

          k =-0.5893-0.4714-0.0000 (   223 PWs)   bands (ev):

     8.3730   8.6182   9.7274  10.5247  11.0232  17.1599  18.5040  20.5143
    25.8379  34.0703

     occupation numbers 
     1.0000   1.0000   1.0000   1.0000   1.0000   0.0000   0.0000   0.0000
     0.0000   0.0000

          k = 0.0000 0.1179-0.7071 (   222 PWs)   bands (ev):

     7.8964   8.3088  10.6463  10.8697  11.1578  14.8986  19.8546  23.9425
    24.4801  32.3569

     occupation numbers 
     1.0000   1.0000   1.0000   1.0000   1.0000   0.0000   0.0000   0.0000
     0.0000   0.0000

          k =-0.7071-0.4714-0.2357 (   223 PWs)   bands (ev):

     8.0738   8.8159   9.3273  10.4773  10.6811  12.5500  22.8713  23.8749
    27.3499  37.3228

     occupation numbers 
     1.0000   1.0000   1.0000   1.0000   1.0000   0.2099   0.0000   0.0000
     0.0000   0.0000

          k =-0.6482-0.4125-0.1768 (   220 PWs)   bands (ev):

     8.5024   8.8630   9.2185  10.3639  10.8971  14.2834  19.8327  23.7371
    25.7007  37.7148

     occupation numbers 
     1.0000   1.0000   1.0000   1.0000   1.0000   0.0000   0.0000   0.0000
     0.0000   0.0000

          k =-0.5893-0.3536-0.1179 (   220 PWs)   bands (ev):

     8.7006   8.7267   9.2995  10.2881  10.9802  16.1722  17.4069  24.3500
    24.5949  37.6424

     occupation numbers 
     1.0000   1.0000   1.0000   1.0000   1.0000   0.0000   0.0000   0.0000
     0.0000   0.0000

          k =-0.7071-0.4714-0.1179 (   214 PWs)   bands (ev):

     8.2964   8.6581   9.5987  10.5932  11.0184  14.6937  21.7106  22.7801
    23.0769  36.5484

     occupation numbers 
     1.0000   1.0000   1.0000   1.0000   1.0000   0.0000   0.0000   0.0000
     0.0000   0.0000

          k =-0.6482-0.4125-0.0589 (   217 PWs)   bands (ev):

     8.4724   8.8105   9.3860  10.4364  11.0908  16.9546  19.0535  21.6925
    23.1216  37.6441

     occupation numbers 
     1.0000   1.0000   1.0000   1.0000   1.0000   0.0000   0.0000   0.0000
     0.0000   0.0000

[...]
     0.0000   0.0000

          k = 0.0000 0.0000 0.3521 (   218 PWs)   bands (ev):

     5.8678   8.7358   9.7913  10.0947  10.0947  10.5149  29.3616  29.3616
    30.6298  31.2697

     occupation numbers 
     1.0000   1.0000   1.0000   1.0000   1.0000   1.0000   0.0000   0.0000
     0.0000   0.0000

          k = 0.0587 0.0587 0.4108 (   222 PWs)   bands (ev):

     6.7341   8.5869   9.6956  10.1953  10.5653  10.6454  26.1257  28.4273
    28.4600  31.7383

     occupation numbers 
     1.0000   1.0000   1.0000   1.0000   1.0000   1.0000   0.0000   0.0000
     0.0000   0.0000

          k = 0.1174 0.1174 0.4695 (   221 PWs)   bands (ev):

     7.5568   8.5395   9.5478  10.1507  10.8085  11.6125  22.4070  26.4715
    28.0811  31.7743

     occupation numbers 
     1.0000   1.0000   1.0000   1.0000   1.0000   1.0000   0.0000   0.0000
     0.0000   0.0000

          k =-0.5282-0.5282-0.1761 (   226 PWs)   bands (ev):

     8.0429   8.6107   9.4583  10.0666  10.8541  13.3415  19.0498  24.8601
    28.3670  31.8662

     occupation numbers 
     1.0000   1.0000   1.0000   1.0000   1.0000   0.0000   0.0000   0.0000
     0.0000   0.0000

          k =-0.4695-0.4695-0.1174 (   227 PWs)   bands (ev):

     8.2532   8.7154   9.3832   9.9939  10.7395  15.1338  16.7905  23.6857
    29.2804  32.2177

     occupation numbers 
     1.0000   1.0000   1.0000   1.0000   1.0000   0.0000   0.0000   0.0000
     0.0000   0.0000

          k =-0.4108-0.4108-0.0587 (   227 PWs)   bands (ev):

     8.2520   8.8875   9.1541   9.9533  10.5047  13.5811  19.0417  23.0076
    30.7625  32.9061

     occupation numbers 
     1.0000   1.0000   1.0000   1.0000   1.0000   0.0000   0.0000   0.0000
     0.0000   0.0000

          k =-0.3521-0.3521 0.0000 (   222 PWs)   bands (ev):

     7.7606   8.9441   9.1429   9.9250  10.2538  12.1113  22.0373  23.2042
    32.7214  33.9590

     occupation numbers 
     1.0000   1.0000   1.0000   1.0000   1.0000   1.0827   0.0000   0.0000
     0.0000   0.0000

          k =-0.0000-0.0000 0.4695 (   218 PWs)   bands (ev):

     7.1833   8.3978  10.3489  10.4925  10.4925  10.6517  25.9453  27.2507
    27.2507  30.4654

     occupation numbers 
     1.0000   1.0000   1.0000   1.0000   1.0000   1.0000   0.0000   0.0000
     0.0000   0.0000

          k = 0.0587 0.0587 0.5282 (   226 PWs)   bands (ev):

     7.5735   8.2992  10.2459  10.5169  10.8076  11.7122  23.8307  24.6438
    26.6779  30.9986

     occupation numbers 
     1.0000   1.0000   1.0000   1.0000   1.0000   1.0000   0.0000   0.0000
     0.0000   0.0000

          k =-0.5869-0.5869-0.1174 (   224 PWs)   bands (ev):

     7.8896   8.3188   9.9816  10.4352  10.8802  13.6074  21.2838  22.1750
    26.7746  31.2830

     occupation numbers 
     1.0000   1.0000   1.0000   1.0000   1.0000   0.0000   0.0000   0.0000
     0.0000   0.0000

          k =-0.5282-0.5282-0.0587 (   223 PWs)   bands (ev):

     8.1786   8.4317   9.6612  10.3266  10.7899  15.9293  18.2622  21.0063
    27.5410  31.5833

     occupation numbers 
     1.0000   1.0000   1.0000   1.0000   1.0000   0.0000   0.0000   0.0000
     0.0000   0.0000

          k =-0.4695-0.4695-0.0000 (   222 PWs)   bands (ev):

     8.4274   8.5900   9.3117  10.1761  10.6211  15.6231  18.2865  20.7983
    28.9065  32.1072

     occupation numbers 
     1.0000   1.0000   1.0000   1.0000   1.0000   0.0000   0.0000   0.0000
     0.0000   0.0000

          k = 0.0000 0.0000 0.5869 (   222 PWs)   bands (ev):

     7.5830   8.1565  10.7529  10.8258  10.8258  12.2934  21.7093  25.8661
    25.8661  30.0112

     occupation numbers 
     1.0000   1.0000   1.0000   1.0000   1.0000   0.4199   0.0000   0.0000
     0.0000   0.0000

          k =-0.6456-0.6456-0.0587 (   222 PWs)   bands (ev):

     7.6842   8.1363  10.6513  10.7090  10.9194  13.7947  20.2029  23.8055
    25.7400  30.6644

     occupation numbers 
     1.0000   1.0000   1.0000   1.0000   1.0000   0.0000   0.0000   0.0000
     0.0000   0.0000

          k =-0.5869-0.5869 0.0000 (   226 PWs)   bands (ev):

     7.8939   8.2418  10.1886  10.5806  10.8714  15.3482  19.6797  20.9203
    26.3212  31.1347

     occupation numbers 
     1.0000   1.0000   1.0000   1.0000   1.0000   0.0000   0.0000   0.0000
     0.0000   0.0000

          k =-0.0000-0.0000-0.7043 (   222 PWs)   bands (ev):

     7.6075   8.0695  10.7901  10.9589  10.9589  13.8873  19.4397  25.3787
    25.3787  29.8651

     occupation numbers 
     1.0000   1.0000   1.0000   1.0000   1.0000   0.0000   0.0000   0.0000
     0.0000   0.0000

          k =-0.0000 0.1174 0.2348 (   221 PWs)   bands (ev):

     4.7297   9.0842   9.6456   9.7582  10.0250  10.4284  29.1580  29.8018
    35.7574  36.0037

     occupation numbers 
     1.0000   1.0000   1.0000   1.0000   1.0000   1.0000   0.0000   0.0000
     0.0000   0.0000

          k = 0.0587 0.1761 0.2935 (   224 PWs)   bands (ev):

     5.8094   8.9677   9.5265   9.8238  10.1597  10.6923  25.2620  28.7965
    34.0798  36.0154

     occupation numbers 
     1.0000   1.0000   1.0000   1.0000   1.0000   1.0000   0.0000   0.0000
     0.0000   0.0000

          k = 0.1174 0.2348 0.3521 (   225 PWs)   bands (ev):

     6.9782   9.0311   9.3626   9.7492  10.4718  11.1713  21.4429  28.4981
    32.1715  35.4315

     occupation numbers 
     1.0000   1.0000   1.0000   1.0000   1.0000   1.0000   0.0000   0.0000
     0.0000   0.0000

          k =-0.5282-0.4108-0.2935 (   229 PWs)   bands (ev):

     7.6459   9.1826   9.4829   9.6758  10.7081  12.1589  18.1469  28.6680
    30.5936  34.9665

     occupation numbers 
     1.0000   1.0000   1.0000   1.0000   1.0000   1.0316   0.0000   0.0000
     0.0000   0.0000

          k =-0.4695-0.3521-0.2348 (   226 PWs)   bands (ev):

     7.7847   9.1433   9.6299   9.7358  10.7825  13.2220  16.3057  29.1248
    29.6548  34.7924

     occupation numbers 
     1.0000   1.0000   1.0000   1.0000   1.0000   0.0000   0.0000   0.0000
     0.0000   0.0000

          k =-0.0000 0.1174 0.3521 (   222 PWs)   bands (ev):

     6.1365   8.7722   9.5556  10.0957  10.1956  10.6846  26.9969  27.5152
    31.1583  34.1067

     occupation numbers 
     1.0000   1.0000   1.0000   1.0000   1.0000   1.0000   0.0000   0.0000
     0.0000   0.0000

          k = 0.0587 0.1761 0.4108 (   222 PWs)   bands (ev):

     7.1680   8.7006   9.3635  10.0873  10.5081  11.2579  23.3269  26.8343
    29.0569  34.4660

     occupation numbers 
     1.0000   1.0000   1.0000   1.0000   1.0000   1.0000   0.0000   0.0000
     0.0000   0.0000

          k =-0.5869-0.4695-0.2348 (   224 PWs)   bands (ev):

     7.9001   8.7759   9.2628   9.9921  10.7381  12.4731  19.8035  26.8228
    27.3536  34.4431

     occupation numbers 
     1.0000   1.0000   1.0000   1.0000   1.0000   0.0097   0.0000   0.0000
     0.0000   0.0000

          k =-0.5282-0.4108-0.1761 (   227 PWs)   bands (ev):

     8.1499   8.8239   9.3636   9.9051  10.7794  14.2627  16.9925  25.9103
    27.5017  34.6904

     occupation numbers 
     1.0000   1.0000   1.0000   1.0000   1.0000   0.0000   0.0000   0.0000
     0.0000   0.0000

          k =-0.4695-0.3521-0.1174 (   230 PWs)   bands (ev):

     8.1529   8.8913   9.2798   9.8921  10.6645  13.7301  17.7970  25.0453
    28.5681  35.3466

     occupation numbers 
     1.0000   1.0000   1.0000   1.0000   1.0000   0.0000   0.0000   0.0000
     0.0000   0.0000

          k =-0.4108-0.2935-0.0587 (   225 PWs)   bands (ev):

     7.8010   8.9214   9.1232   9.9579  10.4204  12.1662  20.9437  24.6786
    30.0861  36.4631

     occupation numbers 
     1.0000   1.0000   1.0000   1.0000   1.0000   1.0149   0.0000   0.0000
     0.0000   0.0000

          k =-0.3521-0.2348 0.0000 (   223 PWs)   bands (ev):

     6.8651   8.8615   9.3328  10.0340  10.1256  11.2372  24.3186  25.1101
    31.9867  37.9559

     occupation numbers 
     1.0000   1.0000   1.0000   1.0000   1.0000   1.0000   0.0000   0.0000
     0.0000   0.0000

          k = 0.0000 0.1174 0.4695 (   219 PWs)   bands (ev):

     7.3955   8.4642   9.7060  10.4906  10.5311  11.3090  25.2496  25.6791
    26.3097  32.9196

     occupation numbers 
     1.0000   1.0000   1.0000   1.0000   1.0000   1.0000   0.0000   0.0000
     0.0000   0.0000

          k =-0.6456-0.5282-0.1761 (   223 PWs)   bands (ev):

     7.9017   8.4536   9.5771  10.3837  10.7653  12.7206  21.9176  24.3365
    25.4497  33.5551

     occupation numbers 
     1.0000   1.0000   1.0000   1.0000   1.0000   0.0000   0.0000   0.0000
     0.0000   0.0000

          k =-0.5869-0.4695-0.1174 (   223 PWs)   bands (ev):

     8.2234   8.5286   9.4286  10.2397  10.8198  14.8032  18.7275  22.8912
    25.8823  33.8845

     occupation numbers 
     1.0000   1.0000   1.0000   1.0000   1.0000   0.0000   0.0000   0.0000
     0.0000   0.0000

          k =-0.5282-0.4108-0.0587 (   225 PWs)   bands (ev):

     8.4761   8.5883   9.2284  10.1341  10.7106  15.7514  17.6661  21.9275
    26.8575  34.4945

     occupation numbers 
     1.0000   1.0000   1.0000   1.0000   1.0000   0.0000   0.0000   0.0000
     0.0000   0.0000

          k =-0.4695-0.3521 0.0000 (   227 PWs)   bands (ev):

     8.3987   8.8184   8.9678  10.0868  10.5184  13.6883  20.2243  21.8886
    28.2846  35.4625

     occupation numbers 
     1.0000   1.0000   1.0000   1.0000   1.0000   0.0000   0.0000   0.0000
     0.0000   0.0000

          k =-0.7043-0.5869-0.1174 (   226 PWs)   bands (ev):

     7.7487   8.2428  10.2180  10.6790  10.8248  13.0686  21.9280  24.0737
    24.5955  32.2363

     occupation numbers 
     1.0000   1.0000   1.0000   1.0000   1.0000   0.0000   0.0000   0.0000
     0.0000   0.0000

          k =-0.6456-0.5282-0.0587 (   223 PWs)   bands (ev):

     7.9618   8.3130   9.9455  10.5199  10.9006  15.0092  20.5422  21.1786
    24.6742  33.1279

     occupation numbers 
     1.0000   1.0000   1.0000   1.0000   1.0000   0.0000   0.0000   0.0000
     0.0000   0.0000

          k =-0.5869-0.4695-0.0000 (   223 PWs)   bands (ev):

     8.2267   8.4669   9.5572  10.3381  10.8270  16.9223  18.2504  20.2192
    25.5261  33.7065

     occupation numbers 
     1.0000   1.0000   1.0000   1.0000   1.0000   0.0000   0.0000   0.0000
     0.0000   0.0000

          k = 0.0000 0.1174-0.7043 (   224 PWs)   bands (ev):

     7.7575   8.1626  10.4592  10.6764  10.9591  14.6875  19.5648  23.6530
    24.1797  32.0153

     occupation numbers 
     1.0000   1.0000   1.0000   1.0000   1.0000   0.0000   0.0000   0.0000
     0.0000   0.0000

          k =-0.7043-0.4695-0.2348 (   223 PWs)   bands (ev):

     7.9268   8.6609   9.1628  10.2919  10.4914  12.3369  22.5855  23.5714
    27.0235  36.9531

     occupation numbers 
     1.0000   1.0000   1.0000   1.0000   1.0000   0.2260   0.0000   0.0000
     0.0000   0.0000

          k =-0.6456-0.4108-0.1761 (   225 PWs)   bands (ev):

     8.3524   8.7078   9.0560  10.1805  10.7033  14.0576  19.5630  23.4381
    25.3842  37.3308

     occupation numbers 
     1.0000   1.0000   1.0000   1.0000   1.0000   0.0000   0.0000   0.0000
     0.0000   0.0000

          k =-0.5869-0.3521-0.1174 (   228 PWs)   bands (ev):

     8.5465   8.5750   9.1365  10.1059  10.7848  15.9423  17.1441  24.0618
    24.2712  37.2590

     occupation numbers 
     1.0000   1.0000   1.0000   1.0000   1.0000   0.0000   0.0000   0.0000
     0.0000   0.0000

          k =-0.7043-0.4695-0.1174 (   222 PWs)   bands (ev):

     8.1510   8.5059   9.4301  10.4055  10.8223  14.4673  21.4350  22.5036
    22.7563  36.1828

     occupation numbers 
     1.0000   1.0000   1.0000   1.0000   1.0000   0.0000   0.0000   0.0000
     0.0000   0.0000

          k =-0.6456-0.4108-0.0587 (   220 PWs)   bands (ev):

     8.3248   8.6557   9.2214  10.2514  10.8934  16.7137  18.7928  21.4021
    22.8216  37.2619

     occupation numbers 
     1.0000   1.0000   1.0000   1.0000   1.0000   0.0000   0.0000   0.0000
     0.0000   0.0000

          k =-0.5869-0.3521-0.0000 (   221 PWs)   bands (ev):

     8.4486   8.8167   8.9511  10.1960  10.8206  16.1660  19.0025  21.1250
    23.8744  37.9989

     occupation numbers 
     1.0000   1.0000   1.0000   1.0000   1.0000   0.0000   0.0000   0.0000
     0.0000   0.0000

          k =-0.0000 0.2348-0.7043 (   216 PWs)   bands (ev):

     8.1124   8.4483   9.6353  10.3930  10.9595  16.4042  19.9850  21.0241
    22.3093  35.9263

     occupation numbers 
     1.0000   1.0000   1.0000   1.0000   1.0000   0.0000   0.0000   0.0000
     0.0000   0.0000

          k =-0.0000 0.3521-0.7043 (   224 PWs)   bands (ev):

     8.3363   8.9392   8.9392  10.2043  10.9596  18.5590  18.5590  20.6560
    21.0755  40.5512

     occupation numbers 
     1.0000   1.0000   1.0000   1.0000   1.0000   0.0000   0.0000   0.0000
     0.0000   0.0000

     the Fermi energy is    12.2972 ev

!    total energy              =    -121.48879859 Ry
     Harris-Foulkes estimate   =    -121.48879859 Ry
     estimated scf accuracy    <          3.4E-11 Ry

     The total energy is the sum of the following terms:

     one-electron contribution =     -29.00842204 Ry
     hartree contribution      =      31.20660044 Ry
     xc contribution           =     -42.80240007 Ry
     ewald contribution        =     -80.88473943 Ry
     smearing contrib. (-TS)   =       0.00016252 Ry

     total magnetization       =     0.00 Bohr mag/cell
     absolute magnetization    =     0.00 Bohr mag/cell

     convergence has been achieved in   9 iterations

     Forces acting on atoms (cartesian axes, Ry/au):

     atom    1 type  1   force =     0.00000000    0.00000000    0.00000000
     The non-local contrib.  to forces
     atom    1 type  1   force =     0.00000000    0.00000000   -0.00000000
     The ionic contribution  to forces
     atom    1 type  1   force =     0.00000000    0.00000000    0.00000000
     The local contribution  to forces
     atom    1 type  1   force =     0.00000000   -0.00000000   -0.00000000
     The core correction contribution to forces
     atom    1 type  1   force =    -0.00000000   -0.00000000   -0.00000000
     The Hubbard contrib.    to forces
     atom    1 type  1   force =     0.00000000    0.00000000    0.00000000
     The SCF correction term to forces
     atom    1 type  1   force =    -0.00000000   -0.00000000    0.00000000

     Total force =     0.000000     Total SCF correction =     0.000000


     Computing stress (Cartesian axis) and pressure

          total   stress  (Ry/bohr**3)                   (kbar)     P=   -0.19
  -0.00000128   0.00000000   0.00000000         -0.19      0.00      0.00
   0.00000000  -0.00000128  -0.00000000          0.00     -0.19     -0.00
   0.00000000  -0.00000000  -0.00000128          0.00     -0.00     -0.19

     kinetic stress (kbar)  13226.47     -0.00     -0.00
                               -0.00  13226.47      0.00
                               -0.00      0.00  13226.47

     local   stress (kbar)  23172.38      0.00      0.00
                                0.00  23172.38      0.00
                                0.00      0.00  23172.38

     nonloc. stress (kbar)   6851.21     -0.00     -0.00
                               -0.00   6851.21     -0.00
                               -0.00     -0.00   6851.21

     hartree stress (kbar)  18970.45     -0.00     -0.00
                               -0.00  18970.45      0.00
                               -0.00      0.00  18970.45

     exc-cor stress (kbar)  30055.79     -0.00     -0.00
                               -0.00  30055.79      0.00
                               -0.00      0.00  30055.79

     corecor stress (kbar) -43106.77      0.00      0.00
                                0.00 -43106.77      0.00
                                0.00      0.00 -43106.77

     ewald   stress (kbar) -49169.72     -0.00     -0.00
                               -0.00 -49169.72     -0.00
                               -0.00     -0.00 -49169.72

     hubbard stress (kbar)      0.00      0.00      0.00
                                0.00      0.00      0.00
                                0.00      0.00      0.00

     london  stress (kbar)      0.00      0.00      0.00
                                0.00      0.00      0.00
                                0.00      0.00      0.00

     DFT-D3  stress (kbar)      0.00      0.00      0.00
                                0.00      0.00      0.00
                                0.00      0.00      0.00

     XDM     stress (kbar)      0.00      0.00      0.00
                                0.00      0.00      0.00
                                0.00      0.00      0.00

     dft-nl  stress (kbar)      0.00      0.00      0.00
                                0.00      0.00      0.00
                                0.00      0.00      0.00

     TS-vdW  stress (kbar)      0.00      0.00      0.00
                                0.00      0.00      0.00
                                0.00      0.00      0.00


 
     init_run     :      7.92s CPU      9.32s WALL (       2 calls)
     electrons    :    833.12s CPU    925.84s WALL (       6 calls)
     update_pot   :      0.25s CPU      0.27s WALL (       3 calls)
     forces       :      6.75s CPU      7.52s WALL (       6 calls)
     stress       :     10.09s CPU     11.30s WALL (       6 calls)

     Called by init_run:
     wfcinit      :      6.96s CPU      8.15s WALL (       2 calls)
     wfcinit:atom :      0.05s CPU      0.06s WALL (     288 calls)
     wfcinit:wfcr :      6.86s CPU      8.03s WALL (     288 calls)
     potinit      :      0.12s CPU      0.15s WALL (       3 calls)
     hinit0       :      0.79s CPU      0.94s WALL (       2 calls)

     Called by electrons:
     c_bands      :    695.36s CPU    772.16s WALL (      69 calls)
     sum_band     :    133.45s CPU    148.83s WALL (      69 calls)
     v_of_rho     :      1.47s CPU      1.64s WALL (      75 calls)
     v_h          :      0.20s CPU      0.22s WALL (      75 calls)
     v_xc         :      1.45s CPU      1.64s WALL (      87 calls)
     newd         :      2.19s CPU      2.44s WALL (      75 calls)
     mix_rho      :      0.46s CPU      0.51s WALL (      69 calls)

     Called by c_bands:
     init_us_2    :      2.75s CPU      2.92s WALL (   21888 calls)
     cegterg      :    674.25s CPU    748.71s WALL (    9936 calls)

     Called by sum_band:
     sum_band:bec :      1.29s CPU      1.47s WALL (    9936 calls)
     addusdens    :      3.11s CPU      3.28s WALL (      69 calls)

     Called by *egterg:
     h_psi        :    546.47s CPU    606.29s WALL (   29274 calls)
     s_psi        :      1.54s CPU      1.47s WALL (   29274 calls)
     g_psi        :      1.90s CPU      2.28s WALL (   19050 calls)
     cdiaghg      :     43.73s CPU     48.62s WALL (   28410 calls)
     cegterg:over :     35.75s CPU     39.92s WALL (   19050 calls)
     cegterg:upda :      3.32s CPU      3.83s WALL (   19050 calls)
     cegterg:last :      1.59s CPU      1.82s WALL (   10106 calls)

     Called by h_psi:
     h_psi:pot    :    544.02s CPU    603.56s WALL (   29274 calls)
     h_psi:calbec :     28.23s CPU     31.63s WALL (   29274 calls)
     vloc_psi     :    513.28s CPU    569.47s WALL (   29274 calls)
     add_vuspsi   :      2.17s CPU      2.31s WALL (   29274 calls)

     General routines
     calbec       :     44.85s CPU     50.60s WALL (   43530 calls)
     fft          :      1.88s CPU      2.16s WALL (    1837 calls)
     ffts         :      0.13s CPU      0.16s WALL (     138 calls)
     fftw         :    559.71s CPU    624.67s WALL (  586578 calls)
 
     Parallel routines
     fft_scatt_xy :     35.13s CPU     36.49s WALL (  588553 calls)
     fft_scatt_yz :    383.12s CPU    441.50s WALL (  588553 calls)
 
     PWSCF        : 14m18.39s CPU    15m54.75s WALL

 
   This run was terminated on:   1:35:39  21Feb2019            

=------------------------------------------------------------------------------=
   JOB DONE.
=------------------------------------------------------------------------------=
