
     Program PWSCF v.6.3MaX starts on 21Feb2019 at  1:35:41 

     This program is part of the open-source Quantum ESPRESSO suite
     for quantum simulation of materials; please cite
         "P. Giannozzi et al., J. Phys.:Condens. Matter 21 395502 (2009);
         "P. Giannozzi et al., J. Phys.:Condens. Matter 29 465901 (2017);
          URL http://www.quantum-espresso.org", 
     in publications or presentations arising from this work. More details at
     http://www.quantum-espresso.org/quote

 *** WARNING: using old-style file format, will disappear from next version ***

     Parallel version (MPI & OpenMP), running on      20 processor cores
     Number of MPI processes:                 5
     Threads/MPI process:                     4

     MPI processes distributed on     1 nodes
     R & G space division:  proc/nbgrp/npool/nimage =       5
     Reading input from /home/azadoks/dftman/projects/GP01 Cu Ecut/ConvergenceWorkflows/f82417787d3f/dd44e95adcd4/pwscf.in

     Current dimensions of program PWSCF are:
     Max number of different atomic species (ntypx) = 10
     Max number of k-points (npk) =  40000
     Max angular momentum in pseudopotentials (lmaxx) =  3
     Message from routine iosys:
     minimal I/O required, wf_collect reset to FALSE

     Subspace diagonalization in iterative solution of the eigenvalue problem:
     a serial algorithm will be used

 
     Parallelization info
     --------------------
     sticks:   dense  smooth     PW     G-vecs:    dense   smooth      PW
     Min          43      43     17                  445      445     106
     Max          45      45     17                  446      446     107
     Sum         223     223     85                 2229     2229     531
 


     bravais-lattice index     =            0
     lattice parameter (alat)  =       4.8305  a.u.
     unit-cell volume          =      79.7006 (a.u.)^3
     number of atoms/cell      =            1
     number of atomic types    =            1
     number of electrons       =        11.00
     number of Kohn-Sham states=           10
     kinetic-energy cutoff     =      35.0000  Ry
     charge density cutoff     =     140.0000  Ry
     convergence threshold     =      1.0E-08
     mixing beta               =       0.7000
     number of iterations used =            8  plain     mixing
     Exchange-correlation      =  SLA  PW   PBE  PBE ( 1  4  3  4 0 0)
     nstep                     =           50


     celldm(1)=   4.830501  celldm(2)=   0.000000  celldm(3)=   0.000000
     celldm(4)=   0.000000  celldm(5)=   0.000000  celldm(6)=   0.000000

     crystal axes: (cart. coord. in units of alat)
               a(1) = (  -0.707107   0.707107   0.000000 )  
               a(2) = (  -0.707107   0.000000   0.707107 )  
               a(3) = (   0.000000   0.707107   0.707107 )  

     reciprocal axes: (cart. coord. in units 2 pi/alat)
               b(1) = ( -0.707107  0.707107 -0.707107 )  
               b(2) = ( -0.707107 -0.707107  0.707107 )  
               b(3) = (  0.707107  0.707107  0.707107 )  


     PseudoPot. # 1 for Cu read from file:
     /home/azadoks/.local/share/pseudo/DFTQE_PBE/Cu_PBE.UPF
     MD5 check sum: f96b10b0f61dc418faf9c97f6ccca034
     Pseudo is Ultrasoft + core correction, Zval = 11.0
     Generated by new atomic code, or converted to UPF format
     Using radial grid of  867 points,  6 beta functions with: 
                l(1) =   0
                l(2) =   0
                l(3) =   1
                l(4) =   1
                l(5) =   2
                l(6) =   2
     Q(r) pseudized with  8 coefficients,  rinner =    1.400   1.400   1.400
                                                       1.400   1.400

     atomic species   valence    mass     pseudopotential
        Cu            11.00    63.54600     Cu( 1.00)

     Starting magnetic structure 
     atomic species   magnetization
        Cu           0.100

     48 Sym. Ops., with inversion, found


                                    s                        frac. trans.

      isym =  1     identity                                     

 cryst.   s( 1) = (     1          0          0      )
                  (     0          1          0      )
                  (     0          0          1      )

 cart.    s( 1) = (  1.0000000 -0.0000000  0.0000000 )
                  ( -0.0000000  1.0000000 -0.0000000 )
                  ( -0.0000000 -0.0000000  1.0000000 )


      isym =  2     180 deg rotation - cart. axis [0,0,1]        

 cryst.   s( 2) = (    -1          0          0      )
                  (    -1          0          1      )
                  (    -1          1          0      )

 cart.    s( 2) = ( -1.0000000  0.0000000  0.0000000 )
                  (  0.0000000 -1.0000000 -0.0000000 )
                  (  0.0000000  0.0000000  1.0000000 )


      isym =  3     180 deg rotation - cart. axis [0,1,0]        

 cryst.   s( 3) = (     0         -1          1      )
                  (     0         -1          0      )
                  (     1         -1          0      )

 cart.    s( 3) = ( -1.0000000 -0.0000000 -0.0000000 )
                  (  0.0000000  1.0000000  0.0000000 )
                  (  0.0000000 -0.0000000 -1.0000000 )


      isym =  4     180 deg rotation - cart. axis [1,0,0]        

 cryst.   s( 4) = (     0          1         -1      )
                  (     1          0         -1      )
                  (     0          0         -1      )

 cart.    s( 4) = (  1.0000000  0.0000000 -0.0000000 )
                  ( -0.0000000 -1.0000000  0.0000000 )
                  ( -0.0000000  0.0000000 -1.0000000 )


      isym =  5     180 deg rotation - cart. axis [1,1,0]        

 cryst.   s( 5) = (    -1          0          0      )
                  (     0          0         -1      )
                  (     0         -1          0      )

 cart.    s( 5) = ( -0.0000000  1.0000000 -0.0000000 )
                  (  1.0000000 -0.0000000  0.0000000 )
                  ( -0.0000000 -0.0000000 -1.0000000 )


      isym =  6     180 deg rotation - cart. axis [1,-1,0]       

 cryst.   s( 6) = (     1          0          0      )
                  (     1         -1          0      )
                  (     1          0         -1      )

 cart.    s( 6) = (  0.0000000 -1.0000000 -0.0000000 )
                  ( -1.0000000  0.0000000  0.0000000 )
                  (  0.0000000  0.0000000 -1.0000000 )


      isym =  7      90 deg rotation - cart. axis [0,0,-1]       

 cryst.   s( 7) = (     0         -1          1      )
                  (     0          0          1      )
                  (    -1          0          1      )

 cart.    s( 7) = (  0.0000000  1.0000000  0.0000000 )
                  ( -1.0000000 -0.0000000 -0.0000000 )
                  (  0.0000000 -0.0000000  1.0000000 )


      isym =  8      90 deg rotation - cart. axis [0,0,1]        

 cryst.   s( 8) = (     0          1         -1      )
                  (    -1          1          0      )
                  (     0          1          0      )

 cart.    s( 8) = ( -0.0000000 -1.0000000  0.0000000 )
                  (  1.0000000  0.0000000 -0.0000000 )
                  ( -0.0000000  0.0000000  1.0000000 )


      isym =  9     180 deg rotation - cart. axis [1,0,1]        

 cryst.   s( 9) = (     0          0         -1      )
                  (     0         -1          0      )
                  (    -1          0          0      )

 cart.    s( 9) = (  0.0000000  0.0000000  1.0000000 )
                  ( -0.0000000 -1.0000000 -0.0000000 )
                  (  1.0000000  0.0000000 -0.0000000 )


      isym = 10     180 deg rotation - cart. axis [-1,0,1]       

 cryst.   s(10) = (    -1          1          0      )
                  (     0          1          0      )
                  (     0          1         -1      )

 cart.    s(10) = ( -0.0000000  0.0000000 -1.0000000 )
                  (  0.0000000 -1.0000000  0.0000000 )
                  ( -1.0000000  0.0000000  0.0000000 )


      isym = 11      90 deg rotation - cart. axis [0,1,0]        

 cryst.   s(11) = (     0          0          1      )
                  (    -1          0          1      )
                  (     0         -1          1      )

 cart.    s(11) = ( -0.0000000 -0.0000000  1.0000000 )
                  (  0.0000000  1.0000000 -0.0000000 )
                  ( -1.0000000 -0.0000000 -0.0000000 )


      isym = 12      90 deg rotation - cart. axis [0,-1,0]       

 cryst.   s(12) = (     1         -1          0      )
                  (     1          0         -1      )
                  (     1          0          0      )

 cart.    s(12) = (  0.0000000 -0.0000000 -1.0000000 )
                  ( -0.0000000  1.0000000  0.0000000 )
                  (  1.0000000 -0.0000000  0.0000000 )


      isym = 13     180 deg rotation - cart. axis [0,1,1]        

 cryst.   s(13) = (    -1          0          1      )
                  (     0         -1          1      )
                  (     0          0          1      )

 cart.    s(13) = ( -1.0000000  0.0000000 -0.0000000 )
                  (  0.0000000 -0.0000000  1.0000000 )
                  (  0.0000000  1.0000000 -0.0000000 )


      isym = 14     180 deg rotation - cart. axis [0,1,-1]       

 cryst.   s(14) = (     0         -1          0      )
                  (    -1          0          0      )
                  (     0          0         -1      )

 cart.    s(14) = ( -1.0000000 -0.0000000  0.0000000 )
                  (  0.0000000  0.0000000 -1.0000000 )
                  (  0.0000000 -1.0000000  0.0000000 )


      isym = 15      90 deg rotation - cart. axis [-1,0,0]       

 cryst.   s(15) = (     1          0         -1      )
                  (     1          0          0      )
                  (     1         -1          0      )

 cart.    s(15) = (  1.0000000 -0.0000000 -0.0000000 )
                  ( -0.0000000  0.0000000  1.0000000 )
                  ( -0.0000000 -1.0000000 -0.0000000 )


      isym = 16      90 deg rotation - cart. axis [1,0,0]        

 cryst.   s(16) = (     0          1          0      )
                  (     0          1         -1      )
                  (    -1          1          0      )

 cart.    s(16) = (  1.0000000  0.0000000  0.0000000 )
                  ( -0.0000000 -0.0000000 -1.0000000 )
                  ( -0.0000000  1.0000000  0.0000000 )


      isym = 17     120 deg rotation - cart. axis [-1,-1,-1]     

 cryst.   s(17) = (     0         -1          0      )
                  (     1         -1          0      )
                  (     0         -1          1      )

 cart.    s(17) = (  0.0000000  1.0000000 -0.0000000 )
                  ( -0.0000000 -0.0000000  1.0000000 )
                  (  1.0000000 -0.0000000 -0.0000000 )


      isym = 18     120 deg rotation - cart. axis [-1,1,1]       

 cryst.   s(18) = (     0          1          0      )
                  (     0          0          1      )
                  (     1          0          0      )

 cart.    s(18) = ( -0.0000000 -1.0000000 -0.0000000 )
                  (  0.0000000  0.0000000  1.0000000 )
                  ( -1.0000000  0.0000000 -0.0000000 )


      isym = 19     120 deg rotation - cart. axis [1,1,-1]       

 cryst.   s(19) = (    -1          0          1      )
                  (    -1          1          0      )
                  (    -1          0          0      )

 cart.    s(19) = ( -0.0000000  1.0000000  0.0000000 )
                  (  0.0000000 -0.0000000 -1.0000000 )
                  ( -1.0000000 -0.0000000  0.0000000 )


      isym = 20     120 deg rotation - cart. axis [1,-1,1]       

 cryst.   s(20) = (     1          0         -1      )
                  (     0          0         -1      )
                  (     0          1         -1      )

 cart.    s(20) = (  0.0000000 -1.0000000  0.0000000 )
                  ( -0.0000000  0.0000000 -1.0000000 )
                  (  1.0000000  0.0000000  0.0000000 )


      isym = 21     120 deg rotation - cart. axis [1,1,1]        

 cryst.   s(21) = (    -1          1          0      )
                  (    -1          0          0      )
                  (    -1          0          1      )

 cart.    s(21) = ( -0.0000000  0.0000000  1.0000000 )
                  (  1.0000000 -0.0000000 -0.0000000 )
                  ( -0.0000000  1.0000000 -0.0000000 )


      isym = 22     120 deg rotation - cart. axis [-1,1,-1]      

 cryst.   s(22) = (     1         -1          0      )
                  (     0         -1          1      )
                  (     0         -1          0      )

 cart.    s(22) = (  0.0000000 -0.0000000  1.0000000 )
                  ( -1.0000000  0.0000000 -0.0000000 )
                  (  0.0000000 -1.0000000 -0.0000000 )


      isym = 23     120 deg rotation - cart. axis [1,-1,-1]      

 cryst.   s(23) = (     0          0          1      )
                  (     1          0          0      )
                  (     0          1          0      )

 cart.    s(23) = (  0.0000000  0.0000000 -1.0000000 )
                  ( -1.0000000 -0.0000000  0.0000000 )
                  (  0.0000000  1.0000000  0.0000000 )


      isym = 24     120 deg rotation - cart. axis [-1,-1,1]      

 cryst.   s(24) = (     0          0         -1      )
                  (     0          1         -1      )
                  (     1          0         -1      )

 cart.    s(24) = ( -0.0000000 -0.0000000 -1.0000000 )
                  (  1.0000000  0.0000000  0.0000000 )
                  ( -0.0000000 -1.0000000  0.0000000 )


      isym = 25     inversion                                    

 cryst.   s(25) = (    -1          0          0      )
                  (     0         -1          0      )
                  (     0          0         -1      )

 cart.    s(25) = ( -1.0000000  0.0000000 -0.0000000 )
                  (  0.0000000 -1.0000000  0.0000000 )
                  (  0.0000000  0.0000000 -1.0000000 )


      isym = 26     inv. 180 deg rotation - cart. axis [0,0,1]   

 cryst.   s(26) = (     1          0          0      )
                  (     1          0         -1      )
                  (     1         -1          0      )

 cart.    s(26) = (  1.0000000 -0.0000000 -0.0000000 )
                  ( -0.0000000  1.0000000  0.0000000 )
                  ( -0.0000000 -0.0000000 -1.0000000 )


      isym = 27     inv. 180 deg rotation - cart. axis [0,1,0]   

 cryst.   s(27) = (     0          1         -1      )
                  (     0          1          0      )
                  (    -1          1          0      )

 cart.    s(27) = (  1.0000000  0.0000000  0.0000000 )
                  ( -0.0000000 -1.0000000 -0.0000000 )
                  ( -0.0000000  0.0000000  1.0000000 )


      isym = 28     inv. 180 deg rotation - cart. axis [1,0,0]   

 cryst.   s(28) = (     0         -1          1      )
                  (    -1          0          1      )
                  (     0          0          1      )

 cart.    s(28) = ( -1.0000000 -0.0000000  0.0000000 )
                  (  0.0000000  1.0000000 -0.0000000 )
                  (  0.0000000 -0.0000000  1.0000000 )


      isym = 29     inv. 180 deg rotation - cart. axis [1,1,0]   

 cryst.   s(29) = (     1          0          0      )
                  (     0          0          1      )
                  (     0          1          0      )

 cart.    s(29) = (  0.0000000 -1.0000000  0.0000000 )
                  ( -1.0000000  0.0000000 -0.0000000 )
                  (  0.0000000  0.0000000  1.0000000 )


      isym = 30     inv. 180 deg rotation - cart. axis [1,-1,0]  

 cryst.   s(30) = (    -1          0          0      )
                  (    -1          1          0      )
                  (    -1          0          1      )

 cart.    s(30) = ( -0.0000000  1.0000000  0.0000000 )
                  (  1.0000000 -0.0000000 -0.0000000 )
                  ( -0.0000000 -0.0000000  1.0000000 )


      isym = 31     inv.  90 deg rotation - cart. axis [0,0,-1]  

 cryst.   s(31) = (     0          1         -1      )
                  (     0          0         -1      )
                  (     1          0         -1      )

 cart.    s(31) = ( -0.0000000 -1.0000000 -0.0000000 )
                  (  1.0000000  0.0000000  0.0000000 )
                  ( -0.0000000  0.0000000 -1.0000000 )


      isym = 32     inv.  90 deg rotation - cart. axis [0,0,1]   

 cryst.   s(32) = (     0         -1          1      )
                  (     1         -1          0      )
                  (     0         -1          0      )

 cart.    s(32) = (  0.0000000  1.0000000 -0.0000000 )
                  ( -1.0000000 -0.0000000  0.0000000 )
                  (  0.0000000 -0.0000000 -1.0000000 )


      isym = 33     inv. 180 deg rotation - cart. axis [1,0,1]   

 cryst.   s(33) = (     0          0          1      )
                  (     0          1          0      )
                  (     1          0          0      )

 cart.    s(33) = ( -0.0000000 -0.0000000 -1.0000000 )
                  (  0.0000000  1.0000000  0.0000000 )
                  ( -1.0000000 -0.0000000  0.0000000 )


      isym = 34     inv. 180 deg rotation - cart. axis [-1,0,1]  

 cryst.   s(34) = (     1         -1          0      )
                  (     0         -1          0      )
                  (     0         -1          1      )

 cart.    s(34) = (  0.0000000 -0.0000000  1.0000000 )
                  ( -0.0000000  1.0000000 -0.0000000 )
                  (  1.0000000 -0.0000000 -0.0000000 )


      isym = 35     inv.  90 deg rotation - cart. axis [0,1,0]   

 cryst.   s(35) = (     0          0         -1      )
                  (     1          0         -1      )
                  (     0          1         -1      )

 cart.    s(35) = (  0.0000000  0.0000000 -1.0000000 )
                  ( -0.0000000 -1.0000000  0.0000000 )
                  (  1.0000000  0.0000000  0.0000000 )


      isym = 36     inv.  90 deg rotation - cart. axis [0,-1,0]  

 cryst.   s(36) = (    -1          1          0      )
                  (    -1          0          1      )
                  (    -1          0          0      )

 cart.    s(36) = ( -0.0000000  0.0000000  1.0000000 )
                  (  0.0000000 -1.0000000 -0.0000000 )
                  ( -1.0000000  0.0000000 -0.0000000 )


      isym = 37     inv. 180 deg rotation - cart. axis [0,1,1]   

 cryst.   s(37) = (     1          0         -1      )
                  (     0          1         -1      )
                  (     0          0         -1      )

 cart.    s(37) = (  1.0000000 -0.0000000  0.0000000 )
                  ( -0.0000000  0.0000000 -1.0000000 )
                  ( -0.0000000 -1.0000000  0.0000000 )


      isym = 38     inv. 180 deg rotation - cart. axis [0,1,-1]  

 cryst.   s(38) = (     0          1          0      )
                  (     1          0          0      )
                  (     0          0          1      )

 cart.    s(38) = (  1.0000000  0.0000000 -0.0000000 )
                  ( -0.0000000 -0.0000000  1.0000000 )
                  ( -0.0000000  1.0000000 -0.0000000 )


      isym = 39     inv.  90 deg rotation - cart. axis [-1,0,0]  

 cryst.   s(39) = (    -1          0          1      )
                  (    -1          0          0      )
                  (    -1          1          0      )

 cart.    s(39) = ( -1.0000000  0.0000000  0.0000000 )
                  (  0.0000000 -0.0000000 -1.0000000 )
                  (  0.0000000  1.0000000  0.0000000 )


      isym = 40     inv.  90 deg rotation - cart. axis [1,0,0]   

 cryst.   s(40) = (     0         -1          0      )
                  (     0         -1          1      )
                  (     1         -1          0      )

 cart.    s(40) = ( -1.0000000 -0.0000000 -0.0000000 )
                  (  0.0000000  0.0000000  1.0000000 )
                  (  0.0000000 -1.0000000 -0.0000000 )


      isym = 41     inv. 120 deg rotation - cart. axis [-1,-1,-1]

 cryst.   s(41) = (     0          1          0      )
                  (    -1          1          0      )
                  (     0          1         -1      )

 cart.    s(41) = ( -0.0000000 -1.0000000  0.0000000 )
                  (  0.0000000  0.0000000 -1.0000000 )
                  ( -1.0000000  0.0000000  0.0000000 )


      isym = 42     inv. 120 deg rotation - cart. axis [-1,1,1]  

 cryst.   s(42) = (     0         -1          0      )
                  (     0          0         -1      )
                  (    -1          0          0      )

 cart.    s(42) = (  0.0000000  1.0000000  0.0000000 )
                  ( -0.0000000 -0.0000000 -1.0000000 )
                  (  1.0000000 -0.0000000  0.0000000 )


      isym = 43     inv. 120 deg rotation - cart. axis [1,1,-1]  

 cryst.   s(43) = (     1          0         -1      )
                  (     1         -1          0      )
                  (     1          0          0      )

 cart.    s(43) = (  0.0000000 -1.0000000 -0.0000000 )
                  ( -0.0000000  0.0000000  1.0000000 )
                  (  1.0000000  0.0000000 -0.0000000 )


      isym = 44     inv. 120 deg rotation - cart. axis [1,-1,1]  

 cryst.   s(44) = (    -1          0          1      )
                  (     0          0          1      )
                  (     0         -1          1      )

 cart.    s(44) = ( -0.0000000  1.0000000 -0.0000000 )
                  (  0.0000000 -0.0000000  1.0000000 )
                  ( -1.0000000 -0.0000000 -0.0000000 )


      isym = 45     inv. 120 deg rotation - cart. axis [1,1,1]   

 cryst.   s(45) = (     1         -1          0      )
                  (     1          0          0      )
                  (     1          0         -1      )

 cart.    s(45) = (  0.0000000 -0.0000000 -1.0000000 )
                  ( -1.0000000  0.0000000  0.0000000 )
                  (  0.0000000 -1.0000000  0.0000000 )


      isym = 46     inv. 120 deg rotation - cart. axis [-1,1,-1] 

 cryst.   s(46) = (    -1          1          0      )
                  (     0          1         -1      )
                  (     0          1          0      )

 cart.    s(46) = ( -0.0000000  0.0000000 -1.0000000 )
                  (  1.0000000 -0.0000000  0.0000000 )
                  ( -0.0000000  1.0000000  0.0000000 )


      isym = 47     inv. 120 deg rotation - cart. axis [1,-1,-1] 

 cryst.   s(47) = (     0          0         -1      )
                  (    -1          0          0      )
                  (     0         -1          0      )

 cart.    s(47) = ( -0.0000000 -0.0000000  1.0000000 )
                  (  1.0000000  0.0000000 -0.0000000 )
                  ( -0.0000000 -1.0000000 -0.0000000 )


      isym = 48     inv. 120 deg rotation - cart. axis [-1,-1,1] 

 cryst.   s(48) = (     0          0          1      )
                  (     0         -1          1      )
                  (    -1          0          1      )

 cart.    s(48) = (  0.0000000  0.0000000  1.0000000 )
                  ( -1.0000000 -0.0000000 -0.0000000 )
                  (  0.0000000  1.0000000 -0.0000000 )


   Cartesian axes

     site n.     atom                  positions (alat units)
         1           Cu  tau(   1) = (   0.0000000   0.0000000   0.0000000  )

   Crystallographic axes

     site n.     atom                  positions (cryst. coord.)
         1           Cu  tau(   1) = (  0.0000000  0.0000000  0.0000000  )

     number of k points=    72  Marzari-Vanderbilt smearing, width (Ry)=  0.0100
                       cart. coord. in units 2pi/alat
        k(    1) = (   0.0000000   0.0000000   0.0000000), wk =   0.0005787
        k(    2) = (   0.0589256   0.0589256   0.0589256), wk =   0.0046296
        k(    3) = (   0.1178511   0.1178511   0.1178511), wk =   0.0046296
        k(    4) = (   0.1767767   0.1767767   0.1767767), wk =   0.0046296
        k(    5) = (   0.2357023   0.2357023   0.2357023), wk =   0.0046296
        k(    6) = (   0.2946278   0.2946278   0.2946278), wk =   0.0046296
        k(    7) = (  -0.3535534  -0.3535534  -0.3535534), wk =   0.0023148
        k(    8) = (   0.0000000   0.0000000   0.1178511), wk =   0.0034722
        k(    9) = (   0.0589256   0.0589256   0.1767767), wk =   0.0138889
        k(   10) = (   0.1178511   0.1178511   0.2357023), wk =   0.0138889
        k(   11) = (   0.1767767   0.1767767   0.2946278), wk =   0.0138889
        k(   12) = (   0.2357023   0.2357023   0.3535534), wk =   0.0138889
        k(   13) = (  -0.4124790  -0.4124790  -0.2946278), wk =   0.0138889
        k(   14) = (  -0.3535534  -0.3535534  -0.2357023), wk =   0.0138889
        k(   15) = (  -0.2946278  -0.2946278  -0.1767767), wk =   0.0138889
        k(   16) = (  -0.2357023  -0.2357023  -0.1178511), wk =   0.0138889
        k(   17) = (  -0.1767767  -0.1767767  -0.0589256), wk =   0.0138889
        k(   18) = (  -0.1178511  -0.1178511  -0.0000000), wk =   0.0069444
        k(   19) = (   0.0000000   0.0000000   0.2357023), wk =   0.0034722
        k(   20) = (   0.0589256   0.0589256   0.2946278), wk =   0.0138889
        k(   21) = (   0.1178511   0.1178511   0.3535534), wk =   0.0138889
        k(   22) = (   0.1767767   0.1767767   0.4124790), wk =   0.0138889
        k(   23) = (  -0.4714045  -0.4714045  -0.2357023), wk =   0.0138889
        k(   24) = (  -0.4124790  -0.4124790  -0.1767767), wk =   0.0138889
        k(   25) = (  -0.3535534  -0.3535534  -0.1178511), wk =   0.0138889
        k(   26) = (  -0.2946278  -0.2946278  -0.0589256), wk =   0.0138889
        k(   27) = (  -0.2357023  -0.2357023   0.0000000), wk =   0.0069444
        k(   28) = (   0.0000000   0.0000000   0.3535534), wk =   0.0034722
        k(   29) = (   0.0589256   0.0589256   0.4124790), wk =   0.0138889
        k(   30) = (   0.1178511   0.1178511   0.4714045), wk =   0.0138889
        k(   31) = (  -0.5303301  -0.5303301  -0.1767767), wk =   0.0138889
        k(   32) = (  -0.4714045  -0.4714045  -0.1178511), wk =   0.0138889
        k(   33) = (  -0.4124790  -0.4124790  -0.0589256), wk =   0.0138889
        k(   34) = (  -0.3535534  -0.3535534   0.0000000), wk =   0.0069444
        k(   35) = (   0.0000000   0.0000000   0.4714045), wk =   0.0034722
        k(   36) = (   0.0589256   0.0589256   0.5303301), wk =   0.0138889
        k(   37) = (  -0.5892557  -0.5892557  -0.1178511), wk =   0.0138889
        k(   38) = (  -0.5303301  -0.5303301  -0.0589256), wk =   0.0138889
        k(   39) = (  -0.4714045  -0.4714045  -0.0000000), wk =   0.0069444
        k(   40) = (   0.0000000   0.0000000   0.5892557), wk =   0.0034722
        k(   41) = (  -0.6481812  -0.6481812  -0.0589256), wk =   0.0138889
        k(   42) = (  -0.5892557  -0.5892557   0.0000000), wk =   0.0069444
        k(   43) = (   0.0000000   0.0000000  -0.7071068), wk =   0.0017361
        k(   44) = (   0.0000000   0.1178511   0.2357023), wk =   0.0138889
        k(   45) = (   0.0589256   0.1767767   0.2946278), wk =   0.0277778
        k(   46) = (   0.1178511   0.2357023   0.3535534), wk =   0.0277778
        k(   47) = (  -0.5303301  -0.4124790  -0.2946278), wk =   0.0277778
        k(   48) = (  -0.4714045  -0.3535534  -0.2357023), wk =   0.0138889
        k(   49) = (  -0.0000000   0.1178511   0.3535534), wk =   0.0138889
        k(   50) = (   0.0589256   0.1767767   0.4124790), wk =   0.0277778
        k(   51) = (  -0.5892557  -0.4714045  -0.2357023), wk =   0.0277778
        k(   52) = (  -0.5303301  -0.4124790  -0.1767767), wk =   0.0277778
        k(   53) = (  -0.4714045  -0.3535534  -0.1178511), wk =   0.0277778
        k(   54) = (  -0.4124790  -0.2946278  -0.0589256), wk =   0.0277778
        k(   55) = (  -0.3535534  -0.2357023   0.0000000), wk =   0.0138889
        k(   56) = (   0.0000000   0.1178511   0.4714045), wk =   0.0138889
        k(   57) = (  -0.6481812  -0.5303301  -0.1767767), wk =   0.0277778
        k(   58) = (  -0.5892557  -0.4714045  -0.1178511), wk =   0.0277778
        k(   59) = (  -0.5303301  -0.4124790  -0.0589256), wk =   0.0277778
        k(   60) = (  -0.4714045  -0.3535534  -0.0000000), wk =   0.0138889
        k(   61) = (  -0.7071068  -0.5892557  -0.1178511), wk =   0.0138889
        k(   62) = (  -0.6481812  -0.5303301  -0.0589256), wk =   0.0277778
        k(   63) = (  -0.5892557  -0.4714045  -0.0000000), wk =   0.0138889
        k(   64) = (   0.0000000   0.1178511  -0.7071068), wk =   0.0069444
        k(   65) = (  -0.7071068  -0.4714045  -0.2357023), wk =   0.0138889
        k(   66) = (  -0.6481812  -0.4124790  -0.1767767), wk =   0.0277778
        k(   67) = (  -0.5892557  -0.3535534  -0.1178511), wk =   0.0138889
        k(   68) = (  -0.7071068  -0.4714045  -0.1178511), wk =   0.0138889
        k(   69) = (  -0.6481812  -0.4124790  -0.0589256), wk =   0.0277778
        k(   70) = (  -0.5892557  -0.3535534   0.0000000), wk =   0.0138889
        k(   71) = (  -0.0000000   0.2357023  -0.7071068), wk =   0.0069444
        k(   72) = (   0.0000000   0.3535534  -0.7071068), wk =   0.0034722

                       cryst. coord.
        k(    1) = (   0.0000000   0.0000000   0.0000000), wk =   0.0005787
        k(    2) = (   0.0000000  -0.0000000   0.0833333), wk =   0.0046296
        k(    3) = (   0.0000000  -0.0000000   0.1666667), wk =   0.0046296
        k(    4) = (   0.0000000  -0.0000000   0.2500000), wk =   0.0046296
        k(    5) = (   0.0000000  -0.0000000   0.3333333), wk =   0.0046296
        k(    6) = (  -0.0000000   0.0000000   0.4166667), wk =   0.0046296
        k(    7) = (  -0.0000000   0.0000000  -0.5000000), wk =   0.0023148
        k(    8) = (  -0.0000000   0.0833333   0.0833333), wk =   0.0034722
        k(    9) = (   0.0000000   0.0833333   0.1666667), wk =   0.0138889
        k(   10) = (  -0.0000000   0.0833333   0.2500000), wk =   0.0138889
        k(   11) = (   0.0000000   0.0833333   0.3333333), wk =   0.0138889
        k(   12) = (  -0.0000000   0.0833333   0.4166667), wk =   0.0138889
        k(   13) = (  -0.0000000   0.0833333  -0.5000000), wk =   0.0138889
        k(   14) = (  -0.0000000   0.0833333  -0.4166667), wk =   0.0138889
        k(   15) = (  -0.0000000   0.0833333  -0.3333333), wk =   0.0138889
        k(   16) = (  -0.0000000   0.0833333  -0.2500000), wk =   0.0138889
        k(   17) = (  -0.0000000   0.0833333  -0.1666667), wk =   0.0138889
        k(   18) = (   0.0000000   0.0833333  -0.0833333), wk =   0.0069444
        k(   19) = (  -0.0000000   0.1666667   0.1666667), wk =   0.0034722
        k(   20) = (  -0.0000000   0.1666667   0.2500000), wk =   0.0138889
        k(   21) = (   0.0000000   0.1666667   0.3333333), wk =   0.0138889
        k(   22) = (  -0.0000000   0.1666667   0.4166667), wk =   0.0138889
        k(   23) = (  -0.0000000   0.1666667  -0.5000000), wk =   0.0138889
        k(   24) = (  -0.0000000   0.1666667  -0.4166667), wk =   0.0138889
        k(   25) = (  -0.0000000   0.1666667  -0.3333333), wk =   0.0138889
        k(   26) = (   0.0000000   0.1666667  -0.2500000), wk =   0.0138889
        k(   27) = (  -0.0000000   0.1666667  -0.1666667), wk =   0.0069444
        k(   28) = (   0.0000000   0.2500000   0.2500000), wk =   0.0034722
        k(   29) = (   0.0000000   0.2500000   0.3333333), wk =   0.0138889
        k(   30) = (  -0.0000000   0.2500000   0.4166667), wk =   0.0138889
        k(   31) = (   0.0000000   0.2500000  -0.5000000), wk =   0.0138889
        k(   32) = (  -0.0000000   0.2500000  -0.4166667), wk =   0.0138889
        k(   33) = (  -0.0000000   0.2500000  -0.3333333), wk =   0.0138889
        k(   34) = (  -0.0000000   0.2500000  -0.2500000), wk =   0.0069444
        k(   35) = (  -0.0000000   0.3333333   0.3333333), wk =   0.0034722
        k(   36) = (  -0.0000000   0.3333333   0.4166667), wk =   0.0138889
        k(   37) = (   0.0000000   0.3333333  -0.5000000), wk =   0.0138889
        k(   38) = (  -0.0000000   0.3333333  -0.4166667), wk =   0.0138889
        k(   39) = (   0.0000000   0.3333333  -0.3333333), wk =   0.0069444
        k(   40) = (   0.0000000   0.4166667   0.4166667), wk =   0.0034722
        k(   41) = (  -0.0000000   0.4166667  -0.5000000), wk =   0.0138889
        k(   42) = (   0.0000000   0.4166667  -0.4166667), wk =   0.0069444
        k(   43) = (   0.0000000  -0.5000000  -0.5000000), wk =   0.0017361
        k(   44) = (   0.0833333   0.1666667   0.2500000), wk =   0.0138889
        k(   45) = (   0.0833333   0.1666667   0.3333333), wk =   0.0277778
        k(   46) = (   0.0833333   0.1666667   0.4166667), wk =   0.0277778
        k(   47) = (   0.0833333   0.1666667  -0.5000000), wk =   0.0277778
        k(   48) = (   0.0833333   0.1666667  -0.4166667), wk =   0.0138889
        k(   49) = (   0.0833333   0.2500000   0.3333333), wk =   0.0138889
        k(   50) = (   0.0833333   0.2500000   0.4166667), wk =   0.0277778
        k(   51) = (   0.0833333   0.2500000  -0.5000000), wk =   0.0277778
        k(   52) = (   0.0833333   0.2500000  -0.4166667), wk =   0.0277778
        k(   53) = (   0.0833333   0.2500000  -0.3333333), wk =   0.0277778
        k(   54) = (   0.0833333   0.2500000  -0.2500000), wk =   0.0277778
        k(   55) = (   0.0833333   0.2500000  -0.1666667), wk =   0.0138889
        k(   56) = (   0.0833333   0.3333333   0.4166667), wk =   0.0138889
        k(   57) = (   0.0833333   0.3333333  -0.5000000), wk =   0.0277778
        k(   58) = (   0.0833333   0.3333333  -0.4166667), wk =   0.0277778
        k(   59) = (   0.0833333   0.3333333  -0.3333333), wk =   0.0277778
        k(   60) = (   0.0833333   0.3333333  -0.2500000), wk =   0.0138889
        k(   61) = (   0.0833333   0.4166667  -0.5000000), wk =   0.0138889
        k(   62) = (   0.0833333   0.4166667  -0.4166667), wk =   0.0277778
        k(   63) = (   0.0833333   0.4166667  -0.3333333), wk =   0.0138889
        k(   64) = (   0.0833333  -0.5000000  -0.4166667), wk =   0.0069444
        k(   65) = (   0.1666667   0.3333333  -0.5000000), wk =   0.0138889
        k(   66) = (   0.1666667   0.3333333  -0.4166667), wk =   0.0277778
        k(   67) = (   0.1666667   0.3333333  -0.3333333), wk =   0.0138889
        k(   68) = (   0.1666667   0.4166667  -0.4166667), wk =   0.0138889
        k(   69) = (   0.1666667   0.4166667  -0.3333333), wk =   0.0277778
        k(   70) = (   0.1666667   0.4166667  -0.2500000), wk =   0.0138889
        k(   71) = (   0.1666667  -0.5000000  -0.3333333), wk =   0.0069444
        k(   72) = (   0.2500000  -0.5000000  -0.2500000), wk =   0.0034722

     Dense  grid:     2229 G-vectors     FFT dimensions: (  20,  20,  20)

     Dynamical RAM for                 wfc:       0.01 MB

     Dynamical RAM for     wfc (w. buffer):       1.22 MB

     Dynamical RAM for           str. fact:       0.01 MB

     Dynamical RAM for           local pot:       0.00 MB

     Dynamical RAM for          nlocal pot:       0.02 MB

     Dynamical RAM for                qrad:       1.46 MB

     Dynamical RAM for          rho,v,vnew:       0.11 MB

     Dynamical RAM for               rhoin:       0.04 MB

     Dynamical RAM for            rho*nmix:       0.22 MB

     Dynamical RAM for           G-vectors:       0.03 MB

     Dynamical RAM for          h,s,v(r/c):       0.07 MB

     Dynamical RAM for          <psi|beta>:       0.00 MB

     Dynamical RAM for                 psi:       0.03 MB

     Dynamical RAM for                hpsi:       0.03 MB

     Dynamical RAM for                spsi:       0.03 MB

     Dynamical RAM for      wfcinit/wfcrot:       0.02 MB

     Dynamical RAM for           addusdens:       1.28 MB

     Dynamical RAM for          addusforce:       1.28 MB

     Dynamical RAM for         addusstress:       1.38 MB

     Estimated static dynamical RAM per process >       3.19 MB

     Estimated max dynamical RAM per process >       4.56 MB

     Estimated total dynamical RAM >      22.81 MB
     Generating pointlists ...
     new r_m :   0.4125 (alat units)  1.9926 (a.u.) for type    1

     Initial potential from superposition of free atoms

     starting charge   10.98818, renormalised to   11.00000
     Starting wfcs are    9 randomized atomic wfcs +    1 random wfcs

     total cpu time spent up to now is        4.8 secs

     Self-consistent Calculation

     iteration #  1     ecut=    35.00 Ry     beta= 0.70
     Davidson diagonalization with overlap
     ethr =  1.00E-02,  avg # of iterations =  3.9

     total cpu time spent up to now is       22.7 secs

     total energy              =    -121.39854725 Ry
     Harris-Foulkes estimate   =    -121.50200823 Ry
     estimated scf accuracy    <       0.16830186 Ry

     total magnetization       =     0.17 Bohr mag/cell
     absolute magnetization    =     0.17 Bohr mag/cell

     iteration #  2     ecut=    35.00 Ry     beta= 0.70
     Davidson diagonalization with overlap
     ethr =  1.53E-03,  avg # of iterations =  2.0

     total cpu time spent up to now is       36.0 secs

     total energy              =    -121.42001112 Ry
     Harris-Foulkes estimate   =    -121.59431414 Ry
     estimated scf accuracy    <       0.43183666 Ry

     total magnetization       =     0.03 Bohr mag/cell
     absolute magnetization    =     0.03 Bohr mag/cell

     iteration #  3     ecut=    35.00 Ry     beta= 0.70
     Davidson diagonalization with overlap
     ethr =  1.53E-03,  avg # of iterations =  2.0

     total cpu time spent up to now is       48.5 secs

     total energy              =    -121.48841701 Ry
     Harris-Foulkes estimate   =    -121.48736745 Ry
     estimated scf accuracy    <       0.00353632 Ry

     total magnetization       =     0.04 Bohr mag/cell
     absolute magnetization    =     0.05 Bohr mag/cell

     iteration #  4     ecut=    35.00 Ry     beta= 0.70
     Davidson diagonalization with overlap
     ethr =  3.21E-05,  avg # of iterations =  2.3

     total cpu time spent up to now is       61.1 secs

     total energy              =    -121.48875508 Ry
     Harris-Foulkes estimate   =    -121.48912724 Ry
     estimated scf accuracy    <       0.00087916 Ry

     total magnetization       =    -0.00 Bohr mag/cell
     absolute magnetization    =     0.01 Bohr mag/cell

     iteration #  5     ecut=    35.00 Ry     beta= 0.70
     Davidson diagonalization with overlap
     ethr =  7.99E-06,  avg # of iterations =  1.7

     total cpu time spent up to now is       72.5 secs

     total energy              =    -121.48894808 Ry
     Harris-Foulkes estimate   =    -121.48895815 Ry
     estimated scf accuracy    <       0.00002545 Ry

     total magnetization       =    -0.00 Bohr mag/cell
     absolute magnetization    =     0.00 Bohr mag/cell

     iteration #  6     ecut=    35.00 Ry     beta= 0.70
     Davidson diagonalization with overlap
     ethr =  2.31E-07,  avg # of iterations =  2.3

     total cpu time spent up to now is       85.2 secs

     total energy              =    -121.48895601 Ry
     Harris-Foulkes estimate   =    -121.48895641 Ry
     estimated scf accuracy    <       0.00000168 Ry

     total magnetization       =     0.00 Bohr mag/cell
     absolute magnetization    =     0.00 Bohr mag/cell

     iteration #  7     ecut=    35.00 Ry     beta= 0.70
     Davidson diagonalization with overlap
     ethr =  1.53E-08,  avg # of iterations =  1.7

     total cpu time spent up to now is       96.9 secs

     total energy              =    -121.48895628 Ry
     Harris-Foulkes estimate   =    -121.48895630 Ry
     estimated scf accuracy    <       0.00000006 Ry

     total magnetization       =    -0.00 Bohr mag/cell
     absolute magnetization    =     0.00 Bohr mag/cell

     iteration #  8     ecut=    35.00 Ry     beta= 0.70
     Davidson diagonalization with overlap
     ethr =  5.87E-10,  avg # of iterations =  2.2
 
     Magnetic moment per site:
     atom:    1    charge:    9.8303    magn:    0.0000    constr:    0.0000

     total cpu time spent up to now is      110.0 secs

     End of self-consistent calculation

 ------ SPIN UP ------------


          k = 0.0000 0.0000 0.0000 (   283 PWs)   bands (ev):

     3.2366   9.6130   9.6130   9.6130  10.4319  10.4319  35.2855  37.8633
    37.8633  37.8633

     occupation numbers 
     1.0000   1.0000   1.0000   1.0000   1.0000   1.0000   0.0000   0.0000
     0.0000   0.0000

          k = 0.0589 0.0589 0.0589 (   286 PWs)   bands (ev):

     3.4890   9.5601   9.6594   9.6594  10.4145  10.4145  33.5150  36.1237
    37.1683  37.1683

     occupation numbers 
     1.0000   1.0000   1.0000   1.0000   1.0000   1.0000   0.0000   0.0000
     0.0000   0.0000

          k = 0.1179 0.1179 0.1179 (   277 PWs)   bands (ev):

     4.2258   9.4363   9.7514   9.7514  10.4065  10.4065  29.2562  35.6951
    36.1820  36.1820

     occupation numbers 
     1.0000   1.0000   1.0000   1.0000   1.0000   1.0000   0.0000   0.0000
     0.0000   0.0000

          k = 0.1768 0.1768 0.1768 (   289 PWs)   bands (ev):

     5.3615   9.3549   9.7669   9.7669  10.5177  10.5177  25.0526  35.1393
    35.4306  35.4306

     occupation numbers 
     1.0000   1.0000   1.0000   1.0000   1.0000   1.0000   0.0000   0.0000
     0.0000   0.0000

          k = 0.2357 0.2357 0.2357 (   287 PWs)   bands (ev):

     6.6150   9.5966   9.6893   9.6893  10.7371  10.7371  21.2199  34.4647
    34.9599  34.9599

     occupation numbers 
     1.0000   1.0000   1.0000   1.0000   1.0000   1.0000   0.0000   0.0000
     0.0000   0.0000

          k = 0.2946 0.2946 0.2946 (   275 PWs)   bands (ev):

     7.3736   9.6071   9.6071  10.6258  10.9333  10.9333  17.9993  33.9426
    34.7360  34.7360

     occupation numbers 
     1.0000   1.0000   1.0000   1.0000   1.0000   1.0000   0.0000   0.0000
     0.0000   0.0000

          k =-0.3536-0.3536-0.3536 (   272 PWs)   bands (ev):

     7.5466   9.5744   9.5744  11.0099  11.0099  11.5873  16.3821  33.7503
    34.6800  34.6800

     occupation numbers 
     1.0000   1.0000   1.0000   1.0000   1.0000   1.0000   0.0000   0.0000
     0.0000   0.0000

          k = 0.0000 0.0000 0.1179 (   283 PWs)   bands (ev):

     3.5728   9.5139   9.6928   9.6928  10.3429  10.4682  34.2953  35.4392
    35.4392  36.6524

     occupation numbers 
     1.0000   1.0000   1.0000   1.0000   1.0000   1.0000   0.0000   0.0000
     0.0000   0.0000

          k = 0.0589 0.0589 0.1768 (   285 PWs)   bands (ev):

     4.1475   9.3924   9.7863   9.7918  10.2700  10.5039  30.8686  34.0663
    34.5470  37.6112

     occupation numbers 
     1.0000   1.0000   1.0000   1.0000   1.0000   1.0000   0.0000   0.0000
     0.0000   0.0000

          k = 0.1179 0.1179 0.2357 (   285 PWs)   bands (ev):

     5.1548   9.2683   9.7917   9.8485  10.3646  10.6031  26.5947  33.1045
    33.9544  37.4631

     occupation numbers 
     1.0000   1.0000   1.0000   1.0000   1.0000   1.0000   0.0000   0.0000
     0.0000   0.0000

          k = 0.1768 0.1768 0.2946 (   282 PWs)   bands (ev):

     6.4028   9.3009   9.6708   9.8031  10.7046  10.7905  22.6165  32.5837
    33.3926  35.4389

     occupation numbers 
     1.0000   1.0000   1.0000   1.0000   1.0000   1.0000   0.0000   0.0000
     0.0000   0.0000

          k = 0.2357 0.2357 0.3536 (   277 PWs)   bands (ev):

     7.3582   9.5366   9.7180   9.7977  10.9613  11.3071  19.1246  32.5458
    32.7004  34.1112

     occupation numbers 
     1.0000   1.0000   1.0000   1.0000   1.0000   1.0000   0.0000   0.0000
     0.0000   0.0000

          k =-0.4125-0.4125-0.2946 (   275 PWs)   bands (ev):

     7.6660   9.4862   9.6592  10.3180  11.0151  12.3238  16.6726  31.7618
    33.0377  33.8038

     occupation numbers 
     1.0000   1.0000   1.0000   1.0000   1.0000   1.0819   0.0000   0.0000
     0.0000   0.0000

          k =-0.3536-0.3536-0.2357 (   276 PWs)   bands (ev):

     7.6180   9.5115   9.6600  10.2490  10.9141  12.0336  17.2870  31.0571
    34.0846  34.1544

     occupation numbers 
     1.0000   1.0000   1.0000   1.0000   1.0000   1.0001   0.0000   0.0000
     0.0000   0.0000

          k =-0.2946-0.2946-0.1768 (   277 PWs)   bands (ev):

     7.1194   9.6033   9.6128   9.7240  10.6871  11.2365  20.2234  30.7875
    34.9903  35.6596

     occupation numbers 
     1.0000   1.0000   1.0000   1.0000   1.0000   1.0000   0.0000   0.0000
     0.0000   0.0000

          k =-0.2357-0.2357-0.1179 (   285 PWs)   bands (ev):

     5.9860   9.2834   9.7189   9.8200  10.4200  10.8433  23.9038  30.9592
    36.1935  37.5767

     occupation numbers 
     1.0000   1.0000   1.0000   1.0000   1.0000   1.0000   0.0000   0.0000
     0.0000   0.0000

          k =-0.1768-0.1768-0.0589 (   284 PWs)   bands (ev):

     4.7783   9.3298   9.7822   9.8399  10.2712  10.5898  27.9976  31.5457
    37.3053  38.7053

     occupation numbers 
     1.0000   1.0000   1.0000   1.0000   1.0000   1.0000   0.0000   0.0000
     0.0000   0.0000

          k =-0.1179-0.1179-0.0000 (   281 PWs)   bands (ev):

     3.9031   9.4665   9.7290   9.7372  10.3248  10.4692  31.9863  32.8785
    37.2029  38.8041

     occupation numbers 
     1.0000   1.0000   1.0000   1.0000   1.0000   1.0000   0.0000   0.0000
     0.0000   0.0000

          k = 0.0000 0.0000 0.2357 (   291 PWs)   bands (ev):

     4.5481   9.2471   9.9242   9.9242  10.1224  10.5679  32.3867  32.3867
    32.7872  34.4623

     occupation numbers 
     1.0000   1.0000   1.0000   1.0000   1.0000   1.0000   0.0000   0.0000
     0.0000   0.0000

          k = 0.0589 0.0589 0.2946 (   291 PWs)   bands (ev):

     5.3838   9.0867   9.8644  10.0450  10.2713  10.6583  28.4645  31.1725
    32.7468  34.2102

     occupation numbers 
     1.0000   1.0000   1.0000   1.0000   1.0000   1.0000   0.0000   0.0000
     0.0000   0.0000

          k = 0.1179 0.1179 0.3536 (   286 PWs)   bands (ev):

     6.5124   8.9907   9.6579  10.0500  10.7659  10.8281  24.3995  30.4628
    31.4631  33.3105

     occupation numbers 
     1.0000   1.0000   1.0000   1.0000   1.0000   1.0000   0.0000   0.0000
     0.0000   0.0000

          k = 0.1768 0.1768 0.4125 (   280 PWs)   bands (ev):

     7.5339   9.0807   9.5268   9.9764  10.9882  11.6394  20.6997  29.7885
    30.3048  32.9315

     occupation numbers 
     1.0000   1.0000   1.0000   1.0000   1.0000   1.0000   0.0000   0.0000
     0.0000   0.0000

          k =-0.4714-0.4714-0.2357 (   277 PWs)   bands (ev):

     7.9702   9.1983   9.6865   9.8992  11.0297  13.0909  17.6340  28.3592
    30.7379  32.9621

     occupation numbers 
     1.0000   1.0000   1.0000   1.0000   1.0000   0.0000   0.0000   0.0000
     0.0000   0.0000

          k =-0.4125-0.4125-0.1768 (   276 PWs)   bands (ev):

     8.0293   9.2469   9.7705   9.8635  10.9123  13.6127  16.9417  27.3548
    31.7690  33.3865

     occupation numbers 
     1.0000   1.0000   1.0000   1.0000   1.0000   0.0000   0.0000   0.0000
     0.0000   0.0000

          k =-0.3536-0.3536-0.1179 (   280 PWs)   bands (ev):

     7.7921   9.3681   9.4455   9.8899  10.6636  12.2725  19.6139  26.8330
    33.3604  34.2549

     occupation numbers 
     1.0000   1.0000   1.0000   1.0000   1.0000   1.0672   0.0000   0.0000
     0.0000   0.0000

          k =-0.2946-0.2946-0.0589 (   283 PWs)   bands (ev):

     6.9286   9.1521   9.5567   9.9774  10.3539  11.4134  23.1472  26.8075
    35.4392  35.5983

     occupation numbers 
     1.0000   1.0000   1.0000   1.0000   1.0000   1.0000   0.0000   0.0000
     0.0000   0.0000

          k =-0.2357-0.2357 0.0000 (   279 PWs)   bands (ev):

     5.7451   9.1874   9.7178  10.0380  10.1336  10.9126  26.8361  27.5340
    37.3411  37.9060

     occupation numbers 
     1.0000   1.0000   1.0000   1.0000   1.0000   1.0000   0.0000   0.0000
     0.0000   0.0000

          k = 0.0000 0.0000 0.3536 (   290 PWs)   bands (ev):

     6.0040   8.8924   9.9677  10.2768  10.2768  10.7055  29.7025  29.7025
    30.9502  31.5945

     occupation numbers 
     1.0000   1.0000   1.0000   1.0000   1.0000   1.0000   0.0000   0.0000
     0.0000   0.0000

          k = 0.0589 0.0589 0.4125 (   286 PWs)   bands (ev):

     6.8743   8.7406   9.8701  10.3794  10.7556  10.8384  26.4390  28.7596
    28.7851  32.0847

     occupation numbers 
     1.0000   1.0000   1.0000   1.0000   1.0000   1.0000   0.0000   0.0000
     0.0000   0.0000

          k = 0.1179 0.1179 0.4714 (   278 PWs)   bands (ev):

     7.7000   8.6921   9.7194  10.3340  11.0046  11.8161  22.6970  26.7898
    28.4102  32.1284

     occupation numbers 
     1.0000   1.0000   1.0000   1.0000   1.0000   1.0000   0.0000   0.0000
     0.0000   0.0000

          k =-0.5303-0.5303-0.1768 (   279 PWs)   bands (ev):

     8.1894   8.7637   9.6278  10.2483  11.0511  13.5595  19.3193  25.1703
    28.6991  32.2187

     occupation numbers 
     1.0000   1.0000   1.0000   1.0000   1.0000   0.0000   0.0000   0.0000
     0.0000   0.0000

          k =-0.4714-0.4714-0.1179 (   275 PWs)   bands (ev):

     8.4030   8.8694   9.5506  10.1742  10.9343  15.3567  17.0540  23.9892
    29.6216  32.5679

     occupation numbers 
     1.0000   1.0000   1.0000   1.0000   1.0000   0.0000   0.0000   0.0000
     0.0000   0.0000

          k =-0.4125-0.4125-0.0589 (   278 PWs)   bands (ev):

     8.4030   9.0449   9.3175  10.1329  10.6949  13.8044  19.3097  23.3079
    31.1177  33.2561

     occupation numbers 
     1.0000   1.0000   1.0000   1.0000   1.0000   0.0000   0.0000   0.0000
     0.0000   0.0000

          k =-0.3536-0.3536 0.0000 (   273 PWs)   bands (ev):

     7.9090   9.1041   9.3059  10.1040  10.4393  12.3243  22.3203  23.5096
    33.0941  34.3113

     occupation numbers 
     1.0000   1.0000   1.0000   1.0000   1.0000   1.0818   0.0000   0.0000
     0.0000   0.0000

          k = 0.0000 0.0000 0.4714 (   274 PWs)   bands (ev):

     7.3228   8.5481  10.5320  10.6823  10.6823  10.8449  26.2585  27.5714
    27.5714  30.7926

     occupation numbers 
     1.0000   1.0000   1.0000   1.0000   1.0000   1.0000   0.0000   0.0000
     0.0000   0.0000

          k = 0.0589 0.0589 0.5303 (   280 PWs)   bands (ev):

     7.7133   8.4478  10.4292  10.7073  11.0037  11.9126  24.1328  24.9491
    26.9927  31.3397

     occupation numbers 
     1.0000   1.0000   1.0000   1.0000   1.0000   1.0000   0.0000   0.0000
     0.0000   0.0000

          k =-0.5893-0.5893-0.1179 (   272 PWs)   bands (ev):

     8.0316   8.4676  10.1598  10.6240  11.0777  13.8242  21.5609  22.4756
    27.0905  31.6341

     occupation numbers 
     1.0000   1.0000   1.0000   1.0000   1.0000   0.0000   0.0000   0.0000
     0.0000   0.0000

          k =-0.5303-0.5303-0.0589 (   276 PWs)   bands (ev):

     8.3248   8.5820   9.8335  10.5132  10.9856  16.1626  18.5208  21.3009
    27.8651  31.9353

     occupation numbers 
     1.0000   1.0000   1.0000   1.0000   1.0000   0.0000   0.0000   0.0000
     0.0000   0.0000

          k =-0.4714-0.4714-0.0000 (   284 PWs)   bands (ev):

     8.5794   8.7417   9.4778  10.3598  10.8136  15.8611  18.5382  21.0942
    29.2443  32.4582

     occupation numbers 
     1.0000   1.0000   1.0000   1.0000   1.0000   0.0000   0.0000   0.0000
     0.0000   0.0000

          k = 0.0000 0.0000 0.5893 (   286 PWs)   bands (ev):

     7.7206   8.3025  10.9480  11.0221  11.0221  12.4890  22.0051  26.1721
    26.1721  30.3400

     occupation numbers 
     1.0000   1.0000   1.0000   1.0000   1.0000   0.4905   0.0000   0.0000
     0.0000   0.0000

          k =-0.6482-0.6482-0.0589 (   276 PWs)   bands (ev):

     7.8222   8.2819  10.8427  10.9032  11.1177  14.0012  20.4937  24.0997
    26.0447  31.0043

     occupation numbers 
     1.0000   1.0000   1.0000   1.0000   1.0000   0.0000   0.0000   0.0000
     0.0000   0.0000

          k =-0.5893-0.5893 0.0000 (   280 PWs)   bands (ev):

     8.0349   8.3893  10.3704  10.7723  11.0687  15.5686  19.9650  21.2016
    26.6324  31.4854

     occupation numbers 
     1.0000   1.0000   1.0000   1.0000   1.0000   0.0000   0.0000   0.0000
     0.0000   0.0000

          k = 0.0000 0.0000-0.7071 (   286 PWs)   bands (ev):

     7.7441   8.2139  10.9860  11.1579  11.1579  14.0853  19.7309  25.6793
    25.6793  30.1945

     occupation numbers 
     1.0000   1.0000   1.0000   1.0000   1.0000   0.0000   0.0000   0.0000
     0.0000   0.0000

          k = 0.0000 0.1179 0.2357 (   288 PWs)   bands (ev):

     4.8588   9.2473   9.8195   9.9344  10.2061  10.6173  29.4863  30.1459
    36.1153  36.3558

     occupation numbers 
     1.0000   1.0000   1.0000   1.0000   1.0000   1.0000   0.0000   0.0000
     0.0000   0.0000

          k = 0.0589 0.1768 0.2946 (   287 PWs)   bands (ev):

     5.9461   9.1284   9.6979  10.0011  10.3432  10.8860  25.5721  29.1298
    34.4342  36.4010

     occupation numbers 
     1.0000   1.0000   1.0000   1.0000   1.0000   1.0000   0.0000   0.0000
     0.0000   0.0000

          k = 0.1179 0.2357 0.3536 (   279 PWs)   bands (ev):

     7.1208   9.1920   9.5309   9.9250  10.6611  11.3718  21.7301  28.8283
    32.5246  35.8103

     occupation numbers 
     1.0000   1.0000   1.0000   1.0000   1.0000   1.0000   0.0000   0.0000
     0.0000   0.0000

          k =-0.5303-0.4125-0.2946 (   275 PWs)   bands (ev):

     7.7901   9.3462   9.6513   9.8500  10.9022  12.3654  18.4162  28.9963
    30.9433  35.3334

     occupation numbers 
     1.0000   1.0000   1.0000   1.0000   1.0000   1.0368   0.0000   0.0000
     0.0000   0.0000

          k =-0.4714-0.3536-0.2357 (   274 PWs)   bands (ev):

     7.9292   9.3065   9.8035   9.9071  10.9781  13.4259  16.5724  29.4417
    30.0136  35.1545

     occupation numbers 
     1.0000   1.0000   1.0000   1.0000   1.0000   0.0000   0.0000   0.0000
     0.0000   0.0000

          k =-0.0000 0.1179 0.3536 (   287 PWs)   bands (ev):

     6.2747   8.9294   9.7275  10.2780  10.3796  10.8781  27.3144  27.8421
    31.5022  34.4572

     occupation numbers 
     1.0000   1.0000   1.0000   1.0000   1.0000   1.0000   0.0000   0.0000
     0.0000   0.0000

          k = 0.0589 0.1768 0.4125 (   280 PWs)   bands (ev):

     7.3114   8.8562   9.5318  10.2694  10.6980  11.4596  23.6238  27.1531
    29.3953  34.8326

     occupation numbers 
     1.0000   1.0000   1.0000   1.0000   1.0000   1.0000   0.0000   0.0000
     0.0000   0.0000

          k =-0.5893-0.4714-0.2357 (   278 PWs)   bands (ev):

     8.0468   8.9318   9.4292  10.1723  10.9327  12.6857  20.0787  27.1326
    27.6916  34.8106

     occupation numbers 
     1.0000   1.0000   1.0000   1.0000   1.0000   0.0086   0.0000   0.0000
     0.0000   0.0000

          k =-0.5303-0.4125-0.1768 (   276 PWs)   bands (ev):

     8.2988   8.9801   9.5305  10.0837  10.9750  14.4818  17.2562  26.2234
    27.8325  35.0568

     occupation numbers 
     1.0000   1.0000   1.0000   1.0000   1.0000   0.0000   0.0000   0.0000
     0.0000   0.0000

          k =-0.4714-0.3536-0.1179 (   275 PWs)   bands (ev):

     8.3024   9.0489   9.4451  10.0705  10.8577  13.9505  18.0620  25.3551
    28.9043  35.7160

     occupation numbers 
     1.0000   1.0000   1.0000   1.0000   1.0000   0.0000   0.0000   0.0000
     0.0000   0.0000

          k =-0.4125-0.2946-0.0589 (   276 PWs)   bands (ev):

     7.9488   9.0804   9.2867  10.1374  10.6088  12.3787  21.2254  24.9870
    30.4314  36.8427

     occupation numbers 
     1.0000   1.0000   1.0000   1.0000   1.0000   1.0058   0.0000   0.0000
     0.0000   0.0000

          k =-0.3536-0.2357 0.0000 (   278 PWs)   bands (ev):

     7.0082   9.0202   9.5002  10.2149  10.3085  11.4396  24.6179  25.4252
    32.3417  38.5738

     occupation numbers 
     1.0000   1.0000   1.0000   1.0000   1.0000   1.0000   0.0000   0.0000
     0.0000   0.0000

          k = 0.0000 0.1179 0.4714 (   283 PWs)   bands (ev):

     7.5371   8.6157   9.8803  10.6804  10.7213  11.5098  25.5544  25.9818
    26.6416  33.2645

     occupation numbers 
     1.0000   1.0000   1.0000   1.0000   1.0000   1.0000   0.0000   0.0000
     0.0000   0.0000

          k =-0.6482-0.5303-0.1768 (   276 PWs)   bands (ev):

     8.0456   8.6048   9.7488  10.5713  10.9605  12.9343  22.2023  24.6424
    25.7646  33.9151

     occupation numbers 
     1.0000   1.0000   1.0000   1.0000   1.0000   0.0000   0.0000   0.0000
     0.0000   0.0000

          k =-0.5893-0.4714-0.1179 (   276 PWs)   bands (ev):

     8.3709   8.6806   9.5972  10.4246  11.0162  15.0318  18.9926  23.1912
    26.1982  34.2490

     occupation numbers 
     1.0000   1.0000   1.0000   1.0000   1.0000   0.0000   0.0000   0.0000
     0.0000   0.0000

          k =-0.5303-0.4125-0.0589 (   276 PWs)   bands (ev):

     8.6289   8.7402   9.3931  10.3171  10.9047  15.9870  17.9236  22.2231
    27.1810  34.8621

     occupation numbers 
     1.0000   1.0000   1.0000   1.0000   1.0000   0.0000   0.0000   0.0000
     0.0000   0.0000

          k =-0.4714-0.3536-0.0000 (   280 PWs)   bands (ev):

     8.5511   8.9754   9.1281  10.2686  10.7089  13.9135  20.4927  22.1873
    28.6185  35.8357

     occupation numbers 
     1.0000   1.0000   1.0000   1.0000   1.0000   0.0000   0.0000   0.0000
     0.0000   0.0000

          k =-0.7071-0.5893-0.1179 (   276 PWs)   bands (ev):

     7.8886   8.3904  10.4010  10.8723  11.0211  13.2784  22.2233  24.3680
    24.9019  32.5785

     occupation numbers 
     1.0000   1.0000   1.0000   1.0000   1.0000   0.0000   0.0000   0.0000
     0.0000   0.0000

          k =-0.6482-0.5303-0.0589 (   278 PWs)   bands (ev):

     8.1040   8.4617  10.1230  10.7102  11.0984  15.2329  20.8262  21.4634
    24.9789  33.4854

     occupation numbers 
     1.0000   1.0000   1.0000   1.0000   1.0000   0.0000   0.0000   0.0000
     0.0000   0.0000

          k =-0.5893-0.4714-0.0000 (   276 PWs)   bands (ev):

     8.3730   8.6183   9.7276  10.5249  11.0234  17.1602  18.5044  20.5149
    25.8385  34.0705

     occupation numbers 
     1.0000   1.0000   1.0000   1.0000   1.0000   0.0000   0.0000   0.0000
     0.0000   0.0000

          k = 0.0000 0.1179-0.7071 (   276 PWs)   bands (ev):

     7.8963   8.3088  10.6465  10.8699  11.1581  14.8989  19.8551  23.9430
    24.4807  32.3568

     occupation numbers 
     1.0000   1.0000   1.0000   1.0000   1.0000   0.0000   0.0000   0.0000
     0.0000   0.0000

          k =-0.7071-0.4714-0.2357 (   274 PWs)   bands (ev):

     8.0740   8.8159   9.3274  10.4774  10.6813  12.5504  22.8717  23.8755
    27.3504  37.3227

     occupation numbers 
     1.0000   1.0000   1.0000   1.0000   1.0000   0.2098   0.0000   0.0000
     0.0000   0.0000

          k =-0.6482-0.4125-0.1768 (   275 PWs)   bands (ev):

     8.5025   8.8630   9.2186  10.3641  10.8973  14.2838  19.8331  23.7376
    25.7012  37.7151

     occupation numbers 
     1.0000   1.0000   1.0000   1.0000   1.0000   0.0000   0.0000   0.0000
     0.0000   0.0000

          k =-0.5893-0.3536-0.1179 (   274 PWs)   bands (ev):

     8.7007   8.7266   9.2996  10.2883  10.9804  16.1725  17.4075  24.3502
    24.5958  37.6428

     occupation numbers 
     1.0000   1.0000   1.0000   1.0000   1.0000   0.0000   0.0000   0.0000
     0.0000   0.0000

          k =-0.7071-0.4714-0.1179 (   276 PWs)   bands (ev):

     8.2964   8.6581   9.5988  10.5934  11.0186  14.6941  21.7110  22.7803
    23.0778  36.5483

     occupation numbers 
     1.0000   1.0000   1.0000   1.0000   1.0000   0.0000   0.0000   0.0000
     0.0000   0.0000

          k =-0.6482-0.4125-0.0589 (   274 PWs)   bands (ev):

     8.4723   8.8106   9.3862  10.4366  11.0911  16.9550  19.0539  21.6929
    23.1222  37.6442

     occupation numbers 
     1.0000   1.0000   1.0000   1.0000   1.0000   0.0000   0.0000   0.0000
     0.0000   0.0000

          k =-0.5893-0.3536 0.0000 (   274 PWs)   bands (ev):

     8.5980   8.9750   9.1110  10.3801  11.0168  16.4074  19.2594  21.4185
    24.1806  38.3903

     occupation numbers 
     1.0000   1.0000   1.0000   1.0000   1.0000   0.0000   0.0000   0.0000
     0.0000   0.0000

          k =-0.0000 0.2357-0.7071 (   274 PWs)   bands (ev):

     8.2565   8.5995   9.8071  10.5809  11.1585  16.6363  20.2718  21.2961
    22.6087  36.2904

     occupation numbers 
     1.0000   1.0000   1.0000   1.0000   1.0000   0.0000   0.0000   0.0000
     0.0000   0.0000

          k = 0.0000 0.3536-0.7071 (   280 PWs)   bands (ev):

     8.4837   9.0989   9.0989  10.3887  11.1586  18.8114  18.8114  20.9209
    21.3942  40.9429

     occupation numbers 
     1.0000   1.0000   1.0000   1.0000   1.0000   0.0000   0.0000   0.0000
     0.0000   0.0000

 ------ SPIN DOWN ----------


          k = 0.0000 0.0000 0.0000 (   283 PWs)   bands (ev):

     3.2365   9.6130   9.6130   9.6130  10.4320  10.4320  35.2853  37.8632
    37.8633  37.8633

     occupation numbers 
     1.0000   1.0000   1.0000   1.0000   1.0000   1.0000   0.0000   0.0000
     0.0000   0.0000

          k = 0.0589 0.0589 0.0589 (   286 PWs)   bands (ev):

     3.4889   9.5602   9.6594   9.6594  10.4146  10.4146  33.5149  36.1236
    37.1683  37.1683

     occupation numbers 
     1.0000   1.0000   1.0000   1.0000   1.0000   1.0000   0.0000   0.0000
     0.0000   0.0000

          k = 0.1179 0.1179 0.1179 (   277 PWs)   bands (ev):

     4.2257   9.4363   9.7514   9.7514  10.4066  10.4066  29.2561  35.6950
    36.1819  36.1820

     occupation numbers 
     1.0000   1.0000   1.0000   1.0000   1.0000   1.0000   0.0000   0.0000
     0.0000   0.0000

          k = 0.1768 0.1768 0.1768 (   289 PWs)   bands (ev):

     5.3614   9.3549   9.7669   9.7669  10.5178  10.5178  25.0526  35.1391
    35.4306  35.4306

     occupation numbers 
     1.0000   1.0000   1.0000   1.0000   1.0000   1.0000   0.0000   0.0000
     0.0000   0.0000

          k = 0.2357 0.2357 0.2357 (   287 PWs)   bands (ev):

     6.6150   9.5967   9.6893   9.6893  10.7371  10.7371  21.2199  34.4646
    34.9599  34.9599

     occupation numbers 
     1.0000   1.0000   1.0000   1.0000   1.0000   1.0000   0.0000   0.0000
     0.0000   0.0000

          k = 0.2946 0.2946 0.2946 (   275 PWs)   bands (ev):

     7.3736   9.6071   9.6071  10.6257  10.9333  10.9333  17.9993  33.9425
    34.7360  34.7360

     occupation numbers 
     1.0000   1.0000   1.0000   1.0000   1.0000   1.0000   0.0000   0.0000
     0.0000   0.0000

          k =-0.3536-0.3536-0.3536 (   272 PWs)   bands (ev):

     7.5466   9.5744   9.5744  11.0100  11.0100  11.5872  16.3821  33.7502
    34.6800  34.6800

     occupation numbers 
     1.0000   1.0000   1.0000   1.0000   1.0000   1.0000   0.0000   0.0000
     0.0000   0.0000

          k = 0.0000 0.0000 0.1179 (   283 PWs)   bands (ev):

     3.5727   9.5139   9.6928   9.6928  10.3429  10.4682  34.2951  35.4392
    35.4392  36.6523

     occupation numbers 
     1.0000   1.0000   1.0000   1.0000   1.0000   1.0000   0.0000   0.0000
     0.0000   0.0000

          k = 0.0589 0.0589 0.1768 (   285 PWs)   bands (ev):

     4.1474   9.3924   9.7864   9.7918  10.2700  10.5040  30.8685  34.0663
    34.5469  37.6111

     occupation numbers 
     1.0000   1.0000   1.0000   1.0000   1.0000   1.0000   0.0000   0.0000
     0.0000   0.0000

          k = 0.1179 0.1179 0.2357 (   285 PWs)   bands (ev):

     5.1547   9.2683   9.7917   9.8486  10.3647  10.6032  26.5946  33.1044
    33.9543  37.4630

     occupation numbers 
     1.0000   1.0000   1.0000   1.0000   1.0000   1.0000   0.0000   0.0000
     0.0000   0.0000

          k = 0.1768 0.1768 0.2946 (   282 PWs)   bands (ev):

     6.4027   9.3009   9.6708   9.8032  10.7047  10.7906  22.6164  32.5837
    33.3924  35.4389

     occupation numbers 
     1.0000   1.0000   1.0000   1.0000   1.0000   1.0000   0.0000   0.0000
     0.0000   0.0000

          k = 0.2357 0.2357 0.3536 (   277 PWs)   bands (ev):

     7.3582   9.5366   9.7180   9.7977  10.9614  11.3071  19.1245  32.5458
    32.7003  34.1111

     occupation numbers 
     1.0000   1.0000   1.0000   1.0000   1.0000   1.0000   0.0000   0.0000
     0.0000   0.0000

          k =-0.4125-0.4125-0.2946 (   275 PWs)   bands (ev):

     7.6660   9.4863   9.6593  10.3181  11.0152  12.3238  16.6726  31.7617
    33.0376  33.8037

     occupation numbers 
     1.0000   1.0000   1.0000   1.0000   1.0000   1.0819   0.0000   0.0000
     0.0000   0.0000

          k =-0.3536-0.3536-0.2357 (   276 PWs)   bands (ev):

     7.6179   9.5116   9.6600  10.2490  10.9141  12.0336  17.2870  31.0571
    34.0846  34.1544

     occupation numbers 
     1.0000   1.0000   1.0000   1.0000   1.0000   1.0001   0.0000   0.0000
     0.0000   0.0000

          k =-0.2946-0.2946-0.1768 (   277 PWs)   bands (ev):

     7.1194   9.6033   9.6128   9.7240  10.6871  11.2366  20.2233  30.7874
    34.9902  35.6596

     occupation numbers 
     1.0000   1.0000   1.0000   1.0000   1.0000   1.0000   0.0000   0.0000
     0.0000   0.0000

          k =-0.2357-0.2357-0.1179 (   285 PWs)   bands (ev):

     5.9860   9.2834   9.7189   9.8201  10.4200  10.8434  23.9037  30.9591
    36.1934  37.5767

     occupation numbers 
     1.0000   1.0000   1.0000   1.0000   1.0000   1.0000   0.0000   0.0000
     0.0000   0.0000

          k =-0.1768-0.1768-0.0589 (   284 PWs)   bands (ev):

     4.7782   9.3298   9.7822   9.8399  10.2713  10.5899  27.9975  31.5457
    37.3052  38.7051

     occupation numbers 
     1.0000   1.0000   1.0000   1.0000   1.0000   1.0000   0.0000   0.0000
     0.0000   0.0000

          k =-0.1179-0.1179-0.0000 (   281 PWs)   bands (ev):

     3.9030   9.4665   9.7290   9.7372  10.3249  10.4692  31.9862  32.8785
    37.2028  38.8041

     occupation numbers 
     1.0000   1.0000   1.0000   1.0000   1.0000   1.0000   0.0000   0.0000
     0.0000   0.0000

          k = 0.0000 0.0000 0.2357 (   291 PWs)   bands (ev):

     4.5480   9.2472   9.9242   9.9242  10.1224  10.5679  32.3866  32.3866
    32.7871  34.4622

     occupation numbers 
     1.0000   1.0000   1.0000   1.0000   1.0000   1.0000   0.0000   0.0000
     0.0000   0.0000

          k = 0.0589 0.0589 0.2946 (   291 PWs)   bands (ev):

     5.3837   9.0868   9.8644  10.0450  10.2714  10.6584  28.4644  31.1725
    32.7467  34.2102

     occupation numbers 
     1.0000   1.0000   1.0000   1.0000   1.0000   1.0000   0.0000   0.0000
     0.0000   0.0000

          k = 0.1179 0.1179 0.3536 (   286 PWs)   bands (ev):

     6.5124   8.9908   9.6579  10.0500  10.7659  10.8281  24.3994  30.4628
    31.4630  33.3104

     occupation numbers 
     1.0000   1.0000   1.0000   1.0000   1.0000   1.0000   0.0000   0.0000
     0.0000   0.0000

          k = 0.1768 0.1768 0.4125 (   280 PWs)   bands (ev):

     7.5339   9.0807   9.5269   9.9764  10.9883  11.6394  20.6997  29.7884
    30.3048  32.9315

     occupation numbers 
     1.0000   1.0000   1.0000   1.0000   1.0000   1.0000   0.0000   0.0000
     0.0000   0.0000

          k =-0.4714-0.4714-0.2357 (   277 PWs)   bands (ev):

     7.9702   9.1984   9.6865   9.8992  11.0298  13.0908  17.6340  28.3591
    30.7379  32.9620

     occupation numbers 
     1.0000   1.0000   1.0000   1.0000   1.0000   0.0000   0.0000   0.0000
     0.0000   0.0000

          k =-0.4125-0.4125-0.1768 (   276 PWs)   bands (ev):

     8.0293   9.2470   9.7705   9.8636  10.9124  13.6127  16.9417  27.3548
    31.7690  33.3864

     occupation numbers 
     1.0000   1.0000   1.0000   1.0000   1.0000   0.0000   0.0000   0.0000
     0.0000   0.0000

          k =-0.3536-0.3536-0.1179 (   280 PWs)   bands (ev):

     7.7921   9.3682   9.4455   9.8899  10.6637  12.2725  19.6139  26.8329
    33.3604  34.2548

     occupation numbers 
     1.0000   1.0000   1.0000   1.0000   1.0000   1.0672   0.0000   0.0000
     0.0000   0.0000

          k =-0.2946-0.2946-0.0589 (   283 PWs)   bands (ev):

     6.9286   9.1521   9.5567   9.9775  10.3540  11.4135  23.1471  26.8075
    35.4392  35.5982

     occupation numbers 
     1.0000   1.0000   1.0000   1.0000   1.0000   1.0000   0.0000   0.0000
     0.0000   0.0000

          k =-0.2357-0.2357 0.0000 (   279 PWs)   bands (ev):

     5.7450   9.1875   9.7178  10.0380  10.1337  10.9127  26.8360  27.5340
    37.3410  37.9059

     occupation numbers 
     1.0000   1.0000   1.0000   1.0000   1.0000   1.0000   0.0000   0.0000
     0.0000   0.0000

          k = 0.0000 0.0000 0.3536 (   290 PWs)   bands (ev):

     6.0040   8.8924   9.9677  10.2769  10.2769  10.7056  29.7024  29.7024
    30.9501  31.5944

     occupation numbers 
     1.0000   1.0000   1.0000   1.0000   1.0000   1.0000   0.0000   0.0000
     0.0000   0.0000

          k = 0.0589 0.0589 0.4125 (   286 PWs)   bands (ev):

     6.8742   8.7407   9.8701  10.3795  10.7556  10.8385  26.4390  28.7595
    28.7850  32.0846

     occupation numbers 
     1.0000   1.0000   1.0000   1.0000   1.0000   1.0000   0.0000   0.0000
     0.0000   0.0000

          k = 0.1179 0.1179 0.4714 (   278 PWs)   bands (ev):

     7.7000   8.6921   9.7194  10.3340  11.0047  11.8161  22.6970  26.7898
    28.4102  32.1283

     occupation numbers 
     1.0000   1.0000   1.0000   1.0000   1.0000   1.0000   0.0000   0.0000
     0.0000   0.0000

          k =-0.5303-0.5303-0.1768 (   279 PWs)   bands (ev):

     8.1894   8.7637   9.6278  10.2483  11.0512  13.5595  19.3192  25.1702
    28.6991  32.2186

     occupation numbers 
     1.0000   1.0000   1.0000   1.0000   1.0000   0.0000   0.0000   0.0000
     0.0000   0.0000

          k =-0.4714-0.4714-0.1179 (   275 PWs)   bands (ev):

     8.4031   8.8695   9.5506  10.1743  10.9343  15.3566  17.0539  23.9891
    29.6216  32.5679

     occupation numbers 
     1.0000   1.0000   1.0000   1.0000   1.0000   0.0000   0.0000   0.0000
     0.0000   0.0000

          k =-0.4125-0.4125-0.0589 (   278 PWs)   bands (ev):

     8.4030   9.0449   9.3175  10.1329  10.6950  13.8044  19.3097  23.3078
    31.1177  33.2560

     occupation numbers 
     1.0000   1.0000   1.0000   1.0000   1.0000   0.0000   0.0000   0.0000
     0.0000   0.0000

          k =-0.3536-0.3536 0.0000 (   273 PWs)   bands (ev):

     7.9090   9.1041   9.3059  10.1041  10.4393  12.3243  22.3203  23.5096
    33.0940  34.3112

     occupation numbers 
     1.0000   1.0000   1.0000   1.0000   1.0000   1.0818   0.0000   0.0000
     0.0000   0.0000

          k = 0.0000 0.0000 0.4714 (   274 PWs)   bands (ev):

     7.3228   8.5482  10.5320  10.6823  10.6823  10.8449  26.2585  27.5713
    27.5713  30.7925

     occupation numbers 
     1.0000   1.0000   1.0000   1.0000   1.0000   1.0000   0.0000   0.0000
     0.0000   0.0000

          k = 0.0589 0.0589 0.5303 (   280 PWs)   bands (ev):

     7.7133   8.4478  10.4292  10.7073  11.0038  11.9126  24.1327  24.9491
    26.9927  31.3396

     occupation numbers 
     1.0000   1.0000   1.0000   1.0000   1.0000   1.0000   0.0000   0.0000
     0.0000   0.0000

          k =-0.5893-0.5893-0.1179 (   272 PWs)   bands (ev):

     8.0316   8.4676  10.1599  10.6240  11.0778  13.8242  21.5608  22.4756
    27.0905  31.6341

     occupation numbers 
     1.0000   1.0000   1.0000   1.0000   1.0000   0.0000   0.0000   0.0000
     0.0000   0.0000

          k =-0.5303-0.5303-0.0589 (   276 PWs)   bands (ev):

     8.3248   8.5821   9.8335  10.5133  10.9857  16.1625  18.5208  21.3009
    27.8650  31.9352

     occupation numbers 
     1.0000   1.0000   1.0000   1.0000   1.0000   0.0000   0.0000   0.0000
     0.0000   0.0000

          k =-0.4714-0.4714-0.0000 (   284 PWs)   bands (ev):

     8.5794   8.7417   9.4778  10.3598  10.8136  15.8610  18.5381  21.0941
    29.2443  32.4581

     occupation numbers 
     1.0000   1.0000   1.0000   1.0000   1.0000   0.0000   0.0000   0.0000
     0.0000   0.0000

          k = 0.0000 0.0000 0.5893 (   286 PWs)   bands (ev):

     7.7206   8.3025  10.9480  11.0222  11.0222  12.4889  22.0050  26.1721
    26.1721  30.3399

     occupation numbers 
     1.0000   1.0000   1.0000   1.0000   1.0000   0.4908   0.0000   0.0000
     0.0000   0.0000

          k =-0.6482-0.6482-0.0589 (   276 PWs)   bands (ev):

     7.8222   8.2820  10.8427  10.9032  11.1178  14.0011  20.4937  24.0997
    26.0447  31.0043

     occupation numbers 
     1.0000   1.0000   1.0000   1.0000   1.0000   0.0000   0.0000   0.0000
     0.0000   0.0000

          k =-0.5893-0.5893 0.0000 (   280 PWs)   bands (ev):

     8.0349   8.3893  10.3704  10.7723  11.0688  15.5686  19.9650  21.2016
    26.6324  31.4853

     occupation numbers 
     1.0000   1.0000   1.0000   1.0000   1.0000   0.0000   0.0000   0.0000
     0.0000   0.0000

          k = 0.0000 0.0000-0.7071 (   286 PWs)   bands (ev):

     7.7441   8.2139  10.9860  11.1579  11.1579  14.0852  19.7309  25.6792
    25.6792  30.1944

     occupation numbers 
     1.0000   1.0000   1.0000   1.0000   1.0000   0.0000   0.0000   0.0000
     0.0000   0.0000

          k = 0.0000 0.1179 0.2357 (   288 PWs)   bands (ev):

     4.8588   9.2473   9.8195   9.9344  10.2062  10.6174  29.4862  30.1459
    36.1152  36.3558

     occupation numbers 
     1.0000   1.0000   1.0000   1.0000   1.0000   1.0000   0.0000   0.0000
     0.0000   0.0000

          k = 0.0589 0.1768 0.2946 (   287 PWs)   bands (ev):

     5.9460   9.1284   9.6980  10.0012  10.3433  10.8860  25.5721  29.1297
    34.4341  36.4010

     occupation numbers 
     1.0000   1.0000   1.0000   1.0000   1.0000   1.0000   0.0000   0.0000
     0.0000   0.0000

          k = 0.1179 0.2357 0.3536 (   279 PWs)   bands (ev):

     7.1207   9.1920   9.5310   9.9251  10.6612  11.3718  21.7300  28.8282
    32.5245  35.8102

     occupation numbers 
     1.0000   1.0000   1.0000   1.0000   1.0000   1.0000   0.0000   0.0000
     0.0000   0.0000

          k =-0.5303-0.4125-0.2946 (   275 PWs)   bands (ev):

     7.7901   9.3462   9.6513   9.8500  10.9023  12.3654  18.4161  28.9962
    30.9432  35.3334

     occupation numbers 
     1.0000   1.0000   1.0000   1.0000   1.0000   1.0368   0.0000   0.0000
     0.0000   0.0000

          k =-0.4714-0.3536-0.2357 (   274 PWs)   bands (ev):

     7.9292   9.3065   9.8035   9.9071  10.9782  13.4259  16.5724  29.4417
    30.0135  35.1544

     occupation numbers 
     1.0000   1.0000   1.0000   1.0000   1.0000   0.0000   0.0000   0.0000
     0.0000   0.0000

          k =-0.0000 0.1179 0.3536 (   287 PWs)   bands (ev):

     6.2747   8.9295   9.7276  10.2781  10.3797  10.8781  27.3143  27.8421
    31.5021  34.4571

     occupation numbers 
     1.0000   1.0000   1.0000   1.0000   1.0000   1.0000   0.0000   0.0000
     0.0000   0.0000

          k = 0.0589 0.1768 0.4125 (   280 PWs)   bands (ev):

     7.3113   8.8562   9.5318  10.2694  10.6980  11.4596  23.6237  27.1530
    29.3952  34.8325

     occupation numbers 
     1.0000   1.0000   1.0000   1.0000   1.0000   1.0000   0.0000   0.0000
     0.0000   0.0000

          k =-0.5893-0.4714-0.2357 (   278 PWs)   bands (ev):

     8.0468   8.9318   9.4292  10.1724  10.9328  12.6857  20.0787  27.1326
    27.6915  34.8105

     occupation numbers 
     1.0000   1.0000   1.0000   1.0000   1.0000   0.0086   0.0000   0.0000
     0.0000   0.0000

          k =-0.5303-0.4125-0.1768 (   276 PWs)   bands (ev):

     8.2988   8.9802   9.5306  10.0838  10.9750  14.4817  17.2561  26.2234
    27.8324  35.0567

     occupation numbers 
     1.0000   1.0000   1.0000   1.0000   1.0000   0.0000   0.0000   0.0000
     0.0000   0.0000

          k =-0.4714-0.3536-0.1179 (   275 PWs)   bands (ev):

     8.3024   9.0489   9.4452  10.0705  10.8578  13.9505  18.0619  25.3550
    28.9043  35.7160

     occupation numbers 
     1.0000   1.0000   1.0000   1.0000   1.0000   0.0000   0.0000   0.0000
     0.0000   0.0000

          k =-0.4125-0.2946-0.0589 (   276 PWs)   bands (ev):

     7.9488   9.0804   9.2867  10.1374  10.6089  12.3787  21.2254  24.9870
    30.4313  36.8426

     occupation numbers 
     1.0000   1.0000   1.0000   1.0000   1.0000   1.0058   0.0000   0.0000
     0.0000   0.0000

          k =-0.3536-0.2357 0.0000 (   278 PWs)   bands (ev):

     7.0082   9.0202   9.5002  10.2150  10.3086  11.4397  24.6179  25.4252
    32.3416  38.3584

     occupation numbers 
     1.0000   1.0000   1.0000   1.0000   1.0000   1.0000   0.0000   0.0000
     0.0000   0.0000

          k = 0.0000 0.1179 0.4714 (   283 PWs)   bands (ev):

     7.5371   8.6158   9.8803  10.6804  10.7214  11.5098  25.5544  25.9817
    26.6416  33.2644

     occupation numbers 
     1.0000   1.0000   1.0000   1.0000   1.0000   1.0000   0.0000   0.0000
     0.0000   0.0000

          k =-0.6482-0.5303-0.1768 (   276 PWs)   bands (ev):

     8.0456   8.6048   9.7489  10.5713  10.9605  12.9343  22.2023  24.6423
    25.7646  33.9150

     occupation numbers 
     1.0000   1.0000   1.0000   1.0000   1.0000   0.0000   0.0000   0.0000
     0.0000   0.0000

          k =-0.5893-0.4714-0.1179 (   276 PWs)   bands (ev):

     8.3709   8.6806   9.5972  10.4246  11.0162  15.0317  18.9926  23.1912
    26.1981  34.2490

     occupation numbers 
     1.0000   1.0000   1.0000   1.0000   1.0000   0.0000   0.0000   0.0000
     0.0000   0.0000

          k =-0.5303-0.4125-0.0589 (   276 PWs)   bands (ev):

     8.6289   8.7402   9.3932  10.3171  10.9048  15.9870  17.9236  22.2230
    27.1810  34.8620

     occupation numbers 
     1.0000   1.0000   1.0000   1.0000   1.0000   0.0000   0.0000   0.0000
     0.0000   0.0000

          k =-0.4714-0.3536-0.0000 (   280 PWs)   bands (ev):

     8.5511   8.9755   9.1281  10.2687  10.7089  13.9135  20.4926  22.1873
    28.6185  35.8357

     occupation numbers 
     1.0000   1.0000   1.0000   1.0000   1.0000   0.0000   0.0000   0.0000
     0.0000   0.0000

          k =-0.7071-0.5893-0.1179 (   276 PWs)   bands (ev):

     7.8886   8.3904  10.4010  10.8723  11.0212  13.2783  22.2233  24.3679
    24.9019  32.5784

     occupation numbers 
     1.0000   1.0000   1.0000   1.0000   1.0000   0.0000   0.0000   0.0000
     0.0000   0.0000

          k =-0.6482-0.5303-0.0589 (   278 PWs)   bands (ev):

     8.1040   8.4618  10.1230  10.7103  11.0985  15.2329  20.8262  21.4634
    24.9788  33.4853

     occupation numbers 
     1.0000   1.0000   1.0000   1.0000   1.0000   0.0000   0.0000   0.0000
     0.0000   0.0000

          k =-0.5893-0.4714-0.0000 (   276 PWs)   bands (ev):

     8.3730   8.6183   9.7276  10.5250  11.0235  17.1602  18.5044  20.5149
    25.8384  34.0704

     occupation numbers 
     1.0000   1.0000   1.0000   1.0000   1.0000   0.0000   0.0000   0.0000
     0.0000   0.0000

          k = 0.0000 0.1179-0.7071 (   276 PWs)   bands (ev):

     7.8963   8.3088  10.6466  10.8700  11.1581  14.8989  19.8551  23.9430
    24.4807  32.3567

     occupation numbers 
     1.0000   1.0000   1.0000   1.0000   1.0000   0.0000   0.0000   0.0000
     0.0000   0.0000

          k =-0.7071-0.4714-0.2357 (   274 PWs)   bands (ev):

     8.0740   8.8159   9.3274  10.4775  10.6813  12.5504  22.8716  23.8754
    27.3504  37.3226

     occupation numbers 
     1.0000   1.0000   1.0000   1.0000   1.0000   0.2097   0.0000   0.0000
     0.0000   0.0000

          k =-0.6482-0.4125-0.1768 (   275 PWs)   bands (ev):

     8.5025   8.8630   9.2186  10.3642  10.8974  14.2838  19.8331  23.7375
    25.7011  37.7150

     occupation numbers 
     1.0000   1.0000   1.0000   1.0000   1.0000   0.0000   0.0000   0.0000
     0.0000   0.0000

          k =-0.5893-0.3536-0.1179 (   274 PWs)   bands (ev):

     8.7007   8.7267   9.2997  10.2883  10.9805  16.1725  17.4074  24.3501
    24.5958  37.6427

     occupation numbers 
     1.0000   1.0000   1.0000   1.0000   1.0000   0.0000   0.0000   0.0000
     0.0000   0.0000

          k =-0.7071-0.4714-0.1179 (   276 PWs)   bands (ev):

     8.2964   8.6581   9.5989  10.5935  11.0187  14.6940  21.7109  22.7802
    23.0778  36.5482

     occupation numbers 
     1.0000   1.0000   1.0000   1.0000   1.0000   0.0000   0.0000   0.0000
     0.0000   0.0000

          k =-0.6482-0.4125-0.0589 (   274 PWs)   bands (ev):

     8.4723   8.8106   9.3862  10.4366  11.0911  16.9549  19.0539  21.6929
    23.1222  37.6441

     occupation numbers 
     1.0000   1.0000   1.0000   1.0000   1.0000   0.0000   0.0000   0.0000
     0.0000   0.0000

[...]
     0.0000   0.0000

          k = 0.0000 0.0000 0.3522 (   290 PWs)   bands (ev):

     5.8720   8.7404   9.7966  10.1001  10.1001  10.5206  29.3721  29.3721
    30.6391  31.2788

     occupation numbers 
     1.0000   1.0000   1.0000   1.0000   1.0000   1.0000   0.0000   0.0000
     0.0000   0.0000

          k = 0.0587 0.0587 0.4109 (   292 PWs)   bands (ev):

     6.7384   8.5914   9.7009  10.2008  10.5711  10.6512  26.1353  28.4376
    28.4697  31.7484

     occupation numbers 
     1.0000   1.0000   1.0000   1.0000   1.0000   1.0000   0.0000   0.0000
     0.0000   0.0000

          k = 0.1174 0.1174 0.4696 (   283 PWs)   bands (ev):

     7.5611   8.5439   9.5530  10.1562  10.8144  11.6188  22.4159  26.4811
    28.0913  31.7847

     occupation numbers 
     1.0000   1.0000   1.0000   1.0000   1.0000   1.0000   0.0000   0.0000
     0.0000   0.0000

          k =-0.5283-0.5283-0.1761 (   283 PWs)   bands (ev):

     8.0473   8.6152   9.4634  10.0721  10.8601  13.3483  19.0582  24.8696
    28.3774  31.8766

     occupation numbers 
     1.0000   1.0000   1.0000   1.0000   1.0000   0.0000   0.0000   0.0000
     0.0000   0.0000

          k =-0.4696-0.4696-0.1174 (   280 PWs)   bands (ev):

     8.2577   8.7199   9.3883   9.9994  10.7455  15.1406  16.7987  23.6950
    29.2910  32.2280

     occupation numbers 
     1.0000   1.0000   1.0000   1.0000   1.0000   0.0000   0.0000   0.0000
     0.0000   0.0000

          k =-0.4109-0.4109-0.0587 (   278 PWs)   bands (ev):

     8.2566   8.8921   9.1590   9.9588  10.5105  13.5880  19.0500  23.0168
    30.7735  32.9164

     occupation numbers 
     1.0000   1.0000   1.0000   1.0000   1.0000   0.0000   0.0000   0.0000
     0.0000   0.0000

          k =-0.3522-0.3522-0.0000 (   283 PWs)   bands (ev):

     7.7651   8.9488   9.1477   9.9305  10.2594  12.1179  22.0459  23.2137
    32.7329  33.9694

     occupation numbers 
     1.0000   1.0000   1.0000   1.0000   1.0000   1.0827   0.0000   0.0000
     0.0000   0.0000

          k = 0.0000 0.0000 0.4696 (   274 PWs)   bands (ev):

     7.1875   8.4022  10.3545  10.4982  10.4982  10.6575  25.9548  27.2607
    27.2607  30.4747

     occupation numbers 
     1.0000   1.0000   1.0000   1.0000   1.0000   1.0000   0.0000   0.0000
     0.0000   0.0000

          k = 0.0587 0.0587 0.5283 (   283 PWs)   bands (ev):

     7.5777   8.3036  10.2515  10.5227  10.8136  11.7184  23.8399  24.6532
    26.6878  31.0084

     occupation numbers 
     1.0000   1.0000   1.0000   1.0000   1.0000   1.0000   0.0000   0.0000
     0.0000   0.0000

          k =-0.5870-0.5870-0.1174 (   280 PWs)   bands (ev):

     7.8937   8.3232   9.9870  10.4409  10.8863  13.6141  21.2923  22.1843
    26.7845  31.2933

     occupation numbers 
     1.0000   1.0000   1.0000   1.0000   1.0000   0.0000   0.0000   0.0000
     0.0000   0.0000

          k =-0.5283-0.5283-0.0587 (   280 PWs)   bands (ev):

     8.1828   8.4361   9.6664  10.3323  10.7959  15.9364  18.2702  21.0154
    27.5511  31.5936

     occupation numbers 
     1.0000   1.0000   1.0000   1.0000   1.0000   0.0000   0.0000   0.0000
     0.0000   0.0000

          k =-0.4696-0.4696-0.0000 (   284 PWs)   bands (ev):

     8.4318   8.5944   9.3167  10.1817  10.6270  15.6304  18.2942  20.8075
    28.9171  32.1175

     occupation numbers 
     1.0000   1.0000   1.0000   1.0000   1.0000   0.0000   0.0000   0.0000
     0.0000   0.0000

          k = 0.0000 0.0000 0.5870 (   286 PWs)   bands (ev):

     7.5870   8.1607  10.7587  10.8318  10.8318  12.2994  21.7183  25.8757
    25.8757  30.0205

     occupation numbers 
     1.0000   1.0000   1.0000   1.0000   1.0000   0.4221   0.0000   0.0000
     0.0000   0.0000

          k =-0.6457-0.6457-0.0587 (   282 PWs)   bands (ev):

     7.6881   8.1405  10.6572  10.7149  10.9255  13.8010  20.2119  23.8146
    25.7496  30.6741

     occupation numbers 
     1.0000   1.0000   1.0000   1.0000   1.0000   0.0000   0.0000   0.0000
     0.0000   0.0000

          k =-0.5870-0.5870 0.0000 (   280 PWs)   bands (ev):

     7.8980   8.2461  10.1942  10.5865  10.8775  15.3549  19.6884  20.9290
    26.3310  31.1449

     occupation numbers 
     1.0000   1.0000   1.0000   1.0000   1.0000   0.0000   0.0000   0.0000
     0.0000   0.0000

          k =-0.0000-0.0000-0.7044 (   286 PWs)   bands (ev):

     7.6114   8.0736  10.7960  10.9650  10.9650  13.8934  19.4487  25.3881
    25.3881  29.8744

     occupation numbers 
     1.0000   1.0000   1.0000   1.0000   1.0000   0.0000   0.0000   0.0000
     0.0000   0.0000

          k =-0.0000 0.1174 0.2348 (   290 PWs)   bands (ev):

     4.7338   9.0890   9.6508   9.7635  10.0305  10.4340  29.1677  29.8123
    35.7679  36.0138

     occupation numbers 
     1.0000   1.0000   1.0000   1.0000   1.0000   1.0000   0.0000   0.0000
     0.0000   0.0000

          k = 0.0587 0.1761 0.2935 (   289 PWs)   bands (ev):

     5.8137   8.9725   9.5317   9.8292  10.1652  10.6982  25.2715  28.8067
    34.0902  36.0270

     occupation numbers 
     1.0000   1.0000   1.0000   1.0000   1.0000   1.0000   0.0000   0.0000
     0.0000   0.0000

          k = 0.1174 0.2348 0.3522 (   281 PWs)   bands (ev):

     6.9826   9.0358   9.3676   9.7545  10.4776  11.1775  21.4517  28.5082
    32.1821  35.4431

     occupation numbers 
     1.0000   1.0000   1.0000   1.0000   1.0000   1.0000   0.0000   0.0000
     0.0000   0.0000

          k =-0.5283-0.4109-0.2935 (   278 PWs)   bands (ev):

     7.6503   9.1875   9.4880   9.6811  10.7141  12.1653  18.1553  28.6780
    30.6044  34.9777

     occupation numbers 
     1.0000   1.0000   1.0000   1.0000   1.0000   1.0318   0.0000   0.0000
     0.0000   0.0000

          k =-0.4696-0.3522-0.2348 (   280 PWs)   bands (ev):

     7.7891   9.1482   9.6352   9.7409  10.7885  13.2282  16.3141  29.1342
    29.6660  34.8035

     occupation numbers 
     1.0000   1.0000   1.0000   1.0000   1.0000   0.0000   0.0000   0.0000
     0.0000   0.0000

          k =-0.0000 0.1174 0.3522 (   291 PWs)   bands (ev):

     6.1408   8.7769   9.5607  10.1012  10.2011  10.6904  27.0065  27.5253
    31.1686  34.1169

     occupation numbers 
     1.0000   1.0000   1.0000   1.0000   1.0000   1.0000   0.0000   0.0000
     0.0000   0.0000

          k = 0.0587 0.1761 0.4109 (   283 PWs)   bands (ev):

     7.1724   8.7051   9.3685  10.0928  10.5138  11.2642  23.3360  26.8440
    29.0672  34.4769

     occupation numbers 
     1.0000   1.0000   1.0000   1.0000   1.0000   1.0000   0.0000   0.0000
     0.0000   0.0000

          k =-0.5870-0.4696-0.2348 (   278 PWs)   bands (ev):

     7.9045   8.7805   9.2678   9.9976  10.7441  12.4797  19.8120  26.8321
    27.3641  34.4541

     occupation numbers 
     1.0000   1.0000   1.0000   1.0000   1.0000   0.0096   0.0000   0.0000
     0.0000   0.0000

          k =-0.5283-0.4109-0.1761 (   278 PWs)   bands (ev):

     8.1544   8.8286   9.3686   9.9106  10.7854  14.2693  17.0007  25.9198
    27.5119  34.7015

     occupation numbers 
     1.0000   1.0000   1.0000   1.0000   1.0000   0.0000   0.0000   0.0000
     0.0000   0.0000

          k =-0.4696-0.3522-0.1174 (   278 PWs)   bands (ev):

     8.1575   8.8960   9.2848   9.8976  10.6704  13.7369  17.8052  25.0548
    28.5785  35.3578

     occupation numbers 
     1.0000   1.0000   1.0000   1.0000   1.0000   0.0000   0.0000   0.0000
     0.0000   0.0000

          k =-0.4109-0.2935-0.0587 (   283 PWs)   bands (ev):

     7.8055   8.9261   9.1280   9.9633  10.4261  12.1728  20.9523  24.6880
    30.0967  36.4746

     occupation numbers 
     1.0000   1.0000   1.0000   1.0000   1.0000   1.0146   0.0000   0.0000
     0.0000   0.0000

          k =-0.3522-0.2348-0.0000 (   286 PWs)   bands (ev):

     6.8695   8.8662   9.3378  10.0395  10.1311  11.2434  24.3277  25.1198
    31.9974  37.9683

     occupation numbers 
     1.0000   1.0000   1.0000   1.0000   1.0000   1.0000   0.0000   0.0000
     0.0000   0.0000

          k =-0.0000 0.1174 0.4696 (   283 PWs)   bands (ev):

     7.3998   8.4687   9.7112  10.4964  10.5369  11.3152  25.2588  25.6883
    26.3201  32.9295

     occupation numbers 
     1.0000   1.0000   1.0000   1.0000   1.0000   1.0000   0.0000   0.0000
     0.0000   0.0000

          k =-0.6457-0.5283-0.1761 (   284 PWs)   bands (ev):

     7.9059   8.4581   9.5823  10.3894  10.7713  12.7272  21.9263  24.3458
    25.4594  33.5657

     occupation numbers 
     1.0000   1.0000   1.0000   1.0000   1.0000   0.0000   0.0000   0.0000
     0.0000   0.0000

          k =-0.5870-0.4696-0.1174 (   281 PWs)   bands (ev):

     8.2277   8.5331   9.4336  10.2454  10.8259  14.8102  18.7357  22.9005
    25.8920  33.8953

     occupation numbers 
     1.0000   1.0000   1.0000   1.0000   1.0000   0.0000   0.0000   0.0000
     0.0000   0.0000

          k =-0.5283-0.4109-0.0587 (   276 PWs)   bands (ev):

     8.4806   8.5928   9.2334  10.1398  10.7165  15.7586  17.6740  21.9366
    26.8675  34.5055

     occupation numbers 
     1.0000   1.0000   1.0000   1.0000   1.0000   0.0000   0.0000   0.0000
     0.0000   0.0000

          k =-0.4696-0.3522-0.0000 (   280 PWs)   bands (ev):

     8.4033   8.8230   8.9726  10.0923  10.5243  13.6953  20.2325  21.8979
    28.2948  35.4737

     occupation numbers 
     1.0000   1.0000   1.0000   1.0000   1.0000   0.0000   0.0000   0.0000
     0.0000   0.0000

          k =-0.7044-0.5870-0.1174 (   281 PWs)   bands (ev):

     7.7528   8.2471  10.2236  10.6849  10.8309  13.0750  21.9371  24.0827
    24.6051  32.2462

     occupation numbers 
     1.0000   1.0000   1.0000   1.0000   1.0000   0.0000   0.0000   0.0000
     0.0000   0.0000

          k =-0.6457-0.5283-0.0587 (   281 PWs)   bands (ev):

     7.9659   8.3173   9.9509  10.5257  10.9067  15.0161  20.5509  21.1874
    24.6837  33.1384

     occupation numbers 
     1.0000   1.0000   1.0000   1.0000   1.0000   0.0000   0.0000   0.0000
     0.0000   0.0000

          k =-0.5870-0.4696-0.0000 (   276 PWs)   bands (ev):

     8.2309   8.4714   9.5624  10.3438  10.8330  16.9296  18.2582  20.2285
    25.5358  33.7172

     occupation numbers 
     1.0000   1.0000   1.0000   1.0000   1.0000   0.0000   0.0000   0.0000
     0.0000   0.0000

          k =-0.0000 0.1174-0.7044 (   284 PWs)   bands (ev):

     7.7615   8.1669  10.4650  10.6822  10.9652  14.6940  19.5738  23.6619
    24.1891  32.0251

     occupation numbers 
     1.0000   1.0000   1.0000   1.0000   1.0000   0.0000   0.0000   0.0000
     0.0000   0.0000

          k =-0.7044-0.4696-0.2348 (   282 PWs)   bands (ev):

     7.9313   8.6655   9.1677  10.2975  10.4972  12.3435  22.5942  23.5808
    27.0335  36.9638

     occupation numbers 
     1.0000   1.0000   1.0000   1.0000   1.0000   0.2254   0.0000   0.0000
     0.0000   0.0000

          k =-0.6457-0.4109-0.1761 (   276 PWs)   bands (ev):

     8.3569   8.7124   9.0609  10.1861  10.7093  14.0646  19.5713  23.4473
    25.3939  37.3423

     occupation numbers 
     1.0000   1.0000   1.0000   1.0000   1.0000   0.0000   0.0000   0.0000
     0.0000   0.0000

          k =-0.5870-0.3522-0.1174 (   282 PWs)   bands (ev):

     8.5511   8.5795   9.1414  10.1115  10.7908  15.9492  17.1523  24.0704
    24.2815  37.2706

     occupation numbers 
     1.0000   1.0000   1.0000   1.0000   1.0000   0.0000   0.0000   0.0000
     0.0000   0.0000

          k =-0.7044-0.4696-0.1174 (   279 PWs)   bands (ev):

     8.1552   8.5104   9.4351  10.4112  10.8284  14.4743  21.4434  22.5118
    22.7666  36.1933

     occupation numbers 
     1.0000   1.0000   1.0000   1.0000   1.0000   0.0000   0.0000   0.0000
     0.0000   0.0000

          k =-0.6457-0.4109-0.0587 (   278 PWs)   bands (ev):

     8.3291   8.6603   9.2264  10.2571  10.8994  16.7211  18.8009  21.4111
    22.8309  37.2732

     occupation numbers 
     1.0000   1.0000   1.0000   1.0000   1.0000   0.0000   0.0000   0.0000
     0.0000   0.0000

          k =-0.5870-0.3522 0.0000 (   276 PWs)   bands (ev):

     8.4530   8.8215   8.9559  10.2017  10.8266  16.1734  19.0103  21.1341
    23.8838  38.0106

     occupation numbers 
     1.0000   1.0000   1.0000   1.0000   1.0000   0.0000   0.0000   0.0000
     0.0000   0.0000

          k =-0.0000 0.2348-0.7044 (   282 PWs)   bands (ev):

     8.1165   8.4527   9.6405  10.3987  10.9656  16.4113  19.9939  21.0324
    22.3187  35.9368

     occupation numbers 
     1.0000   1.0000   1.0000   1.0000   1.0000   0.0000   0.0000   0.0000
     0.0000   0.0000

          k =-0.0000 0.3522-0.7044 (   280 PWs)   bands (ev):

     8.3406   8.9440   8.9440  10.2099  10.9657  18.5667  18.5667  20.6638
    21.0858  40.5625

     occupation numbers 
     1.0000   1.0000   1.0000   1.0000   1.0000   0.0000   0.0000   0.0000
     0.0000   0.0000

     the Fermi energy is    12.3036 ev

!    total energy              =    -121.48901712 Ry
     Harris-Foulkes estimate   =    -121.48901712 Ry
     estimated scf accuracy    <          2.4E-11 Ry

     The total energy is the sum of the following terms:

     one-electron contribution =     -28.99376128 Ry
     hartree contribution      =      31.20147151 Ry
     xc contribution           =     -42.80258104 Ry
     ewald contribution        =     -80.89430900 Ry
     smearing contrib. (-TS)   =       0.00016268 Ry

     total magnetization       =    -0.00 Bohr mag/cell
     absolute magnetization    =     0.00 Bohr mag/cell

     convergence has been achieved in   9 iterations

     Forces acting on atoms (cartesian axes, Ry/au):

     atom    1 type  1   force =     0.00000000    0.00000000    0.00000000
     The non-local contrib.  to forces
     atom    1 type  1   force =     0.00000000    0.00000000   -0.00000000
     The ionic contribution  to forces
     atom    1 type  1   force =     0.00000000    0.00000000    0.00000000
     The local contribution  to forces
     atom    1 type  1   force =     0.00000000    0.00000000    0.00000000
     The core correction contribution to forces
     atom    1 type  1   force =     0.00000000    0.00000000    0.00000000
     The Hubbard contrib.    to forces
     atom    1 type  1   force =     0.00000000    0.00000000    0.00000000
     The SCF correction term to forces
     atom    1 type  1   force =    -0.00000000   -0.00000000    0.00000000

     Total force =     0.000000     Total SCF correction =     0.000000


     Computing stress (Cartesian axis) and pressure

          total   stress  (Ry/bohr**3)                   (kbar)     P=    0.21
   0.00000145   0.00000000  -0.00000000          0.21      0.00     -0.00
   0.00000000   0.00000145  -0.00000000          0.00      0.21     -0.00
   0.00000000  -0.00000000   0.00000145          0.00     -0.00      0.21

     kinetic stress (kbar)  13225.86      0.00     -0.00
                                0.00  13225.86     -0.00
                               -0.00     -0.00  13225.86

     local   stress (kbar)  23189.46      0.00      0.00
                                0.00  23189.46     -0.00
                                0.00     -0.00  23189.46

     nonloc. stress (kbar)   6859.49      0.00     -0.00
                                0.00   6859.49     -0.00
                               -0.00     -0.00   6859.49

     hartree stress (kbar)  18974.06      0.00     -0.00
                                0.00  18974.06     -0.00
                               -0.00     -0.00  18974.06

     exc-cor stress (kbar)  30066.36      0.00      0.00
                                0.00  30066.36      0.00
                                0.00      0.00  30066.36

     corecor stress (kbar) -43122.04      0.00      0.00
                                0.00 -43122.04      0.00
                                0.00      0.00 -43122.04

     ewald   stress (kbar) -49192.99     -0.00      0.00
                               -0.00 -49192.99      0.00
                                0.00      0.00 -49192.99

     hubbard stress (kbar)      0.00      0.00      0.00
                                0.00      0.00      0.00
                                0.00      0.00      0.00

     london  stress (kbar)      0.00      0.00      0.00
                                0.00      0.00      0.00
                                0.00      0.00      0.00

     DFT-D3  stress (kbar)      0.00      0.00      0.00
                                0.00      0.00      0.00
                                0.00      0.00      0.00

     XDM     stress (kbar)      0.00      0.00      0.00
                                0.00      0.00      0.00
                                0.00      0.00      0.00

     dft-nl  stress (kbar)      0.00      0.00      0.00
                                0.00      0.00      0.00
                                0.00      0.00      0.00

     TS-vdW  stress (kbar)      0.00      0.00      0.00
                                0.00      0.00      0.00
                                0.00      0.00      0.00


 
     init_run     :      8.77s CPU      9.71s WALL (       2 calls)
     electrons    :   1056.55s CPU   1165.45s WALL (       7 calls)
     update_pot   :      0.40s CPU      0.45s WALL (       4 calls)
     forces       :      8.70s CPU      9.53s WALL (       7 calls)
     stress       :     13.11s CPU     14.60s WALL (       7 calls)

     Called by init_run:
     wfcinit      :      7.80s CPU      8.59s WALL (       2 calls)
     wfcinit:atom :      0.06s CPU      0.08s WALL (     288 calls)
     wfcinit:wfcr :      7.70s CPU      8.47s WALL (     288 calls)
     potinit      :      0.14s CPU      0.16s WALL (       3 calls)
     hinit0       :      0.79s CPU      0.91s WALL (       2 calls)

     Called by electrons:
     c_bands      :    875.04s CPU    965.79s WALL (      87 calls)
     sum_band     :    175.53s CPU    193.02s WALL (      87 calls)
     v_of_rho     :      1.96s CPU      2.15s WALL (      94 calls)
     v_h          :      0.26s CPU      0.28s WALL (      94 calls)
     v_xc         :      1.94s CPU      2.13s WALL (     108 calls)
     newd         :      3.05s CPU      3.32s WALL (      94 calls)
     mix_rho      :      0.73s CPU      0.81s WALL (      87 calls)

     Called by c_bands:
     init_us_2    :      3.72s CPU      3.87s WALL (   27360 calls)
     cegterg      :    847.36s CPU    935.26s WALL (   12528 calls)

     Called by sum_band:
     sum_band:bec :      1.63s CPU      1.85s WALL (   12528 calls)
     addusdens    :      6.87s CPU      7.45s WALL (      87 calls)

     Called by *egterg:
     h_psi        :    695.52s CPU    766.65s WALL (   34594 calls)
     s_psi        :      2.94s CPU      3.04s WALL (   34594 calls)
     g_psi        :      2.11s CPU      2.40s WALL (   21778 calls)
     cdiaghg      :     51.19s CPU     56.42s WALL (   33586 calls)
     cegterg:over :     41.29s CPU     45.71s WALL (   21778 calls)
     cegterg:upda :      4.17s CPU      4.93s WALL (   21778 calls)
     cegterg:last :      2.05s CPU      2.36s WALL (   12699 calls)

     Called by h_psi:
     h_psi:pot    :    692.49s CPU    763.39s WALL (   34594 calls)
     h_psi:calbec :     32.87s CPU     36.49s WALL (   34594 calls)
     vloc_psi     :    655.09s CPU    721.96s WALL (   34594 calls)
     add_vuspsi   :      4.20s CPU      4.77s WALL (   34594 calls)

     General routines
     calbec       :     50.26s CPU     55.91s WALL (   52162 calls)
     fft          :      2.51s CPU      2.83s WALL (    2280 calls)
     ffts         :      0.17s CPU      0.18s WALL (     174 calls)
     fftw         :    687.07s CPU    758.42s WALL (  717818 calls)
 
     Parallel routines
     fft_scatt_xy :     58.80s CPU     63.75s WALL (  720272 calls)
     fft_scatt_yz :    393.97s CPU    441.86s WALL (  720272 calls)
 
     PWSCF        : 18m 8.00s CPU    20m 0.49s WALL

 
   This run was terminated on:   1:55:41  21Feb2019            

=------------------------------------------------------------------------------=
   JOB DONE.
=------------------------------------------------------------------------------=
