
     Program PWSCF v.6.3MaX starts on 19Mar2019 at 13: 4: 3 

     This program is part of the open-source Quantum ESPRESSO suite
     for quantum simulation of materials; please cite
         "P. Giannozzi et al., J. Phys.:Condens. Matter 21 395502 (2009);
         "P. Giannozzi et al., J. Phys.:Condens. Matter 29 465901 (2017);
          URL http://www.quantum-espresso.org", 
     in publications or presentations arising from this work. More details at
     http://www.quantum-espresso.org/quote

 *** WARNING: using old-style file format, will disappear from next version ***

     Parallel version (MPI & OpenMP), running on      20 processor cores
     Number of MPI processes:                 5
     Threads/MPI process:                     4

     MPI processes distributed on     1 nodes
     R & G space division:  proc/nbgrp/npool/nimage =       5
     Reading input from /home/azadoks/dftman/projects/HW5_3/LocalJobs/dftman_87874_d81965801a27/pwscf.in
Warning: card &CELL ignored
Warning: card / ignored

     Current dimensions of program PWSCF are:
     Max number of different atomic species (ntypx) = 10
     Max number of k-points (npk) =  40000
     Max angular momentum in pseudopotentials (lmaxx) =  3
     Message from routine iosys:
     minimal I/O required, wf_collect reset to FALSE

     Subspace diagonalization in iterative solution of the eigenvalue problem:
     a serial algorithm will be used

 
     Parallelization info
     --------------------
     sticks:   dense  smooth     PW     G-vecs:    dense   smooth      PW
     Min        1363    1363    340                84739    84739   10584
     Max        1364    1364    341                84742    84742   10587
     Sum        6817    6817   1701               423701   423701   52923
 


     bravais-lattice index     =            0
     lattice parameter (alat)  =      18.8973  a.u.
     unit-cell volume          =    6748.3346 (a.u.)^3
     number of atoms/cell      =            2
     number of atomic types    =            1
     number of electrons       =        10.00
     number of Kohn-Sham states=            9
     kinetic-energy cutoff     =      60.0000  Ry
     charge density cutoff     =     240.0000  Ry
     convergence threshold     =      1.0E-08
     mixing beta               =       0.7000
     number of iterations used =            8  plain     mixing
     Exchange-correlation      = SLA  PW   PBE  PBE ( 1  4  3  4 0 0)
     nstep                     =           50


     celldm(1)=  18.897261  celldm(2)=   0.000000  celldm(3)=   0.000000
     celldm(4)=   0.000000  celldm(5)=   0.000000  celldm(6)=   0.000000

     crystal axes: (cart. coord. in units of alat)
               a(1) = (   1.000000   0.000000   0.000000 )  
               a(2) = (   0.000000   1.000000   0.000000 )  
               a(3) = (   0.000000   0.000000   1.000000 )  

     reciprocal axes: (cart. coord. in units 2 pi/alat)
               b(1) = (  1.000000  0.000000  0.000000 )  
               b(2) = (  0.000000  1.000000  0.000000 )  
               b(3) = (  0.000000  0.000000  1.000000 )  


     PseudoPot. # 1 for N  read from file:
     /home/azadoks/.local/share/pseudo/GBRV_PBE_US/n_pbe_v1.2.uspp.F.UPF
     MD5 check sum: 95339753478d7afb44899504a8723017
     Pseudo is Ultrasoft + core correction, Zval =  5.0
     Generated by new atomic code, or converted to UPF format
     Using radial grid of  729 points,  4 beta functions with: 
                l(1) =   0
                l(2) =   0
                l(3) =   1
                l(4) =   1
     Q(r) pseudized with  8 coefficients,  rinner =    0.900   0.900   0.900


     atomic species   valence    mass     pseudopotential
        N              5.00    14.00670     N ( 1.00)

     Starting magnetic structure 
     atomic species   magnetization
        N            0.100

     16 Sym. Ops., with inversion, found


                                    s                        frac. trans.

      isym =  1     identity                                     

 cryst.   s( 1) = (     1          0          0      )
                  (     0          1          0      )
                  (     0          0          1      )

 cart.    s( 1) = (  1.0000000  0.0000000  0.0000000 )
                  (  0.0000000  1.0000000  0.0000000 )
                  (  0.0000000  0.0000000  1.0000000 )


      isym =  2     180 deg rotation - cart. axis [0,0,1]        

 cryst.   s( 2) = (    -1          0          0      )
                  (     0         -1          0      )
                  (     0          0          1      )

 cart.    s( 2) = ( -1.0000000  0.0000000  0.0000000 )
                  (  0.0000000 -1.0000000  0.0000000 )
                  (  0.0000000  0.0000000  1.0000000 )


      isym =  3     180 deg rotation - cart. axis [0,1,0]        

 cryst.   s( 3) = (    -1          0          0      )
                  (     0          1          0      )
                  (     0          0         -1      )

 cart.    s( 3) = ( -1.0000000  0.0000000  0.0000000 )
                  (  0.0000000  1.0000000  0.0000000 )
                  (  0.0000000  0.0000000 -1.0000000 )


      isym =  4     180 deg rotation - cart. axis [1,0,0]        

 cryst.   s( 4) = (     1          0          0      )
                  (     0         -1          0      )
                  (     0          0         -1      )

 cart.    s( 4) = (  1.0000000  0.0000000  0.0000000 )
                  (  0.0000000 -1.0000000  0.0000000 )
                  (  0.0000000  0.0000000 -1.0000000 )


      isym =  5     180 deg rotation - cart. axis [1,1,0]        

 cryst.   s( 5) = (     0          1          0      )
                  (     1          0          0      )
                  (     0          0         -1      )

 cart.    s( 5) = (  0.0000000  1.0000000  0.0000000 )
                  (  1.0000000  0.0000000  0.0000000 )
                  (  0.0000000  0.0000000 -1.0000000 )


      isym =  6     180 deg rotation - cart. axis [1,-1,0]       

 cryst.   s( 6) = (     0         -1          0      )
                  (    -1          0          0      )
                  (     0          0         -1      )

 cart.    s( 6) = (  0.0000000 -1.0000000  0.0000000 )
                  ( -1.0000000  0.0000000  0.0000000 )
                  (  0.0000000  0.0000000 -1.0000000 )


      isym =  7      90 deg rotation - cart. axis [0,0,-1]       

 cryst.   s( 7) = (     0         -1          0      )
                  (     1          0          0      )
                  (     0          0          1      )

 cart.    s( 7) = (  0.0000000  1.0000000  0.0000000 )
                  ( -1.0000000  0.0000000  0.0000000 )
                  (  0.0000000  0.0000000  1.0000000 )


      isym =  8      90 deg rotation - cart. axis [0,0,1]        

 cryst.   s( 8) = (     0          1          0      )
                  (    -1          0          0      )
                  (     0          0          1      )

 cart.    s( 8) = (  0.0000000 -1.0000000  0.0000000 )
                  (  1.0000000  0.0000000  0.0000000 )
                  (  0.0000000  0.0000000  1.0000000 )


      isym =  9     inversion                                    

 cryst.   s( 9) = (    -1          0          0      )
                  (     0         -1          0      )
                  (     0          0         -1      )

 cart.    s( 9) = ( -1.0000000  0.0000000  0.0000000 )
                  (  0.0000000 -1.0000000  0.0000000 )
                  (  0.0000000  0.0000000 -1.0000000 )


      isym = 10     inv. 180 deg rotation - cart. axis [0,0,1]   

 cryst.   s(10) = (     1          0          0      )
                  (     0          1          0      )
                  (     0          0         -1      )

 cart.    s(10) = (  1.0000000  0.0000000  0.0000000 )
                  (  0.0000000  1.0000000  0.0000000 )
                  (  0.0000000  0.0000000 -1.0000000 )


      isym = 11     inv. 180 deg rotation - cart. axis [0,1,0]   

 cryst.   s(11) = (     1          0          0      )
                  (     0         -1          0      )
                  (     0          0          1      )

 cart.    s(11) = (  1.0000000  0.0000000  0.0000000 )
                  (  0.0000000 -1.0000000  0.0000000 )
                  (  0.0000000  0.0000000  1.0000000 )


      isym = 12     inv. 180 deg rotation - cart. axis [1,0,0]   

 cryst.   s(12) = (    -1          0          0      )
                  (     0          1          0      )
                  (     0          0          1      )

 cart.    s(12) = ( -1.0000000  0.0000000  0.0000000 )
                  (  0.0000000  1.0000000  0.0000000 )
                  (  0.0000000  0.0000000  1.0000000 )


      isym = 13     inv. 180 deg rotation - cart. axis [1,1,0]   

 cryst.   s(13) = (     0         -1          0      )
                  (    -1          0          0      )
                  (     0          0          1      )

 cart.    s(13) = (  0.0000000 -1.0000000  0.0000000 )
                  ( -1.0000000  0.0000000  0.0000000 )
                  (  0.0000000  0.0000000  1.0000000 )


      isym = 14     inv. 180 deg rotation - cart. axis [1,-1,0]  

 cryst.   s(14) = (     0          1          0      )
                  (     1          0          0      )
                  (     0          0          1      )

 cart.    s(14) = (  0.0000000  1.0000000  0.0000000 )
                  (  1.0000000  0.0000000  0.0000000 )
                  (  0.0000000  0.0000000  1.0000000 )


      isym = 15     inv.  90 deg rotation - cart. axis [0,0,-1]  

 cryst.   s(15) = (     0          1          0      )
                  (    -1          0          0      )
                  (     0          0         -1      )

 cart.    s(15) = (  0.0000000 -1.0000000  0.0000000 )
                  (  1.0000000  0.0000000  0.0000000 )
                  (  0.0000000  0.0000000 -1.0000000 )


      isym = 16     inv.  90 deg rotation - cart. axis [0,0,1]   

 cryst.   s(16) = (     0         -1          0      )
                  (     1          0          0      )
                  (     0          0         -1      )

 cart.    s(16) = (  0.0000000  1.0000000  0.0000000 )
                  ( -1.0000000  0.0000000  0.0000000 )
                  (  0.0000000  0.0000000 -1.0000000 )


   Cartesian axes

     site n.     atom                  positions (alat units)
         1           N   tau(   1) = (   0.5000000   0.5000000   0.4451200  )
         2           N   tau(   2) = (   0.5000000   0.5000000   0.5548800  )

   Crystallographic axes

     site n.     atom                  positions (cryst. coord.)
         1           N   tau(   1) = (  0.5000000  0.5000000  0.4451200  )
         2           N   tau(   2) = (  0.5000000  0.5000000  0.5548800  )

     number of k points=     1  gaussian smearing, width (Ry)=  0.0010
                       cart. coord. in units 2pi/alat
        k(    1) = (   0.0000000   0.0000000   0.0000000), wk =   1.0000000

                       cryst. coord.
        k(    1) = (   0.0000000   0.0000000   0.0000000), wk =   1.0000000

     Dense  grid:   423701 G-vectors     FFT dimensions: (  96,  96,  96)

     Dynamical RAM for                 wfc:       1.45 MB

     Dynamical RAM for     wfc (w. buffer):       4.36 MB

     Dynamical RAM for           str. fact:       1.29 MB

     Dynamical RAM for           local pot:       0.00 MB

     Dynamical RAM for          nlocal pot:       2.59 MB

     Dynamical RAM for                qrad:       1.07 MB

     Dynamical RAM for          rho,v,vnew:      16.20 MB

     Dynamical RAM for               rhoin:       5.40 MB

     Dynamical RAM for            rho*nmix:      41.38 MB

     Dynamical RAM for           G-vectors:       5.50 MB

     Dynamical RAM for          h,s,v(r/c):       0.06 MB

     Dynamical RAM for          <psi|beta>:       0.00 MB

     Dynamical RAM for                 psi:       5.82 MB

     Dynamical RAM for                hpsi:       5.82 MB

     Dynamical RAM for                spsi:       5.82 MB

     Dynamical RAM for      wfcinit/wfcrot:       2.91 MB

     Dynamical RAM for           addusdens:      59.48 MB

     Dynamical RAM for          addusforce:      62.07 MB

     Estimated static dynamical RAM per process >      88.80 MB

     Estimated max dynamical RAM per process >     150.87 MB

     Estimated total dynamical RAM >     754.36 MB
     Generating pointlists ...
     new r_m :   0.0453 (alat units)  0.8556 (a.u.) for type    1

     Initial potential from superposition of free atoms
     Check: negative starting charge=(component1):   -0.000825
     Check: negative starting charge=(component2):   -0.000675

     starting charge    9.99998, renormalised to   10.00000

     negative rho (up, down):  8.248E-04 6.749E-04
     Starting wfcs are    8 randomized atomic wfcs +    1 random wfcs

     total cpu time spent up to now is        1.9 secs

     Self-consistent Calculation

     iteration #  1     ecut=    60.00 Ry     beta= 0.70
     Davidson diagonalization with overlap
     ethr =  1.00E-02,  avg # of iterations =  7.5

     negative rho (up, down):  3.058E-04 3.507E-04

     total cpu time spent up to now is        5.6 secs

     total energy              =     -40.24618975 Ry
     Harris-Foulkes estimate   =     -40.33168618 Ry
     estimated scf accuracy    <       0.16408256 Ry

     total magnetization       =     0.00 Bohr mag/cell
     absolute magnetization    =     0.06 Bohr mag/cell

     iteration #  2     ecut=    60.00 Ry     beta= 0.70
     Davidson diagonalization with overlap
     ethr =  1.64E-03,  avg # of iterations =  2.0

     negative rho (up, down):  6.293E-04 6.431E-04

     total cpu time spent up to now is        8.5 secs

     total energy              =     -40.27745322 Ry
     Harris-Foulkes estimate   =     -40.28326518 Ry
     estimated scf accuracy    <       0.01285896 Ry

     total magnetization       =    -0.00 Bohr mag/cell
     absolute magnetization    =     0.03 Bohr mag/cell

     iteration #  3     ecut=    60.00 Ry     beta= 0.70
     Davidson diagonalization with overlap
     ethr =  1.29E-04,  avg # of iterations =  3.0

     negative rho (up, down):  8.672E-04 8.606E-04

     total cpu time spent up to now is       11.1 secs

     total energy              =     -40.27991170 Ry
     Harris-Foulkes estimate   =     -40.27989368 Ry
     estimated scf accuracy    <       0.00061069 Ry

     total magnetization       =    -0.00 Bohr mag/cell
     absolute magnetization    =     0.01 Bohr mag/cell

     iteration #  4     ecut=    60.00 Ry     beta= 0.70
     Davidson diagonalization with overlap
     ethr =  6.11E-06,  avg # of iterations =  3.0

     negative rho (up, down):  8.887E-04 8.863E-04

     total cpu time spent up to now is       13.5 secs

     total energy              =     -40.27998152 Ry
     Harris-Foulkes estimate   =     -40.27997603 Ry
     estimated scf accuracy    <       0.00000519 Ry

     total magnetization       =     0.00 Bohr mag/cell
     absolute magnetization    =     0.00 Bohr mag/cell

     iteration #  5     ecut=    60.00 Ry     beta= 0.70
     Davidson diagonalization with overlap
     ethr =  5.19E-08,  avg # of iterations =  2.0

     negative rho (up, down):  8.873E-04 8.866E-04

     total cpu time spent up to now is       16.6 secs

     total energy              =     -40.27998344 Ry
     Harris-Foulkes estimate   =     -40.27998333 Ry
     estimated scf accuracy    <       0.00000012 Ry

     total magnetization       =    -0.00 Bohr mag/cell
     absolute magnetization    =     0.00 Bohr mag/cell

     iteration #  6     ecut=    60.00 Ry     beta= 0.70
     Davidson diagonalization with overlap
     ethr =  1.24E-09,  avg # of iterations =  2.5

     negative rho (up, down):  8.867E-04 8.866E-04
 
     Magnetic moment per site:
     atom:    1    charge:    1.5974    magn:    0.0000    constr:    0.0000
     atom:    2    charge:    1.5974    magn:    0.0000    constr:    0.0000

     total cpu time spent up to now is       19.1 secs

     End of self-consistent calculation

 ------ SPIN UP ------------


          k = 0.0000 0.0000 0.0000 ( 52923 PWs)   bands (ev):

   -28.2015 -13.2547 -11.4805 -11.4805 -10.0295  -1.7768  -1.7768  -0.3659
     1.0564

     occupation numbers 
     1.0000   1.0000   1.0000   1.0000   1.0000   0.0000   0.0000   0.0000
     0.0000

 ------ SPIN DOWN ----------


          k = 0.0000 0.0000 0.0000 ( 52923 PWs)   bands (ev):

   -28.2012 -13.2543 -11.4802 -11.4802 -10.0293  -1.7764  -1.7764  -0.3661
     1.0571

     occupation numbers 
     1.0000   1.0000   1.0000   1.0000   1.0000   0.0000   0.0000   0.0000
     0.0000

     the Fermi energy is    -6.2439 ev

!    total energy              =     -40.27998351 Ry
     Harris-Foulkes estimate   =     -40.27998349 Ry
     estimated scf accuracy    <          9.6E-09 Ry

     The total energy is the sum of the following terms:

     one-electron contribution =     -79.98059946 Ry
     hartree contribution      =      40.95322448 Ry
     xc contribution           =     -10.41233822 Ry
     ewald contribution        =       9.15972970 Ry
     smearing contrib. (-TS)   =      -0.00000000 Ry

     total magnetization       =     0.00 Bohr mag/cell
     absolute magnetization    =     0.00 Bohr mag/cell

     convergence has been achieved in   6 iterations

     negative rho (up, down):  8.867E-04 8.866E-04

     Forces acting on atoms (cartesian axes, Ry/au):

     atom    1 type  1   force =     0.00000000    0.00000000   -0.06115282
     atom    2 type  1   force =     0.00000000    0.00000000    0.06115282
     The non-local contrib.  to forces
     atom    1 type  1   force =     0.00000000    0.00000000    1.87762817
     atom    2 type  1   force =     0.00000000    0.00000000   -1.87762817
     The ionic contribution  to forces
     atom    1 type  1   force =     0.00000000    0.00000000  -11.55540219
     atom    2 type  1   force =    -0.00000000   -0.00000000   11.55540219
     The local contribution  to forces
     atom    1 type  1   force =     0.00000000    0.00000000    9.62025440
     atom    2 type  1   force =     0.00000000    0.00000000   -9.62025440
     The core correction contribution to forces
     atom    1 type  1   force =     0.00000000    0.00000000   -0.00370300
     atom    2 type  1   force =     0.00000000    0.00000000    0.00370300
     The Hubbard contrib.    to forces
     atom    1 type  1   force =     0.00000000    0.00000000    0.00000000
     atom    2 type  1   force =     0.00000000    0.00000000    0.00000000
     The SCF correction term to forces
     atom    1 type  1   force =    -0.00000000   -0.00000000    0.00006979
     atom    2 type  1   force =    -0.00000000   -0.00000000   -0.00006979

     Total force =     0.086483     Total SCF correction =     0.000099

     BFGS Geometry Optimization

     number of scf cycles    =   1
     number of bfgs steps    =   0

     energy   new            =     -40.2799835060 Ry

     new trust radius        =       0.0611528235 bohr
     new conv_thr            =       0.0000000100 Ry


ATOMIC_POSITIONS (crystal)
N        0.500000000   0.500000000   0.441883932
N        0.500000000   0.500000000   0.558116068


     Check: negative starting charge=(component1):   -0.001500
     NEW-OLD atomic charge density approx. for the potential
     Check: negative starting charge=(component1):   -0.001502

     negative rho (up, down):  1.144E-03 1.144E-03

     total cpu time spent up to now is       20.5 secs

     Self-consistent Calculation

     iteration #  1     ecut=    60.00 Ry     beta= 0.70
     Davidson diagonalization with overlap
     ethr =  1.00E-06,  avg # of iterations =  4.0

     negative rho (up, down):  8.254E-04 8.254E-04

     total cpu time spent up to now is       22.9 secs

     total energy              =     -40.26472273 Ry
     Harris-Foulkes estimate   =     -40.26989264 Ry
     estimated scf accuracy    <       0.00761915 Ry

     total magnetization       =    -0.00 Bohr mag/cell
     absolute magnetization    =     0.00 Bohr mag/cell

     iteration #  2     ecut=    60.00 Ry     beta= 0.70
     Davidson diagonalization with overlap
     ethr =  7.62E-05,  avg # of iterations =  2.0

     negative rho (up, down):  8.314E-04 8.314E-04

     total cpu time spent up to now is       25.8 secs

     total energy              =     -40.26666759 Ry
     Harris-Foulkes estimate   =     -40.26713590 Ry
     estimated scf accuracy    <       0.00081090 Ry

     total magnetization       =    -0.00 Bohr mag/cell
     absolute magnetization    =     0.00 Bohr mag/cell

     iteration #  3     ecut=    60.00 Ry     beta= 0.70
     Davidson diagonalization with overlap
     ethr =  8.11E-06,  avg # of iterations =  2.0

     negative rho (up, down):  8.480E-04 8.480E-04

     total cpu time spent up to now is       27.6 secs

     total energy              =     -40.26682193 Ry
     Harris-Foulkes estimate   =     -40.26682368 Ry
     estimated scf accuracy    <       0.00001239 Ry

     total magnetization       =     0.00 Bohr mag/cell
     absolute magnetization    =     0.00 Bohr mag/cell

     iteration #  4     ecut=    60.00 Ry     beta= 0.70
     Davidson diagonalization with overlap
     ethr =  1.24E-07,  avg # of iterations =  1.0

     negative rho (up, down):  8.499E-04 8.499E-04

     total cpu time spent up to now is       30.1 secs

     total energy              =     -40.26682259 Ry
     Harris-Foulkes estimate   =     -40.26682263 Ry
     estimated scf accuracy    <       0.00000015 Ry

     total magnetization       =     0.00 Bohr mag/cell
     absolute magnetization    =     0.00 Bohr mag/cell

     iteration #  5     ecut=    60.00 Ry     beta= 0.70
     Davidson diagonalization with overlap
     ethr =  1.50E-09,  avg # of iterations =  2.0

     negative rho (up, down):  8.500E-04 8.500E-04

     total cpu time spent up to now is       33.5 secs

     total energy              =     -40.26682261 Ry
     Harris-Foulkes estimate   =     -40.26682262 Ry
     estimated scf accuracy    <       0.00000001 Ry

     total magnetization       =    -0.00 Bohr mag/cell
     absolute magnetization    =     0.00 Bohr mag/cell

     iteration #  6     ecut=    60.00 Ry     beta= 0.70
     Davidson diagonalization with overlap
     ethr =  1.28E-10,  avg # of iterations =  2.0

     negative rho (up, down):  8.500E-04 8.500E-04
 
     Magnetic moment per site:
     atom:    1    charge:    1.5553    magn:    0.0000    constr:    0.0000
     atom:    2    charge:    1.5553    magn:    0.0000    constr:    0.0000

     total cpu time spent up to now is       36.1 secs

     End of self-consistent calculation

 ------ SPIN UP ------------


          k = 0.0000 0.0000 0.0000 ( 52923 PWs)   bands (ev):

   -27.2187 -13.7034 -10.9800 -10.9800  -9.9822  -2.4962  -2.4962  -0.3712
     1.0442

     occupation numbers 
     1.0000   1.0000   1.0000   1.0000   1.0000   0.0000   0.0000   0.0000
     0.0000

 ------ SPIN DOWN ----------


          k = 0.0000 0.0000 0.0000 ( 52923 PWs)   bands (ev):

   -27.2187 -13.7034 -10.9800 -10.9800  -9.9822  -2.4962  -2.4962  -0.3712
     1.0448

     occupation numbers 
     1.0000   1.0000   1.0000   1.0000   1.0000   0.0000   0.0000   0.0000
     0.0000

     the Fermi energy is    -6.0075 ev

!    total energy              =     -40.26682261 Ry
     Harris-Foulkes estimate   =     -40.26682262 Ry
     estimated scf accuracy    <          8.1E-10 Ry

     The total energy is the sum of the following terms:

     one-electron contribution =     -77.62266963 Ry
     hartree contribution      =      39.79838107 Ry
     xc contribution           =     -10.26838120 Ry
     ewald contribution        =       7.82584715 Ry
     smearing contrib. (-TS)   =      -0.00000000 Ry

     total magnetization       =     0.00 Bohr mag/cell
     absolute magnetization    =     0.00 Bohr mag/cell

     convergence has been achieved in   6 iterations

     negative rho (up, down):  8.500E-04 8.500E-04

     Forces acting on atoms (cartesian axes, Ry/au):

     atom    1 type  1   force =     0.00000000    0.00000000    0.25053659
     atom    2 type  1   force =     0.00000000    0.00000000   -0.25053659
     The non-local contrib.  to forces
     atom    1 type  1   force =     0.00000000    0.00000000    1.95614525
     atom    2 type  1   force =     0.00000000    0.00000000   -1.95614525
     The ionic contribution  to forces
     atom    1 type  1   force =    -0.00000000   -0.00000000  -10.29290537
     atom    2 type  1   force =     0.00000000    0.00000000   10.29290537
     The local contribution  to forces
     atom    1 type  1   force =     0.00000000    0.00000000    8.59572561
     atom    2 type  1   force =     0.00000000    0.00000000   -8.59572561
     The core correction contribution to forces
     atom    1 type  1   force =     0.00000000    0.00000000   -0.00836174
     atom    2 type  1   force =     0.00000000    0.00000000    0.00836174
     The Hubbard contrib.    to forces
     atom    1 type  1   force =     0.00000000    0.00000000    0.00000000
     atom    2 type  1   force =     0.00000000    0.00000000    0.00000000
     The SCF correction term to forces
     atom    1 type  1   force =     0.00000000   -0.00000000   -0.00006716
     atom    2 type  1   force =     0.00000000   -0.00000000    0.00006716

     Total force =     0.354312     Total SCF correction =     0.000095

     number of scf cycles    =   2
     number of bfgs steps    =   1

     energy   old            =     -40.2799835060 Ry
     energy   new            =     -40.2668226131 Ry

     CASE: energy  _new > energy  _old

     new trust radius        =       0.0110798796 bohr
     new conv_thr            =       0.0000000100 Ry


ATOMIC_POSITIONS (crystal)
N        0.500000000   0.500000000   0.444533678
N        0.500000000   0.500000000   0.555466322


     Check: negative starting charge=(component1):   -0.001502
     NEW-OLD atomic charge density approx. for the potential
     Check: negative starting charge=(component1):   -0.001503

     negative rho (up, down):  9.708E-04 9.708E-04

     total cpu time spent up to now is       37.7 secs

     Self-consistent Calculation

     iteration #  1     ecut=    60.00 Ry     beta= 0.70
     Davidson diagonalization with overlap
     ethr =  1.00E-06,  avg # of iterations =  4.0

     negative rho (up, down):  8.530E-04 8.530E-04

     total cpu time spent up to now is       42.4 secs

     total energy              =     -40.27923137 Ry
     Harris-Foulkes estimate   =     -40.28258991 Ry
     estimated scf accuracy    <       0.00495407 Ry

     total magnetization       =    -0.00 Bohr mag/cell
     absolute magnetization    =     0.00 Bohr mag/cell

     iteration #  2     ecut=    60.00 Ry     beta= 0.70
     Davidson diagonalization with overlap
     ethr =  4.95E-05,  avg # of iterations =  2.0

     negative rho (up, down):  8.579E-04 8.579E-04

     total cpu time spent up to now is       45.9 secs

     total energy              =     -40.28047187 Ry
     Harris-Foulkes estimate   =     -40.28075905 Ry
     estimated scf accuracy    <       0.00049384 Ry

     total magnetization       =     0.00 Bohr mag/cell
     absolute magnetization    =     0.00 Bohr mag/cell

     iteration #  3     ecut=    60.00 Ry     beta= 0.70
     Davidson diagonalization with overlap
     ethr =  4.94E-06,  avg # of iterations =  2.0

     negative rho (up, down):  8.779E-04 8.779E-04

     total cpu time spent up to now is       49.5 secs

     total energy              =     -40.28056859 Ry
     Harris-Foulkes estimate   =     -40.28056982 Ry
     estimated scf accuracy    <       0.00000755 Ry

     total magnetization       =    -0.00 Bohr mag/cell
     absolute magnetization    =     0.00 Bohr mag/cell

     iteration #  4     ecut=    60.00 Ry     beta= 0.70
     Davidson diagonalization with overlap
     ethr =  7.55E-08,  avg # of iterations =  1.0

     negative rho (up, down):  8.806E-04 8.806E-04

     total cpu time spent up to now is       52.6 secs

     total energy              =     -40.28056905 Ry
     Harris-Foulkes estimate   =     -40.28056906 Ry
     estimated scf accuracy    <       0.00000008 Ry

     total magnetization       =     0.00 Bohr mag/cell
     absolute magnetization    =     0.00 Bohr mag/cell

     iteration #  5     ecut=    60.00 Ry     beta= 0.70
     Davidson diagonalization with overlap
     ethr =  8.36E-10,  avg # of iterations =  2.0

     negative rho (up, down):  8.814E-04 8.814E-04
 
     Magnetic moment per site:
     atom:    1    charge:    1.5901    magn:    0.0000    constr:    0.0000
     atom:    2    charge:    1.5901    magn:    0.0000    constr:    0.0000

     total cpu time spent up to now is       55.4 secs

     End of self-consistent calculation

 ------ SPIN UP ------------


          k = 0.0000 0.0000 0.0000 ( 52923 PWs)   bands (ev):

   -28.0225 -13.3372 -11.3856 -11.3856 -10.0213  -1.9135  -1.9135  -0.3669
     1.0538

     occupation numbers 
     1.0000   1.0000   1.0000   1.0000   1.0000   0.0000   0.0000   0.0000
     0.0000

 ------ SPIN DOWN ----------


          k = 0.0000 0.0000 0.0000 ( 52923 PWs)   bands (ev):

   -28.0225 -13.3372 -11.3856 -11.3856 -10.0213  -1.9135  -1.9135  -0.3669
     1.0547

     occupation numbers 
     1.0000   1.0000   1.0000   1.0000   1.0000   0.0000   0.0000   0.0000
     0.0000

     the Fermi energy is    -6.2010 ev

!    total energy              =     -40.28056906 Ry
     Harris-Foulkes estimate   =     -40.28056907 Ry
     estimated scf accuracy    <          6.6E-09 Ry

     The total energy is the sum of the following terms:

     one-electron contribution =     -79.53872098 Ry
     hartree contribution      =      40.73660676 Ry
     xc contribution           =     -10.38485049 Ry
     ewald contribution        =       8.90639564 Ry
     smearing contrib. (-TS)   =      -0.00000000 Ry

     total magnetization       =    -0.00 Bohr mag/cell
     absolute magnetization    =     0.00 Bohr mag/cell

     convergence has been achieved in   5 iterations

     negative rho (up, down):  8.814E-04 8.814E-04

     Forces acting on atoms (cartesian axes, Ry/au):

     atom    1 type  1   force =     0.00000000    0.00000000    0.00731131
     atom    2 type  1   force =     0.00000000    0.00000000   -0.00731131
     The non-local contrib.  to forces
     atom    1 type  1   force =     0.00000000    0.00000000    1.89674179
     atom    2 type  1   force =     0.00000000    0.00000000   -1.89674179
     The ionic contribution  to forces
     atom    1 type  1   force =     0.00000000    0.00000000  -11.31022918
     atom    2 type  1   force =    -0.00000000   -0.00000000   11.31022918
     The local contribution  to forces
     atom    1 type  1   force =     0.00000000    0.00000000    9.42559315
     atom    2 type  1   force =     0.00000000    0.00000000   -9.42559315
     The core correction contribution to forces
     atom    1 type  1   force =    -0.00000000    0.00000000   -0.00465014
     atom    2 type  1   force =     0.00000000   -0.00000000    0.00465014
     The Hubbard contrib.    to forces
     atom    1 type  1   force =     0.00000000    0.00000000    0.00000000
     atom    2 type  1   force =     0.00000000    0.00000000    0.00000000
     The SCF correction term to forces
     atom    1 type  1   force =     0.00000000    0.00000000   -0.00014431
     atom    2 type  1   force =    -0.00000000    0.00000000    0.00014431

     Total force =     0.010340     Total SCF correction =     0.000204

     number of scf cycles    =   3
     number of bfgs steps    =   1

     energy   old            =     -40.2799835060 Ry
     energy   new            =     -40.2805690561 Ry

     CASE: energy  _new < energy  _old

     new trust radius        =       0.0011832250 bohr
     new conv_thr            =       0.0000000006 Ry


ATOMIC_POSITIONS (crystal)
N        0.500000000   0.500000000   0.444596292
N        0.500000000   0.500000000   0.555403708


     Check: negative starting charge=(component1):   -0.001503
     NEW-OLD atomic charge density approx. for the potential
     Check: negative starting charge=(component1):   -0.001503

     negative rho (up, down):  8.808E-04 8.808E-04

     total cpu time spent up to now is       57.3 secs

     Self-consistent Calculation

     iteration #  1     ecut=    60.00 Ry     beta= 0.70
     Davidson diagonalization with overlap
     ethr =  1.00E-06,  avg # of iterations =  2.0

     Threshold (ethr) on eigenvalues was too large:
     Diagonalizing with lowered threshold

     Davidson diagonalization with overlap
     ethr =  3.16E-08,  avg # of iterations =  1.0

     negative rho (up, down):  8.819E-04 8.819E-04

     total cpu time spent up to now is       62.1 secs

     total energy              =     -40.28057723 Ry
     Harris-Foulkes estimate   =     -40.28057933 Ry
     estimated scf accuracy    <       0.00000309 Ry

     total magnetization       =    -0.00 Bohr mag/cell
     absolute magnetization    =     0.00 Bohr mag/cell

     iteration #  2     ecut=    60.00 Ry     beta= 0.70
     Davidson diagonalization with overlap
     ethr =  3.09E-08,  avg # of iterations =  2.0

     negative rho (up, down):  8.818E-04 8.818E-04

     total cpu time spent up to now is       64.1 secs

     total energy              =     -40.28057802 Ry
     Harris-Foulkes estimate   =     -40.28057820 Ry
     estimated scf accuracy    <       0.00000032 Ry

     total magnetization       =     0.00 Bohr mag/cell
     absolute magnetization    =     0.00 Bohr mag/cell

     iteration #  3     ecut=    60.00 Ry     beta= 0.70
     Davidson diagonalization with overlap
     ethr =  3.16E-09,  avg # of iterations =  2.0

     negative rho (up, down):  8.819E-04 8.819E-04

     total cpu time spent up to now is       65.9 secs

     total energy              =     -40.28057808 Ry
     Harris-Foulkes estimate   =     -40.28057808 Ry
     estimated scf accuracy    <          4.4E-09 Ry

     total magnetization       =    -0.00 Bohr mag/cell
     absolute magnetization    =     0.00 Bohr mag/cell

     iteration #  4     ecut=    60.00 Ry     beta= 0.70
     Davidson diagonalization with overlap
     ethr =  4.44E-11,  avg # of iterations =  1.0

     negative rho (up, down):  8.819E-04 8.819E-04
 
     Magnetic moment per site:
     atom:    1    charge:    1.5909    magn:    0.0000    constr:    0.0000
     atom:    2    charge:    1.5909    magn:    0.0000    constr:    0.0000

     total cpu time spent up to now is       67.8 secs

     End of self-consistent calculation

 ------ SPIN UP ------------


          k = 0.0000 0.0000 0.0000 ( 52923 PWs)   bands (ev):

   -28.0414 -13.3285 -11.3954 -11.3954 -10.0222  -1.8989  -1.8989  -0.3668
     1.0539

     occupation numbers 
     1.0000   1.0000   1.0000   1.0000   1.0000   0.0000   0.0000   0.0000
     0.0000

 ------ SPIN DOWN ----------


          k = 0.0000 0.0000 0.0000 ( 52923 PWs)   bands (ev):

   -28.0414 -13.3285 -11.3954 -11.3954 -10.0222  -1.8989  -1.8989  -0.3668
     1.0549

     occupation numbers 
     1.0000   1.0000   1.0000   1.0000   1.0000   0.0000   0.0000   0.0000
     0.0000

     the Fermi energy is    -6.2056 ev

!    total energy              =     -40.28057808 Ry
     Harris-Foulkes estimate   =     -40.28057808 Ry
     estimated scf accuracy    <          5.0E-11 Ry

     The total energy is the sum of the following terms:

     one-electron contribution =     -79.58553016 Ry
     hartree contribution      =      40.75950996 Ry
     xc contribution           =     -10.38774915 Ry
     ewald contribution        =       8.93319126 Ry
     smearing contrib. (-TS)   =      -0.00000000 Ry

     total magnetization       =     0.00 Bohr mag/cell
     absolute magnetization    =     0.00 Bohr mag/cell

     convergence has been achieved in   4 iterations

     negative rho (up, down):  8.819E-04 8.819E-04

     Forces acting on atoms (cartesian axes, Ry/au):

     atom    1 type  1   force =     0.00000000    0.00000000    0.00028459
     atom    2 type  1   force =     0.00000000    0.00000000   -0.00028459
     The non-local contrib.  to forces
     atom    1 type  1   force =     0.00000000    0.00000000    1.89484348
     atom    2 type  1   force =     0.00000000    0.00000000   -1.89484348
     The ionic contribution  to forces
     atom    1 type  1   force =     0.00000000    0.00000000  -11.33604182
     atom    2 type  1   force =    -0.00000000   -0.00000000   11.33604182
     The local contribution  to forces
     atom    1 type  1   force =     0.00000000    0.00000000    9.44604282
     atom    2 type  1   force =     0.00000000    0.00000000   -9.44604282
     The core correction contribution to forces
     atom    1 type  1   force =     0.00000000    0.00000000   -0.00455223
     atom    2 type  1   force =     0.00000000    0.00000000    0.00455223
     The Hubbard contrib.    to forces
     atom    1 type  1   force =     0.00000000    0.00000000    0.00000000
     atom    2 type  1   force =     0.00000000    0.00000000    0.00000000
     The SCF correction term to forces
     atom    1 type  1   force =    -0.00000000   -0.00000000   -0.00000765
     atom    2 type  1   force =    -0.00000000   -0.00000000    0.00000765

     Total force =     0.000402     Total SCF correction =     0.000011
Begin final coordinates

ATOMIC_POSITIONS (crystal)
N        0.500000000   0.500000000   0.444596292
N        0.500000000   0.500000000   0.555403708
End final coordinates



     lsda relaxation :  a final configuration with zero
                        absolute magnetization has been found

     the program is checking if it is really the minimum energy structure
     by performing a new scf iteration without any "electronic" history

     Initial potential from superposition of free atoms
     Check: negative starting charge=(component1):   -0.000827
     Check: negative starting charge=(component2):   -0.000676

     starting charge    9.99998, renormalised to   10.00000

     negative rho (up, down):  8.267E-04 6.764E-04

     total cpu time spent up to now is       69.1 secs

     Self-consistent Calculation

     iteration #  1     ecut=    60.00 Ry     beta= 0.70
     Davidson diagonalization with overlap
     ethr =  1.00E-06,  avg # of iterations =  8.5

     negative rho (up, down):  3.036E-04 3.519E-04

     total cpu time spent up to now is       73.8 secs

     total energy              =     -40.24995511 Ry
     Harris-Foulkes estimate   =     -40.32895755 Ry
     estimated scf accuracy    <       0.15437540 Ry

     total magnetization       =     0.00 Bohr mag/cell
     absolute magnetization    =     0.06 Bohr mag/cell

     iteration #  2     ecut=    60.00 Ry     beta= 0.70
     Davidson diagonalization with overlap
     ethr =  1.54E-03,  avg # of iterations =  2.0

     negative rho (up, down):  6.272E-04 6.421E-04

     total cpu time spent up to now is       76.2 secs

     total energy              =     -40.27821037 Ry
     Harris-Foulkes estimate   =     -40.28368455 Ry
     estimated scf accuracy    <       0.01228420 Ry

     total magnetization       =     0.00 Bohr mag/cell
     absolute magnetization    =     0.03 Bohr mag/cell

     iteration #  3     ecut=    60.00 Ry     beta= 0.70
     Davidson diagonalization with overlap
     ethr =  1.23E-04,  avg # of iterations =  2.0

     negative rho (up, down):  8.637E-04 8.572E-04

     total cpu time spent up to now is       78.7 secs

     total energy              =     -40.28050981 Ry
     Harris-Foulkes estimate   =     -40.28048895 Ry
     estimated scf accuracy    <       0.00060472 Ry

     total magnetization       =    -0.00 Bohr mag/cell
     absolute magnetization    =     0.01 Bohr mag/cell

     iteration #  4     ecut=    60.00 Ry     beta= 0.70
     Davidson diagonalization with overlap
     ethr =  6.05E-06,  avg # of iterations =  4.0

     negative rho (up, down):  8.829E-04 8.802E-04

     total cpu time spent up to now is       81.2 secs

     total energy              =     -40.28057651 Ry
     Harris-Foulkes estimate   =     -40.28057121 Ry
     estimated scf accuracy    <       0.00000507 Ry

     total magnetization       =     0.00 Bohr mag/cell
     absolute magnetization    =     0.00 Bohr mag/cell

     iteration #  5     ecut=    60.00 Ry     beta= 0.70
     Davidson diagonalization with overlap
     ethr =  5.07E-08,  avg # of iterations =  2.5

     negative rho (up, down):  8.825E-04 8.816E-04

     total cpu time spent up to now is       83.4 secs

     total energy              =     -40.28057803 Ry
     Harris-Foulkes estimate   =     -40.28057791 Ry
     estimated scf accuracy    <       0.00000009 Ry

     total magnetization       =     0.00 Bohr mag/cell
     absolute magnetization    =     0.00 Bohr mag/cell

     iteration #  6     ecut=    60.00 Ry     beta= 0.70
     Davidson diagonalization with overlap
     ethr =  9.37E-10,  avg # of iterations =  2.0

     negative rho (up, down):  8.821E-04 8.820E-04

     total cpu time spent up to now is       85.4 secs

     total energy              =     -40.28057807 Ry
     Harris-Foulkes estimate   =     -40.28057805 Ry
     estimated scf accuracy    <          8.4E-09 Ry

     total magnetization       =     0.00 Bohr mag/cell
     absolute magnetization    =     0.00 Bohr mag/cell

     iteration #  7     ecut=    60.00 Ry     beta= 0.70
     Davidson diagonalization with overlap
     ethr =  8.43E-11,  avg # of iterations =  2.0

     negative rho (up, down):  8.819E-04 8.819E-04
 
     Magnetic moment per site:
     atom:    1    charge:    1.5909    magn:    0.0000    constr:    0.0000
     atom:    2    charge:    1.5909    magn:    0.0000    constr:    0.0000

     total cpu time spent up to now is       87.9 secs

     End of self-consistent calculation

 ------ SPIN UP ------------


          k = 0.0000 0.0000 0.0000 ( 52923 PWs)   bands (ev):

   -28.0414 -13.3285 -11.3954 -11.3954 -10.0222  -1.8989  -1.8989  -0.3668
     1.0526

     occupation numbers 
     1.0000   1.0000   1.0000   1.0000   1.0000   0.0000   0.0000   0.0000
     0.0000

 ------ SPIN DOWN ----------


          k = 0.0000 0.0000 0.0000 ( 52923 PWs)   bands (ev):

   -28.0414 -13.3285 -11.3954 -11.3954 -10.0222  -1.8989  -1.8989  -0.3668
     1.0544

     occupation numbers 
     1.0000   1.0000   1.0000   1.0000   1.0000   0.0000   0.0000   0.0000
     0.0000

     the Fermi energy is    -6.2059 ev

!    total energy              =     -40.28057808 Ry
     Harris-Foulkes estimate   =     -40.28057808 Ry
     estimated scf accuracy    <          1.3E-10 Ry

     The total energy is the sum of the following terms:

     one-electron contribution =     -79.58552772 Ry
     hartree contribution      =      40.75950690 Ry
     xc contribution           =     -10.38774852 Ry
     ewald contribution        =       8.93319126 Ry
     smearing contrib. (-TS)   =      -0.00000000 Ry

     total magnetization       =     0.00 Bohr mag/cell
     absolute magnetization    =     0.00 Bohr mag/cell

     convergence has been achieved in   7 iterations

     negative rho (up, down):  8.819E-04 8.819E-04

     Forces acting on atoms (cartesian axes, Ry/au):

     atom    1 type  1   force =     0.00000000    0.00000000    0.00028602
     atom    2 type  1   force =     0.00000000    0.00000000   -0.00028602
     The non-local contrib.  to forces
     atom    1 type  1   force =     0.00000000    0.00000000    1.89484005
     atom    2 type  1   force =     0.00000000    0.00000000   -1.89484005
     The ionic contribution  to forces
     atom    1 type  1   force =     0.00000000    0.00000000  -11.33604182
     atom    2 type  1   force =    -0.00000000   -0.00000000   11.33604182
     The local contribution  to forces
     atom    1 type  1   force =     0.00000000    0.00000000    9.44604454
     atom    2 type  1   force =     0.00000000    0.00000000   -9.44604454
     The core correction contribution to forces
     atom    1 type  1   force =     0.00000000    0.00000000   -0.00455210
     atom    2 type  1   force =     0.00000000    0.00000000    0.00455210
     The Hubbard contrib.    to forces
     atom    1 type  1   force =     0.00000000    0.00000000    0.00000000
     atom    2 type  1   force =     0.00000000    0.00000000    0.00000000
     The SCF correction term to forces
     atom    1 type  1   force =     0.00000000   -0.00000000   -0.00000464
     atom    2 type  1   force =    -0.00000000   -0.00000000    0.00000464

     Total force =     0.000404     Total SCF correction =     0.000007

     bfgs converged in   4 scf cycles and   2 bfgs steps
     (criteria: energy <  1.0E-04 Ry, force <  1.0E-03 Ry/Bohr)

     End of BFGS Geometry Optimization

     Final energy   =     -40.2805780833 Ry
Begin final coordinates

ATOMIC_POSITIONS (crystal)
N        0.500000000   0.500000000   0.444596292
N        0.500000000   0.500000000   0.555403708
End final coordinates


 
     init_run     :      3.91s CPU      1.89s WALL (       1 calls)
     electrons    :    187.28s CPU     79.71s WALL (       5 calls)
     update_pot   :      3.88s CPU      1.86s WALL (       3 calls)
     forces       :      8.83s CPU      4.04s WALL (       5 calls)

     Called by init_run:
     wfcinit      :      1.13s CPU      0.58s WALL (       1 calls)
     wfcinit:atom :      0.01s CPU      0.00s WALL (       2 calls)
     wfcinit:wfcr :      1.11s CPU      0.57s WALL (       2 calls)
     potinit      :      2.46s CPU      1.02s WALL (       2 calls)
     hinit0       :      0.72s CPU      0.34s WALL (       1 calls)

     Called by electrons:
     c_bands      :    104.83s CPU     43.98s WALL (      29 calls)
     sum_band     :     37.05s CPU     16.25s WALL (      29 calls)
     v_of_rho     :     30.68s CPU     13.17s WALL (      33 calls)
     v_h          :      1.66s CPU      0.71s WALL (      33 calls)
     v_xc         :     32.84s CPU     14.21s WALL (      38 calls)
     newd         :     12.08s CPU      5.20s WALL (      33 calls)
     mix_rho      :      6.54s CPU      2.91s WALL (      29 calls)

     Called by c_bands:
     init_us_2    :      0.78s CPU      0.36s WALL (     128 calls)
     cegterg      :    102.23s CPU     42.89s WALL (      58 calls)

     Called by sum_band:
     sum_band:bec :      0.31s CPU      0.15s WALL (      58 calls)
     addusdens    :      8.50s CPU      3.92s WALL (      29 calls)

     Called by *egterg:
     h_psi        :     89.59s CPU     37.69s WALL (     210 calls)
     s_psi        :      0.23s CPU      0.10s WALL (     210 calls)
     g_psi        :      0.22s CPU      0.10s WALL (     150 calls)
     cdiaghg      :      1.08s CPU      0.46s WALL (     198 calls)
     cegterg:over :      5.08s CPU      2.06s WALL (     150 calls)
     cegterg:upda :      0.61s CPU      0.26s WALL (     150 calls)
     cegterg:last :      0.31s CPU      0.13s WALL (      64 calls)

     Called by h_psi:
     h_psi:pot    :     89.26s CPU     37.52s WALL (     210 calls)
     h_psi:calbec :      4.23s CPU      1.68s WALL (     210 calls)
     vloc_psi     :     84.29s CPU     35.49s WALL (     210 calls)
     add_vuspsi   :      0.74s CPU      0.34s WALL (     210 calls)

     General routines
     calbec       :      6.52s CPU      2.69s WALL (     308 calls)
     fft          :     34.53s CPU     15.25s WALL (     788 calls)
     ffts         :      2.02s CPU      0.90s WALL (      58 calls)
     fftw         :     96.26s CPU     40.60s WALL (    3454 calls)
 
     Parallel routines
     fft_scatt_xy :      5.00s CPU      2.17s WALL (    4300 calls)
     fft_scatt_yz :    108.46s CPU     46.09s WALL (    4300 calls)
 
     PWSCF        :  3m26.39s CPU     1m28.64s WALL

 
   This run was terminated on:  13: 5:32  19Mar2019            

=------------------------------------------------------------------------------=
   JOB DONE.
=------------------------------------------------------------------------------=
