
     Program PWSCF v.6.2 (svn rev. 14038) starts on 30Jan2019 at 19:11: 8 

     This program is part of the open-source Quantum ESPRESSO suite
     for quantum simulation of materials; please cite
         "P. Giannozzi et al., J. Phys.:Condens. Matter 21 395502 (2009);
         "P. Giannozzi et al., J. Phys.:Condens. Matter 29 465901 (2017);
          URL http://www.quantum-espresso.org", 
     in publications or presentations arising from this work. More details at
     http://www.quantum-espresso.org/quote

     Parallel version (MPI), running on     1 processors

     MPI processes distributed on     1 nodes
     Reading input from ./Alkpoint22.in
Warning: card &IONS ignored
Warning: card / ignored
Warning: card &CELL ignored
Warning: card / ignored

     Current dimensions of program PWSCF are:
     Max number of different atomic species (ntypx) = 10
     Max number of k-points (npk) =  40000
     Max angular momentum in pseudopotentials (lmaxx) =  3
     Message from routine iosys:
     minimal I/O required, wf_collect reset to FALSE

     Subspace diagonalization in iterative solution of the eigenvalue problem:
     a serial algorithm will be used

 
     G-vector sticks info
     --------------------
     sticks:   dense  smooth     PW     G-vecs:    dense   smooth      PW
     Sum         283     283    129                 3103     3103     887
 


     bravais-lattice index     =            0
     lattice parameter (alat)  =       5.2705  a.u.
     unit-cell volume          =     112.7033 (a.u.)^3
     number of atoms/cell      =            1
     number of atomic types    =            1
     number of electrons       =         3.00
     number of Kohn-Sham states=            6
     kinetic-energy cutoff     =      35.0000  Ry
     charge density cutoff     =     140.0000  Ry
     convergence threshold     =      1.0E-06
     mixing beta               =       0.7000
     number of iterations used =            8  plain     mixing
     Exchange-correlation      = SLA  PW   PBE  PBE ( 1  4  3  4 0 0)

     celldm(1)=   5.270512  celldm(2)=   0.000000  celldm(3)=   0.000000
     celldm(4)=   0.000000  celldm(5)=   0.000000  celldm(6)=   0.000000

     crystal axes: (cart. coord. in units of alat)
               a(1) = (   0.577350   0.577350   0.577350 )  
               a(2) = (   0.577350  -0.577350  -0.577350 )  
               a(3) = (  -0.577350   0.577350  -0.577350 )  

     reciprocal axes: (cart. coord. in units 2 pi/alat)
               b(1) = (  0.866025  0.866025  0.000000 )  
               b(2) = (  0.866025  0.000000 -0.866025 )  
               b(3) = (  0.000000  0.866025 -0.866025 )  


     PseudoPot. # 1 for Al read from file:
     ./al_pbe_v1.uspp.F.UPF
     MD5 check sum: 0a6289f5291fc8f409219462bc851e1f
     Pseudo is Ultrasoft + core correction, Zval =  3.0
     Generated by new atomic code, or converted to UPF format
     Using radial grid of  893 points,  3 beta functions with: 
                l(1) =   0
                l(2) =   1
                l(3) =   2
     Q(r) pseudized with  8 coefficients,  rinner =    0.900   0.900   0.900
                                                       0.900   0.900

     atomic species   valence    mass     pseudopotential
        Al             3.00    26.98150     Al( 1.00)

     48 Sym. Ops., with inversion, found


                                    s                        frac. trans.

      isym =  1     identity                                     

 cryst.   s( 1) = (     1          0          0      )
                  (     0          1          0      )
                  (     0          0          1      )

 cart.    s( 1) = (  1.0000000  0.0000000  0.0000000 )
                  (  0.0000000  1.0000000  0.0000000 )
                  (  0.0000000  0.0000000  1.0000000 )


      isym =  2     180 deg rotation - cart. axis [0,0,1]        

 cryst.   s( 2) = (    -1         -1         -1      )
                  (     0          0          1      )
                  (     0          1          0      )

 cart.    s( 2) = ( -1.0000000  0.0000000  0.0000000 )
                  (  0.0000000 -1.0000000  0.0000000 )
                  (  0.0000000  0.0000000  1.0000000 )


      isym =  3     180 deg rotation - cart. axis [0,1,0]        

 cryst.   s( 3) = (     0          0          1      )
                  (    -1         -1         -1      )
                  (     1          0          0      )

 cart.    s( 3) = ( -1.0000000  0.0000000  0.0000000 )
                  (  0.0000000  1.0000000  0.0000000 )
                  (  0.0000000  0.0000000 -1.0000000 )


      isym =  4     180 deg rotation - cart. axis [1,0,0]        

 cryst.   s( 4) = (     0          1          0      )
                  (     1          0          0      )
                  (    -1         -1         -1      )

 cart.    s( 4) = (  1.0000000  0.0000000  0.0000000 )
                  (  0.0000000 -1.0000000  0.0000000 )
                  (  0.0000000  0.0000000 -1.0000000 )


      isym =  5     180 deg rotation - cart. axis [1,1,0]        

 cryst.   s( 5) = (     1          1          1      )
                  (     0         -1          0      )
                  (     0          0         -1      )

 cart.    s( 5) = (  0.0000000  1.0000000  0.0000000 )
                  (  1.0000000  0.0000000  0.0000000 )
                  (  0.0000000  0.0000000 -1.0000000 )


      isym =  6     180 deg rotation - cart. axis [1,-1,0]       

 cryst.   s( 6) = (    -1          0          0      )
                  (     0          0         -1      )
                  (     0         -1          0      )

 cart.    s( 6) = (  0.0000000 -1.0000000  0.0000000 )
                  ( -1.0000000  0.0000000  0.0000000 )
                  (  0.0000000  0.0000000 -1.0000000 )


      isym =  7      90 deg rotation - cart. axis [0,0,-1]       

 cryst.   s( 7) = (     0          0         -1      )
                  (    -1          0          0      )
                  (     1          1          1      )

 cart.    s( 7) = (  0.0000000  1.0000000  0.0000000 )
                  ( -1.0000000  0.0000000  0.0000000 )
                  (  0.0000000  0.0000000  1.0000000 )


      isym =  8      90 deg rotation - cart. axis [0,0,1]        

 cryst.   s( 8) = (     0         -1          0      )
                  (     1          1          1      )
                  (    -1          0          0      )

 cart.    s( 8) = (  0.0000000 -1.0000000  0.0000000 )
                  (  1.0000000  0.0000000  0.0000000 )
                  (  0.0000000  0.0000000  1.0000000 )


      isym =  9     180 deg rotation - cart. axis [1,0,1]        

 cryst.   s( 9) = (     0          0         -1      )
                  (     0         -1          0      )
                  (    -1          0          0      )

 cart.    s( 9) = (  0.0000000  0.0000000  1.0000000 )
                  (  0.0000000 -1.0000000  0.0000000 )
                  (  1.0000000  0.0000000  0.0000000 )


      isym = 10     180 deg rotation - cart. axis [-1,0,1]       

 cryst.   s(10) = (    -1          0          0      )
                  (     1          1          1      )
                  (     0          0         -1      )

 cart.    s(10) = (  0.0000000  0.0000000 -1.0000000 )
                  (  0.0000000 -1.0000000  0.0000000 )
                  ( -1.0000000  0.0000000  0.0000000 )


      isym = 11      90 deg rotation - cart. axis [0,1,0]        

 cryst.   s(11) = (     1          1          1      )
                  (    -1          0          0      )
                  (     0         -1          0      )

 cart.    s(11) = (  0.0000000  0.0000000  1.0000000 )
                  (  0.0000000  1.0000000  0.0000000 )
                  ( -1.0000000  0.0000000  0.0000000 )


      isym = 12      90 deg rotation - cart. axis [0,-1,0]       

 cryst.   s(12) = (     0         -1          0      )
                  (     0          0         -1      )
                  (     1          1          1      )

 cart.    s(12) = (  0.0000000  0.0000000 -1.0000000 )
                  (  0.0000000  1.0000000  0.0000000 )
                  (  1.0000000  0.0000000  0.0000000 )


      isym = 13     180 deg rotation - cart. axis [0,1,1]        

 cryst.   s(13) = (     0         -1          0      )
                  (    -1          0          0      )
                  (     0          0         -1      )

 cart.    s(13) = ( -1.0000000  0.0000000  0.0000000 )
                  (  0.0000000  0.0000000  1.0000000 )
                  (  0.0000000  1.0000000  0.0000000 )


      isym = 14     180 deg rotation - cart. axis [0,1,-1]       

 cryst.   s(14) = (    -1          0          0      )
                  (     0         -1          0      )
                  (     1          1          1      )

 cart.    s(14) = ( -1.0000000  0.0000000  0.0000000 )
                  (  0.0000000  0.0000000 -1.0000000 )
                  (  0.0000000 -1.0000000  0.0000000 )


      isym = 15      90 deg rotation - cart. axis [-1,0,0]       

 cryst.   s(15) = (     1          1          1      )
                  (     0          0         -1      )
                  (    -1          0          0      )

 cart.    s(15) = (  1.0000000  0.0000000  0.0000000 )
                  (  0.0000000  0.0000000  1.0000000 )
                  (  0.0000000 -1.0000000  0.0000000 )


      isym = 16      90 deg rotation - cart. axis [1,0,0]        

 cryst.   s(16) = (     0          0         -1      )
                  (     1          1          1      )
                  (     0         -1          0      )

 cart.    s(16) = (  1.0000000  0.0000000  0.0000000 )
                  (  0.0000000  0.0000000 -1.0000000 )
                  (  0.0000000  1.0000000  0.0000000 )


      isym = 17     120 deg rotation - cart. axis [-1,-1,-1]     

 cryst.   s(17) = (     1          0          0      )
                  (    -1         -1         -1      )
                  (     0          1          0      )

 cart.    s(17) = (  0.0000000  1.0000000  0.0000000 )
                  (  0.0000000  0.0000000  1.0000000 )
                  (  1.0000000  0.0000000  0.0000000 )


      isym = 18     120 deg rotation - cart. axis [-1,1,1]       

 cryst.   s(18) = (     0          0          1      )
                  (     0          1          0      )
                  (    -1         -1         -1      )

 cart.    s(18) = (  0.0000000 -1.0000000  0.0000000 )
                  (  0.0000000  0.0000000  1.0000000 )
                  ( -1.0000000  0.0000000  0.0000000 )


      isym = 19     120 deg rotation - cart. axis [1,1,-1]       

 cryst.   s(19) = (     0          1          0      )
                  (     0          0          1      )
                  (     1          0          0      )

 cart.    s(19) = (  0.0000000  1.0000000  0.0000000 )
                  (  0.0000000  0.0000000 -1.0000000 )
                  ( -1.0000000  0.0000000  0.0000000 )


      isym = 20     120 deg rotation - cart. axis [1,-1,1]       

 cryst.   s(20) = (    -1         -1         -1      )
                  (     1          0          0      )
                  (     0          0          1      )

 cart.    s(20) = (  0.0000000 -1.0000000  0.0000000 )
                  (  0.0000000  0.0000000 -1.0000000 )
                  (  1.0000000  0.0000000  0.0000000 )


      isym = 21     120 deg rotation - cart. axis [1,1,1]        

 cryst.   s(21) = (     1          0          0      )
                  (     0          0          1      )
                  (    -1         -1         -1      )

 cart.    s(21) = (  0.0000000  0.0000000  1.0000000 )
                  (  1.0000000  0.0000000  0.0000000 )
                  (  0.0000000  1.0000000  0.0000000 )


      isym = 22     120 deg rotation - cart. axis [-1,1,-1]      

 cryst.   s(22) = (     0          1          0      )
                  (    -1         -1         -1      )
                  (     0          0          1      )

 cart.    s(22) = (  0.0000000  0.0000000  1.0000000 )
                  ( -1.0000000  0.0000000  0.0000000 )
                  (  0.0000000 -1.0000000  0.0000000 )


      isym = 23     120 deg rotation - cart. axis [1,-1,-1]      

 cryst.   s(23) = (    -1         -1         -1      )
                  (     0          1          0      )
                  (     1          0          0      )

 cart.    s(23) = (  0.0000000  0.0000000 -1.0000000 )
                  ( -1.0000000  0.0000000  0.0000000 )
                  (  0.0000000  1.0000000  0.0000000 )


      isym = 24     120 deg rotation - cart. axis [-1,-1,1]      

 cryst.   s(24) = (     0          0          1      )
                  (     1          0          0      )
                  (     0          1          0      )

 cart.    s(24) = (  0.0000000  0.0000000 -1.0000000 )
                  (  1.0000000  0.0000000  0.0000000 )
                  (  0.0000000 -1.0000000  0.0000000 )


      isym = 25     inversion                                    

 cryst.   s(25) = (    -1          0          0      )
                  (     0         -1          0      )
                  (     0          0         -1      )

 cart.    s(25) = ( -1.0000000  0.0000000  0.0000000 )
                  (  0.0000000 -1.0000000  0.0000000 )
                  (  0.0000000  0.0000000 -1.0000000 )


      isym = 26     inv. 180 deg rotation - cart. axis [0,0,1]   

 cryst.   s(26) = (     1          1          1      )
                  (     0          0         -1      )
                  (     0         -1          0      )

 cart.    s(26) = (  1.0000000  0.0000000  0.0000000 )
                  (  0.0000000  1.0000000  0.0000000 )
                  (  0.0000000  0.0000000 -1.0000000 )


      isym = 27     inv. 180 deg rotation - cart. axis [0,1,0]   

 cryst.   s(27) = (     0          0         -1      )
                  (     1          1          1      )
                  (    -1          0          0      )

 cart.    s(27) = (  1.0000000  0.0000000  0.0000000 )
                  (  0.0000000 -1.0000000  0.0000000 )
                  (  0.0000000  0.0000000  1.0000000 )


      isym = 28     inv. 180 deg rotation - cart. axis [1,0,0]   

 cryst.   s(28) = (     0         -1          0      )
                  (    -1          0          0      )
                  (     1          1          1      )

 cart.    s(28) = ( -1.0000000  0.0000000  0.0000000 )
                  (  0.0000000  1.0000000  0.0000000 )
                  (  0.0000000  0.0000000  1.0000000 )


      isym = 29     inv. 180 deg rotation - cart. axis [1,1,0]   

 cryst.   s(29) = (    -1         -1         -1      )
                  (     0          1          0      )
                  (     0          0          1      )

 cart.    s(29) = (  0.0000000 -1.0000000  0.0000000 )
                  ( -1.0000000  0.0000000  0.0000000 )
                  (  0.0000000  0.0000000  1.0000000 )


      isym = 30     inv. 180 deg rotation - cart. axis [1,-1,0]  

 cryst.   s(30) = (     1          0          0      )
                  (     0          0          1      )
                  (     0          1          0      )

 cart.    s(30) = (  0.0000000  1.0000000  0.0000000 )
                  (  1.0000000  0.0000000  0.0000000 )
                  (  0.0000000  0.0000000  1.0000000 )


      isym = 31     inv.  90 deg rotation - cart. axis [0,0,-1]  

 cryst.   s(31) = (     0          0          1      )
                  (     1          0          0      )
                  (    -1         -1         -1      )

 cart.    s(31) = (  0.0000000 -1.0000000  0.0000000 )
                  (  1.0000000  0.0000000  0.0000000 )
                  (  0.0000000  0.0000000 -1.0000000 )


      isym = 32     inv.  90 deg rotation - cart. axis [0,0,1]   

 cryst.   s(32) = (     0          1          0      )
                  (    -1         -1         -1      )
                  (     1          0          0      )

 cart.    s(32) = (  0.0000000  1.0000000  0.0000000 )
                  ( -1.0000000  0.0000000  0.0000000 )
                  (  0.0000000  0.0000000 -1.0000000 )


      isym = 33     inv. 180 deg rotation - cart. axis [1,0,1]   

 cryst.   s(33) = (     0          0          1      )
                  (     0          1          0      )
                  (     1          0          0      )

 cart.    s(33) = (  0.0000000  0.0000000 -1.0000000 )
                  (  0.0000000  1.0000000  0.0000000 )
                  ( -1.0000000  0.0000000  0.0000000 )


      isym = 34     inv. 180 deg rotation - cart. axis [-1,0,1]  

 cryst.   s(34) = (     1          0          0      )
                  (    -1         -1         -1      )
                  (     0          0          1      )

 cart.    s(34) = (  0.0000000  0.0000000  1.0000000 )
                  (  0.0000000  1.0000000  0.0000000 )
                  (  1.0000000  0.0000000  0.0000000 )


      isym = 35     inv.  90 deg rotation - cart. axis [0,1,0]   

 cryst.   s(35) = (    -1         -1         -1      )
                  (     1          0          0      )
                  (     0          1          0      )

 cart.    s(35) = (  0.0000000  0.0000000 -1.0000000 )
                  (  0.0000000 -1.0000000  0.0000000 )
                  (  1.0000000  0.0000000  0.0000000 )


      isym = 36     inv.  90 deg rotation - cart. axis [0,-1,0]  

 cryst.   s(36) = (     0          1          0      )
                  (     0          0          1      )
                  (    -1         -1         -1      )

 cart.    s(36) = (  0.0000000  0.0000000  1.0000000 )
                  (  0.0000000 -1.0000000  0.0000000 )
                  ( -1.0000000  0.0000000  0.0000000 )


      isym = 37     inv. 180 deg rotation - cart. axis [0,1,1]   

 cryst.   s(37) = (     0          1          0      )
                  (     1          0          0      )
                  (     0          0          1      )

 cart.    s(37) = (  1.0000000  0.0000000  0.0000000 )
                  (  0.0000000  0.0000000 -1.0000000 )
                  (  0.0000000 -1.0000000  0.0000000 )


      isym = 38     inv. 180 deg rotation - cart. axis [0,1,-1]  

 cryst.   s(38) = (     1          0          0      )
                  (     0          1          0      )
                  (    -1         -1         -1      )

 cart.    s(38) = (  1.0000000  0.0000000  0.0000000 )
                  (  0.0000000  0.0000000  1.0000000 )
                  (  0.0000000  1.0000000  0.0000000 )


      isym = 39     inv.  90 deg rotation - cart. axis [-1,0,0]  

 cryst.   s(39) = (    -1         -1         -1      )
                  (     0          0          1      )
                  (     1          0          0      )

 cart.    s(39) = ( -1.0000000  0.0000000  0.0000000 )
                  (  0.0000000  0.0000000 -1.0000000 )
                  (  0.0000000  1.0000000  0.0000000 )


      isym = 40     inv.  90 deg rotation - cart. axis [1,0,0]   

 cryst.   s(40) = (     0          0          1      )
                  (    -1         -1         -1      )
                  (     0          1          0      )

 cart.    s(40) = ( -1.0000000  0.0000000  0.0000000 )
                  (  0.0000000  0.0000000  1.0000000 )
                  (  0.0000000 -1.0000000  0.0000000 )


      isym = 41     inv. 120 deg rotation - cart. axis [-1,-1,-1]

 cryst.   s(41) = (    -1          0          0      )
                  (     1          1          1      )
                  (     0         -1          0      )

 cart.    s(41) = (  0.0000000 -1.0000000  0.0000000 )
                  (  0.0000000  0.0000000 -1.0000000 )
                  ( -1.0000000  0.0000000  0.0000000 )


      isym = 42     inv. 120 deg rotation - cart. axis [-1,1,1]  

 cryst.   s(42) = (     0          0         -1      )
                  (     0         -1          0      )
                  (     1          1          1      )

 cart.    s(42) = (  0.0000000  1.0000000  0.0000000 )
                  (  0.0000000  0.0000000 -1.0000000 )
                  (  1.0000000  0.0000000  0.0000000 )


      isym = 43     inv. 120 deg rotation - cart. axis [1,1,-1]  

 cryst.   s(43) = (     0         -1          0      )
                  (     0          0         -1      )
                  (    -1          0          0      )

 cart.    s(43) = (  0.0000000 -1.0000000  0.0000000 )
                  (  0.0000000  0.0000000  1.0000000 )
                  (  1.0000000  0.0000000  0.0000000 )


      isym = 44     inv. 120 deg rotation - cart. axis [1,-1,1]  

 cryst.   s(44) = (     1          1          1      )
                  (    -1          0          0      )
                  (     0          0         -1      )

 cart.    s(44) = (  0.0000000  1.0000000  0.0000000 )
                  (  0.0000000  0.0000000  1.0000000 )
                  ( -1.0000000  0.0000000  0.0000000 )


      isym = 45     inv. 120 deg rotation - cart. axis [1,1,1]   

 cryst.   s(45) = (    -1          0          0      )
                  (     0          0         -1      )
                  (     1          1          1      )

 cart.    s(45) = (  0.0000000  0.0000000 -1.0000000 )
                  ( -1.0000000  0.0000000  0.0000000 )
                  (  0.0000000 -1.0000000  0.0000000 )


      isym = 46     inv. 120 deg rotation - cart. axis [-1,1,-1] 

 cryst.   s(46) = (     0         -1          0      )
                  (     1          1          1      )
                  (     0          0         -1      )

 cart.    s(46) = (  0.0000000  0.0000000 -1.0000000 )
                  (  1.0000000  0.0000000  0.0000000 )
                  (  0.0000000  1.0000000  0.0000000 )


      isym = 47     inv. 120 deg rotation - cart. axis [1,-1,-1] 

 cryst.   s(47) = (     1          1          1      )
                  (     0         -1          0      )
                  (    -1          0          0      )

 cart.    s(47) = (  0.0000000  0.0000000  1.0000000 )
                  (  1.0000000  0.0000000  0.0000000 )
                  (  0.0000000 -1.0000000  0.0000000 )


      isym = 48     inv. 120 deg rotation - cart. axis [-1,-1,1] 

 cryst.   s(48) = (     0          0         -1      )
                  (    -1          0          0      )
                  (     0         -1          0      )

 cart.    s(48) = (  0.0000000  0.0000000  1.0000000 )
                  ( -1.0000000  0.0000000  0.0000000 )
                  (  0.0000000  1.0000000  0.0000000 )


   Cartesian axes

     site n.     atom                  positions (alat units)
         1           Al  tau(   1) = (   0.0000000   0.0000000   0.0000000  )

   Crystallographic axes

     site n.     atom                  positions (cryst. coord.)
         1           Al  tau(   1) = (  0.0000000  0.0000000  0.0000000  )

     number of k points=   328  Marzari-Vanderbilt smearing, width (Ry)=  0.0100
                       cart. coord. in units 2pi/alat
        k(    1) = (   0.0000000   0.0000000   0.0000000), wk =   0.0001878
        k(    2) = (   0.0000000   0.0393648  -0.0393648), wk =   0.0022539
        k(    3) = (   0.0000000   0.0787296  -0.0787296), wk =   0.0022539
        k(    4) = (   0.0000000   0.1180944  -0.1180944), wk =   0.0022539
        k(    5) = (   0.0000000   0.1574592  -0.1574592), wk =   0.0022539
        k(    6) = (   0.0000000   0.1968240  -0.1968240), wk =   0.0022539
        k(    7) = (   0.0000000   0.2361887  -0.2361887), wk =   0.0022539
        k(    8) = (   0.0000000   0.2755535  -0.2755535), wk =   0.0022539
        k(    9) = (   0.0000000   0.3149183  -0.3149183), wk =   0.0022539
        k(   10) = (   0.0000000   0.3542831  -0.3542831), wk =   0.0022539
        k(   11) = (   0.0000000   0.3936479  -0.3936479), wk =   0.0022539
        k(   12) = (   0.0000000  -0.4330127   0.4330127), wk =   0.0011270
        k(   13) = (   0.0393648   0.0393648  -0.0787296), wk =   0.0045079
        k(   14) = (   0.0393648   0.0787296  -0.1180944), wk =   0.0090158
        k(   15) = (   0.0393648   0.1180944  -0.1574592), wk =   0.0090158
        k(   16) = (   0.0393648   0.1574592  -0.1968240), wk =   0.0090158
        k(   17) = (   0.0393648   0.1968240  -0.2361887), wk =   0.0090158
        k(   18) = (   0.0393648   0.2361887  -0.2755535), wk =   0.0090158
        k(   19) = (   0.0393648   0.2755535  -0.3149183), wk =   0.0090158
        k(   20) = (   0.0393648   0.3149183  -0.3542831), wk =   0.0090158
        k(   21) = (   0.0393648   0.3542831  -0.3936479), wk =   0.0090158
        k(   22) = (   0.0393648   0.3936479  -0.4330127), wk =   0.0090158
        k(   23) = (   0.0787296   0.0787296  -0.1574592), wk =   0.0045079
        k(   24) = (   0.0787296   0.1180944  -0.1968240), wk =   0.0090158
        k(   25) = (   0.0787296   0.1574592  -0.2361887), wk =   0.0090158
        k(   26) = (   0.0787296   0.1968240  -0.2755535), wk =   0.0090158
        k(   27) = (   0.0787296   0.2361887  -0.3149183), wk =   0.0090158
        k(   28) = (   0.0787296   0.2755535  -0.3542831), wk =   0.0090158
        k(   29) = (   0.0787296   0.3149183  -0.3936479), wk =   0.0090158
        k(   30) = (   0.0787296   0.3542831  -0.4330127), wk =   0.0090158
        k(   31) = (   0.0787296   0.3936479  -0.4723775), wk =   0.0045079
        k(   32) = (   0.1180944   0.1180944  -0.2361887), wk =   0.0045079
        k(   33) = (   0.1180944   0.1574592  -0.2755535), wk =   0.0090158
        k(   34) = (   0.1180944   0.1968240  -0.3149183), wk =   0.0090158
        k(   35) = (   0.1180944   0.2361887  -0.3542831), wk =   0.0090158
        k(   36) = (   0.1180944   0.2755535  -0.3936479), wk =   0.0090158
        k(   37) = (   0.1180944   0.3149183  -0.4330127), wk =   0.0090158
        k(   38) = (   0.1180944   0.3542831  -0.4723775), wk =   0.0090158
        k(   39) = (   0.1574592   0.1574592  -0.3149183), wk =   0.0045079
        k(   40) = (   0.1574592   0.1968240  -0.3542831), wk =   0.0090158
        k(   41) = (   0.1574592   0.2361887  -0.3936479), wk =   0.0090158
        k(   42) = (   0.1574592   0.2755535  -0.4330127), wk =   0.0090158
        k(   43) = (   0.1574592   0.3149183  -0.4723775), wk =   0.0090158
        k(   44) = (   0.1574592   0.3542831  -0.5117423), wk =   0.0045079
        k(   45) = (   0.1968240   0.1968240  -0.3936479), wk =   0.0045079
        k(   46) = (   0.1968240   0.2361887  -0.4330127), wk =   0.0090158
        k(   47) = (   0.1968240   0.2755535  -0.4723775), wk =   0.0090158
        k(   48) = (   0.1968240   0.3149183  -0.5117423), wk =   0.0090158
        k(   49) = (   0.2361887   0.2361887  -0.4723775), wk =   0.0045079
        k(   50) = (   0.2361887   0.2755535  -0.5117423), wk =   0.0090158
        k(   51) = (   0.2361887   0.3149183  -0.5511071), wk =   0.0045079
        k(   52) = (   0.2755535   0.2755535  -0.5511071), wk =   0.0045079
        k(   53) = (   0.0787296   0.0787296  -0.0787296), wk =   0.0015026
        k(   54) = (   0.0787296   0.1180944  -0.1180944), wk =   0.0045079
        k(   55) = (   0.0787296   0.1574592  -0.1574592), wk =   0.0045079
        k(   56) = (   0.0787296   0.1968240  -0.1968240), wk =   0.0045079
        k(   57) = (   0.0787296   0.2361887  -0.2361887), wk =   0.0045079
        k(   58) = (   0.0787296   0.2755535  -0.2755535), wk =   0.0045079
        k(   59) = (   0.0787296   0.3149183  -0.3149183), wk =   0.0045079
        k(   60) = (   0.0787296   0.3542831  -0.3542831), wk =   0.0045079
        k(   61) = (   0.0787296   0.3936479  -0.3936479), wk =   0.0045079
        k(   62) = (   0.0787296   0.4330127  -0.4330127), wk =   0.0022539
        k(   63) = (   0.0787296   0.0000000  -0.0000000), wk =   0.0011270
        k(   64) = (   0.1180944   0.1180944  -0.1574592), wk =   0.0045079
        k(   65) = (   0.1180944   0.1574592  -0.1968240), wk =   0.0090158
        k(   66) = (   0.1180944   0.1968240  -0.2361887), wk =   0.0090158
        k(   67) = (   0.1180944   0.2361887  -0.2755535), wk =   0.0090158
        k(   68) = (   0.1180944   0.2755535  -0.3149183), wk =   0.0090158
        k(   69) = (   0.1180944   0.3149183  -0.3542831), wk =   0.0090158
        k(   70) = (   0.1180944   0.3542831  -0.3936479), wk =   0.0090158
        k(   71) = (   0.1180944   0.3936479  -0.4330127), wk =   0.0090158
        k(   72) = (   0.1180944  -0.0393648   0.0000000), wk =   0.0045079
        k(   73) = (   0.1574592   0.1574592  -0.2361887), wk =   0.0045079
        k(   74) = (   0.1574592   0.1968240  -0.2755535), wk =   0.0090158
        k(   75) = (   0.1574592   0.2361887  -0.3149183), wk =   0.0090158
        k(   76) = (   0.1574592   0.2755535  -0.3542831), wk =   0.0090158
        k(   77) = (   0.1574592   0.3149183  -0.3936479), wk =   0.0090158
        k(   78) = (   0.1574592   0.3542831  -0.4330127), wk =   0.0090158
        k(   79) = (   0.1574592   0.3936479  -0.4723775), wk =   0.0045079
        k(   80) = (   0.1574592  -0.0787296   0.0000000), wk =   0.0045079
        k(   81) = (   0.1574592  -0.0393648  -0.0393648), wk =   0.0045079
        k(   82) = (   0.1968240   0.1968240  -0.3149183), wk =   0.0045079
        k(   83) = (   0.1968240   0.2361887  -0.3542831), wk =   0.0090158
        k(   84) = (   0.1968240   0.2755535  -0.3936479), wk =   0.0090158
        k(   85) = (   0.1968240   0.3149183  -0.4330127), wk =   0.0090158
        k(   86) = (   0.1968240   0.3542831  -0.4723775), wk =   0.0090158
        k(   87) = (   0.1968240  -0.1180944  -0.0000000), wk =   0.0045079
        k(   88) = (   0.1968240  -0.0787296  -0.0393648), wk =   0.0090158
        k(   89) = (   0.2361887   0.2361887  -0.3936479), wk =   0.0045079
        k(   90) = (   0.2361887   0.2755535  -0.4330127), wk =   0.0090158
        k(   91) = (   0.2361887   0.3149183  -0.4723775), wk =   0.0090158
        k(   92) = (   0.2361887   0.3542831  -0.5117423), wk =   0.0045079
        k(   93) = (   0.2361887  -0.1574592   0.0000000), wk =   0.0045079
        k(   94) = (   0.2361887  -0.1180944  -0.0393648), wk =   0.0090158
        k(   95) = (   0.2361887  -0.0787296  -0.0787296), wk =   0.0045079
        k(   96) = (   0.2755535   0.2755535  -0.4723775), wk =   0.0045079
        k(   97) = (   0.2755535   0.3149183  -0.5117423), wk =   0.0090158
        k(   98) = (   0.2755535  -0.1968240   0.0000000), wk =   0.0045079
        k(   99) = (   0.2755535  -0.1574592  -0.0393648), wk =   0.0090158
        k(  100) = (   0.2755535  -0.1180944  -0.0787296), wk =   0.0090158
        k(  101) = (   0.3149183   0.3149183  -0.5511071), wk =   0.0015026
        k(  102) = (   0.3149183  -0.2361887   0.0000000), wk =   0.0045079
        k(  103) = (   0.3149183  -0.1968240  -0.0393648), wk =   0.0090158
        k(  104) = (   0.3149183  -0.1574592  -0.0787296), wk =   0.0090158
        k(  105) = (   0.3149183  -0.1180944  -0.1180944), wk =   0.0045079
        k(  106) = (   0.3542831  -0.2755535   0.0000000), wk =   0.0045079
        k(  107) = (   0.3542831  -0.2361887  -0.0393648), wk =   0.0090158
        k(  108) = (   0.3542831  -0.1968240  -0.0787296), wk =   0.0090158
        k(  109) = (   0.3542831  -0.1574592  -0.1180944), wk =   0.0090158
        k(  110) = (   0.3936479  -0.3149183   0.0000000), wk =   0.0045079
        k(  111) = (   0.3936479  -0.2755535  -0.0393648), wk =   0.0090158
        k(  112) = (   0.3936479  -0.2361887  -0.0787296), wk =   0.0090158
        k(  113) = (   0.3936479  -0.1968240  -0.1180944), wk =   0.0090158
        k(  114) = (   0.3936479  -0.1574592  -0.1574592), wk =   0.0045079
        k(  115) = (   0.4330127  -0.3542831   0.0000000), wk =   0.0045079
        k(  116) = (   0.4330127  -0.3149183  -0.0393648), wk =   0.0090158
        k(  117) = (   0.4330127  -0.2755535  -0.0787296), wk =   0.0090158
        k(  118) = (   0.4330127  -0.2361887  -0.1180944), wk =   0.0090158
        k(  119) = (   0.4330127  -0.1968240  -0.1574592), wk =   0.0090158
        k(  120) = (  -0.3936479  -0.3936479   0.8660254), wk =   0.0022539
        k(  121) = (  -0.3936479  -0.3542831   0.8266606), wk =   0.0090158
        k(  122) = (  -0.3936479  -0.3149183   0.7872958), wk =   0.0090158
        k(  123) = (  -0.3936479  -0.2755535   0.7479310), wk =   0.0090158
        k(  124) = (  -0.3936479  -0.2361887   0.7085662), wk =   0.0090158
        k(  125) = (  -0.3936479  -0.1968240   0.6692014), wk =   0.0045079
        k(  126) = (  -0.3542831  -0.3542831   0.7872958), wk =   0.0045079
        k(  127) = (  -0.3542831  -0.3149183   0.7479310), wk =   0.0090158
        k(  128) = (  -0.3542831  -0.2755535   0.7085662), wk =   0.0090158
        k(  129) = (  -0.3542831  -0.2361887   0.6692014), wk =   0.0090158
        k(  130) = (  -0.3149183  -0.3149183   0.7085662), wk =   0.0045079
        k(  131) = (  -0.3149183  -0.2755535   0.6692014), wk =   0.0090158
        k(  132) = (  -0.3149183  -0.2361887   0.6298367), wk =   0.0045079
        k(  133) = (  -0.2755535  -0.2755535   0.6298367), wk =   0.0045079
        k(  134) = (   0.1574592   0.1574592  -0.1574592), wk =   0.0015026
        k(  135) = (   0.1574592   0.1968240  -0.1968240), wk =   0.0045079
        k(  136) = (   0.1574592   0.2361887  -0.2361887), wk =   0.0045079
        k(  137) = (   0.1574592   0.2755535  -0.2755535), wk =   0.0045079
        k(  138) = (   0.1574592   0.3149183  -0.3149183), wk =   0.0045079
        k(  139) = (   0.1574592   0.3542831  -0.3542831), wk =   0.0045079
        k(  140) = (   0.1574592   0.3936479  -0.3936479), wk =   0.0045079
        k(  141) = (   0.1574592   0.4330127  -0.4330127), wk =   0.0022539
        k(  142) = (   0.1574592  -0.0000000   0.0000000), wk =   0.0011270
        k(  143) = (   0.1968240   0.1968240  -0.2361887), wk =   0.0045079
        k(  144) = (   0.1968240   0.2361887  -0.2755535), wk =   0.0090158
        k(  145) = (   0.1968240   0.2755535  -0.3149183), wk =   0.0090158
        k(  146) = (   0.1968240   0.3149183  -0.3542831), wk =   0.0090158
        k(  147) = (   0.1968240   0.3542831  -0.3936479), wk =   0.0090158
        k(  148) = (   0.1968240   0.3936479  -0.4330127), wk =   0.0090158
        k(  149) = (   0.1968240  -0.0393648   0.0000000), wk =   0.0045079
        k(  150) = (   0.2361887   0.2361887  -0.3149183), wk =   0.0045079
        k(  151) = (   0.2361887   0.2755535  -0.3542831), wk =   0.0090158
        k(  152) = (   0.2361887   0.3149183  -0.3936479), wk =   0.0090158
        k(  153) = (   0.2361887   0.3542831  -0.4330127), wk =   0.0090158
        k(  154) = (   0.2361887   0.3936479  -0.4723775), wk =   0.0045079
        k(  155) = (   0.2361887  -0.0787296  -0.0000000), wk =   0.0045079
        k(  156) = (   0.2361887  -0.0393648  -0.0393648), wk =   0.0045079
        k(  157) = (   0.2755535   0.2755535  -0.3936479), wk =   0.0045079
        k(  158) = (   0.2755535   0.3149183  -0.4330127), wk =   0.0090158
        k(  159) = (   0.2755535   0.3542831  -0.4723775), wk =   0.0090158
        k(  160) = (   0.2755535  -0.1180944   0.0000000), wk =   0.0045079
        k(  161) = (   0.2755535  -0.0787296  -0.0393648), wk =   0.0090158
        k(  162) = (   0.3149183   0.3149183  -0.4723775), wk =   0.0045079
        k(  163) = (   0.3149183   0.3542831  -0.5117423), wk =   0.0045079
        k(  164) = (   0.3149183  -0.1574592   0.0000000), wk =   0.0045079
        k(  165) = (   0.3149183  -0.1180944  -0.0393648), wk =   0.0090158
        k(  166) = (   0.3149183  -0.0787296  -0.0787296), wk =   0.0045079
        k(  167) = (   0.3542831  -0.1968240   0.0000000), wk =   0.0045079
        k(  168) = (   0.3542831  -0.1574592  -0.0393648), wk =   0.0090158
        k(  169) = (   0.3542831  -0.1180944  -0.0787296), wk =   0.0090158
        k(  170) = (   0.3936479  -0.2361887   0.0000000), wk =   0.0045079
        k(  171) = (   0.3936479  -0.1968240  -0.0393648), wk =   0.0090158
        k(  172) = (   0.3936479  -0.1574592  -0.0787296), wk =   0.0090158
        k(  173) = (   0.3936479  -0.1180944  -0.1180944), wk =   0.0045079
        k(  174) = (   0.4330127  -0.2755535   0.0000000), wk =   0.0045079
        k(  175) = (   0.4330127  -0.2361887  -0.0393648), wk =   0.0090158
        k(  176) = (   0.4330127  -0.1968240  -0.0787296), wk =   0.0090158
        k(  177) = (   0.4330127  -0.1574592  -0.1180944), wk =   0.0090158
        k(  178) = (   0.4723775  -0.3149183   0.0000000), wk =   0.0045079
        k(  179) = (   0.4723775  -0.2755535  -0.0393648), wk =   0.0090158
        k(  180) = (   0.4723775  -0.2361887  -0.0787296), wk =   0.0090158
        k(  181) = (   0.4723775  -0.1968240  -0.1180944), wk =   0.0090158
        k(  182) = (   0.4723775  -0.1574592  -0.1574592), wk =   0.0045079
        k(  183) = (  -0.3542831  -0.3542831   0.8660254), wk =   0.0022539
        k(  184) = (  -0.3542831  -0.3149183   0.8266606), wk =   0.0090158
        k(  185) = (  -0.3542831  -0.2755535   0.7872958), wk =   0.0090158
        k(  186) = (  -0.3542831  -0.2361887   0.7479310), wk =   0.0090158
        k(  187) = (  -0.3542831  -0.1968240   0.7085662), wk =   0.0090158
        k(  188) = (  -0.3149183  -0.3149183   0.7872958), wk =   0.0045079
        k(  189) = (  -0.3149183  -0.2755535   0.7479310), wk =   0.0090158
        k(  190) = (  -0.3149183  -0.2361887   0.7085662), wk =   0.0090158
        k(  191) = (  -0.3149183  -0.1968240   0.6692014), wk =   0.0045079
        k(  192) = (  -0.2755535  -0.2755535   0.7085662), wk =   0.0045079
        k(  193) = (  -0.2755535  -0.2361887   0.6692014), wk =   0.0090158
        k(  194) = (  -0.2361887  -0.2361887   0.6298367), wk =   0.0015026
        k(  195) = (   0.2361887   0.2361887  -0.2361887), wk =   0.0015026
        k(  196) = (   0.2361887   0.2755535  -0.2755535), wk =   0.0045079
        k(  197) = (   0.2361887   0.3149183  -0.3149183), wk =   0.0045079
        k(  198) = (   0.2361887   0.3542831  -0.3542831), wk =   0.0045079
        k(  199) = (   0.2361887   0.3936479  -0.3936479), wk =   0.0045079
        k(  200) = (   0.2361887   0.4330127  -0.4330127), wk =   0.0022539
        k(  201) = (   0.2361887   0.0000000   0.0000000), wk =   0.0011270
        k(  202) = (   0.2755535   0.2755535  -0.3149183), wk =   0.0045079
        k(  203) = (   0.2755535   0.3149183  -0.3542831), wk =   0.0090158
        k(  204) = (   0.2755535   0.3542831  -0.3936479), wk =   0.0090158
        k(  205) = (   0.2755535   0.3936479  -0.4330127), wk =   0.0090158
        k(  206) = (   0.2755535  -0.0393648  -0.0000000), wk =   0.0045079
        k(  207) = (   0.3149183   0.3149183  -0.3936479), wk =   0.0045079
        k(  208) = (   0.3149183   0.3542831  -0.4330127), wk =   0.0090158
        k(  209) = (   0.3149183   0.3936479  -0.4723775), wk =   0.0045079
        k(  210) = (   0.3149183  -0.0787296   0.0000000), wk =   0.0045079
        k(  211) = (   0.3149183  -0.0393648  -0.0393648), wk =   0.0045079
        k(  212) = (   0.3542831   0.3542831  -0.4723775), wk =   0.0045079
        k(  213) = (   0.3542831  -0.1180944   0.0000000), wk =   0.0045079
        k(  214) = (   0.3542831  -0.0787296  -0.0393648), wk =   0.0090158
        k(  215) = (   0.3936479  -0.1574592   0.0000000), wk =   0.0045079
        k(  216) = (   0.3936479  -0.1180944  -0.0393648), wk =   0.0090158
        k(  217) = (   0.3936479  -0.0787296  -0.0787296), wk =   0.0045079
        k(  218) = (   0.4330127  -0.1968240   0.0000000), wk =   0.0045079
        k(  219) = (   0.4330127  -0.1574592  -0.0393648), wk =   0.0090158
        k(  220) = (   0.4330127  -0.1180944  -0.0787296), wk =   0.0090158
        k(  221) = (   0.4723775  -0.2361887   0.0000000), wk =   0.0045079
        k(  222) = (   0.4723775  -0.1968240  -0.0393648), wk =   0.0090158
        k(  223) = (   0.4723775  -0.1574592  -0.0787296), wk =   0.0090158
        k(  224) = (   0.4723775  -0.1180944  -0.1180944), wk =   0.0045079
        k(  225) = (   0.5117423  -0.2755535   0.0000000), wk =   0.0045079
        k(  226) = (   0.5117423  -0.2361887  -0.0393648), wk =   0.0090158
        k(  227) = (   0.5117423  -0.1968240  -0.0787296), wk =   0.0090158
        k(  228) = (   0.5117423  -0.1574592  -0.1180944), wk =   0.0090158
        k(  229) = (  -0.3149183  -0.3149183   0.8660254), wk =   0.0022539
        k(  230) = (  -0.3149183  -0.2755535   0.8266606), wk =   0.0090158
        k(  231) = (  -0.3149183  -0.2361887   0.7872958), wk =   0.0090158
        k(  232) = (  -0.3149183  -0.1968240   0.7479310), wk =   0.0090158
        k(  233) = (  -0.3149183  -0.1574592   0.7085662), wk =   0.0045079
        k(  234) = (  -0.2755535  -0.2755535   0.7872958), wk =   0.0045079
        k(  235) = (  -0.2755535  -0.2361887   0.7479310), wk =   0.0090158
        k(  236) = (  -0.2755535  -0.1968240   0.7085662), wk =   0.0090158
        k(  237) = (  -0.2361887  -0.2361887   0.7085662), wk =   0.0045079
        k(  238) = (  -0.2361887  -0.1968240   0.6692014), wk =   0.0045079
        k(  239) = (   0.3149183   0.3149183  -0.3149183), wk =   0.0015026
        k(  240) = (   0.3149183   0.3542831  -0.3542831), wk =   0.0045079
        k(  241) = (   0.3149183   0.3936479  -0.3936479), wk =   0.0045079
        k(  242) = (   0.3149183   0.4330127  -0.4330127), wk =   0.0022539
        k(  243) = (   0.3149183   0.0000000  -0.0000000), wk =   0.0011270
        k(  244) = (   0.3542831   0.3542831  -0.3936479), wk =   0.0045079
        k(  245) = (   0.3542831   0.3936479  -0.4330127), wk =   0.0090158
        k(  246) = (   0.3542831  -0.0393648   0.0000000), wk =   0.0045079
        k(  247) = (   0.3936479   0.3936479  -0.4723775), wk =   0.0015026
        k(  248) = (   0.3936479  -0.0787296   0.0000000), wk =   0.0045079
        k(  249) = (   0.3936479  -0.0393648  -0.0393648), wk =   0.0045079
        k(  250) = (   0.4330127  -0.1180944   0.0000000), wk =   0.0045079
        k(  251) = (   0.4330127  -0.0787296  -0.0393648), wk =   0.0090158
        k(  252) = (   0.4723775  -0.1574592   0.0000000), wk =   0.0045079
        k(  253) = (   0.4723775  -0.1180944  -0.0393648), wk =   0.0090158
        k(  254) = (   0.4723775  -0.0787296  -0.0787296), wk =   0.0045079
        k(  255) = (   0.5117423  -0.1968240   0.0000000), wk =   0.0045079
        k(  256) = (   0.5117423  -0.1574592  -0.0393648), wk =   0.0090158
        k(  257) = (   0.5117423  -0.1180944  -0.0787296), wk =   0.0090158
        k(  258) = (   0.5511071  -0.2361887   0.0000000), wk =   0.0045079
        k(  259) = (   0.5511071  -0.1968240  -0.0393648), wk =   0.0090158
        k(  260) = (   0.5511071  -0.1574592  -0.0787296), wk =   0.0090158
        k(  261) = (   0.5511071  -0.1180944  -0.1180944), wk =   0.0045079
        k(  262) = (  -0.2755535  -0.2755535   0.8660254), wk =   0.0022539
        k(  263) = (  -0.2755535  -0.2361887   0.8266606), wk =   0.0090158
        k(  264) = (  -0.2755535  -0.1968240   0.7872958), wk =   0.0090158
        k(  265) = (  -0.2755535  -0.1574592   0.7479310), wk =   0.0090158
        k(  266) = (  -0.2361887  -0.2361887   0.7872958), wk =   0.0045079
        k(  267) = (  -0.2361887  -0.1968240   0.7479310), wk =   0.0090158
        k(  268) = (  -0.2361887  -0.1574592   0.7085662), wk =   0.0045079
        k(  269) = (  -0.1968240  -0.1968240   0.7085662), wk =   0.0045079
        k(  270) = (   0.3936479   0.3936479  -0.3936479), wk =   0.0015026
        k(  271) = (   0.3936479   0.4330127  -0.4330127), wk =   0.0022539
        k(  272) = (   0.3936479  -0.0000000   0.0000000), wk =   0.0011270
        k(  273) = (   0.4330127  -0.0393648   0.0000000), wk =   0.0045079
        k(  274) = (   0.4723775  -0.0787296   0.0000000), wk =   0.0045079
        k(  275) = (   0.4723775  -0.0393648  -0.0393648), wk =   0.0045079
        k(  276) = (   0.5117423  -0.1180944   0.0000000), wk =   0.0045079
        k(  277) = (   0.5117423  -0.0787296  -0.0393648), wk =   0.0090158
        k(  278) = (   0.5511071  -0.1574592   0.0000000), wk =   0.0045079
        k(  279) = (   0.5511071  -0.1180944  -0.0393648), wk =   0.0090158
        k(  280) = (   0.5511071  -0.0787296  -0.0787296), wk =   0.0045079
        k(  281) = (   0.5904719  -0.1968240   0.0000000), wk =   0.0045079
        k(  282) = (   0.5904719  -0.1574592  -0.0393648), wk =   0.0090158
        k(  283) = (   0.5904719  -0.1180944  -0.0787296), wk =   0.0090158
        k(  284) = (  -0.2361887  -0.2361887   0.8660254), wk =   0.0022539
        k(  285) = (  -0.2361887  -0.1968240   0.8266606), wk =   0.0090158
        k(  286) = (  -0.2361887  -0.1574592   0.7872958), wk =   0.0090158
        k(  287) = (  -0.2361887  -0.1180944   0.7479310), wk =   0.0045079
        k(  288) = (  -0.1968240  -0.1968240   0.7872958), wk =   0.0045079
        k(  289) = (  -0.1968240  -0.1574592   0.7479310), wk =   0.0090158
        k(  290) = (  -0.1574592  -0.1574592   0.7085662), wk =   0.0015026
        k(  291) = (   0.4723775   0.0000000   0.0000000), wk =   0.0011270
        k(  292) = (   0.5117423  -0.0393648   0.0000000), wk =   0.0045079
        k(  293) = (   0.5511071  -0.0787296   0.0000000), wk =   0.0045079
        k(  294) = (   0.5511071  -0.0393648  -0.0393648), wk =   0.0045079
        k(  295) = (   0.5904719  -0.1180944   0.0000000), wk =   0.0045079
        k(  296) = (   0.5904719  -0.0787296  -0.0393648), wk =   0.0090158
        k(  297) = (   0.6298367  -0.1574592   0.0000000), wk =   0.0045079
        k(  298) = (   0.6298367  -0.1180944  -0.0393648), wk =   0.0090158
        k(  299) = (   0.6298367  -0.0787296  -0.0787296), wk =   0.0045079
        k(  300) = (  -0.1968240  -0.1968240   0.8660254), wk =   0.0022539
        k(  301) = (  -0.1968240  -0.1574592   0.8266606), wk =   0.0090158
        k(  302) = (  -0.1968240  -0.1180944   0.7872958), wk =   0.0090158
        k(  303) = (  -0.1574592  -0.1574592   0.7872958), wk =   0.0045079
        k(  304) = (  -0.1574592  -0.1180944   0.7479310), wk =   0.0045079
        k(  305) = (   0.5511071  -0.0000000   0.0000000), wk =   0.0011270
        k(  306) = (   0.5904719  -0.0393648   0.0000000), wk =   0.0045079
        k(  307) = (   0.6298367  -0.0787296   0.0000000), wk =   0.0045079
        k(  308) = (   0.6298367  -0.0393648  -0.0393648), wk =   0.0045079
        k(  309) = (   0.6692014  -0.1180944   0.0000000), wk =   0.0045079
        k(  310) = (   0.6692014  -0.0787296  -0.0393648), wk =   0.0090158
        k(  311) = (  -0.1574592  -0.1574592   0.8660254), wk =   0.0022539
        k(  312) = (  -0.1574592  -0.1180944   0.8266606), wk =   0.0090158
        k(  313) = (  -0.1574592  -0.0787296   0.7872958), wk =   0.0045079
        k(  314) = (  -0.1180944  -0.1180944   0.7872958), wk =   0.0045079
        k(  315) = (   0.6298367   0.0000000   0.0000000), wk =   0.0011270
        k(  316) = (   0.6692014  -0.0393648   0.0000000), wk =   0.0045079
        k(  317) = (   0.7085662  -0.0787296   0.0000000), wk =   0.0045079
        k(  318) = (   0.7085662  -0.0393648  -0.0393648), wk =   0.0045079
        k(  319) = (  -0.1180944  -0.1180944   0.8660254), wk =   0.0022539
        k(  320) = (  -0.1180944  -0.0787296   0.8266606), wk =   0.0090158
        k(  321) = (  -0.0787296  -0.0787296   0.7872958), wk =   0.0015026
        k(  322) = (   0.7085662   0.0000000   0.0000000), wk =   0.0011270
        k(  323) = (   0.7479310  -0.0393648   0.0000000), wk =   0.0045079
        k(  324) = (  -0.0787296  -0.0787296   0.8660254), wk =   0.0022539
        k(  325) = (  -0.0787296  -0.0393648   0.8266606), wk =   0.0045079
        k(  326) = (   0.7872958  -0.0000000   0.0000000), wk =   0.0011270
        k(  327) = (  -0.0393648  -0.0393648   0.8660254), wk =   0.0022539
        k(  328) = (  -0.8660254  -0.8660254   0.8660254), wk =   0.0001878

                       cryst. coord.
        k(    1) = (   0.0000000   0.0000000   0.0000000), wk =   0.0001878
        k(    2) = (   0.0000000   0.0000000   0.0454545), wk =   0.0022539
        k(    3) = (   0.0000000   0.0000000   0.0909091), wk =   0.0022539
        k(    4) = (   0.0000000   0.0000000   0.1363636), wk =   0.0022539
        k(    5) = (   0.0000000   0.0000000   0.1818182), wk =   0.0022539
        k(    6) = (   0.0000000   0.0000000   0.2272727), wk =   0.0022539
        k(    7) = (   0.0000000   0.0000000   0.2727273), wk =   0.0022539
        k(    8) = (   0.0000000   0.0000000   0.3181818), wk =   0.0022539
        k(    9) = (   0.0000000   0.0000000   0.3636364), wk =   0.0022539
        k(   10) = (   0.0000000   0.0000000   0.4090909), wk =   0.0022539
        k(   11) = (   0.0000000   0.0000000   0.4545455), wk =   0.0022539
        k(   12) = (   0.0000000   0.0000000  -0.5000000), wk =   0.0011270
        k(   13) = (   0.0000000   0.0454545   0.0454545), wk =   0.0045079
        k(   14) = (   0.0000000   0.0454545   0.0909091), wk =   0.0090158
        k(   15) = (   0.0000000   0.0454545   0.1363636), wk =   0.0090158
        k(   16) = (   0.0000000   0.0454545   0.1818182), wk =   0.0090158
        k(   17) = (   0.0000000   0.0454545   0.2272727), wk =   0.0090158
        k(   18) = (   0.0000000   0.0454545   0.2727273), wk =   0.0090158
        k(   19) = (   0.0000000   0.0454545   0.3181818), wk =   0.0090158
        k(   20) = (   0.0000000   0.0454545   0.3636364), wk =   0.0090158
        k(   21) = (   0.0000000   0.0454545   0.4090909), wk =   0.0090158
        k(   22) = (   0.0000000   0.0454545   0.4545455), wk =   0.0090158
        k(   23) = (   0.0000000   0.0909091   0.0909091), wk =   0.0045079
        k(   24) = (   0.0000000   0.0909091   0.1363636), wk =   0.0090158
        k(   25) = (   0.0000000   0.0909091   0.1818182), wk =   0.0090158
        k(   26) = (   0.0000000   0.0909091   0.2272727), wk =   0.0090158
        k(   27) = (   0.0000000   0.0909091   0.2727273), wk =   0.0090158
        k(   28) = (  -0.0000000   0.0909091   0.3181818), wk =   0.0090158
        k(   29) = (   0.0000000   0.0909091   0.3636364), wk =   0.0090158
        k(   30) = (   0.0000000   0.0909091   0.4090909), wk =   0.0090158
        k(   31) = (   0.0000000   0.0909091   0.4545455), wk =   0.0045079
        k(   32) = (   0.0000000   0.1363636   0.1363636), wk =   0.0045079
        k(   33) = (   0.0000000   0.1363636   0.1818182), wk =   0.0090158
        k(   34) = (   0.0000000   0.1363636   0.2272727), wk =   0.0090158
        k(   35) = (   0.0000000   0.1363636   0.2727273), wk =   0.0090158
        k(   36) = (   0.0000000   0.1363636   0.3181818), wk =   0.0090158
        k(   37) = (   0.0000000   0.1363636   0.3636364), wk =   0.0090158
        k(   38) = (   0.0000000   0.1363636   0.4090909), wk =   0.0090158
        k(   39) = (   0.0000000   0.1818182   0.1818182), wk =   0.0045079
        k(   40) = (  -0.0000000   0.1818182   0.2272727), wk =   0.0090158
        k(   41) = (   0.0000000   0.1818182   0.2727273), wk =   0.0090158
        k(   42) = (   0.0000000   0.1818182   0.3181818), wk =   0.0090158
        k(   43) = (   0.0000000   0.1818182   0.3636364), wk =   0.0090158
        k(   44) = (   0.0000000   0.1818182   0.4090909), wk =   0.0045079
        k(   45) = (   0.0000000   0.2272727   0.2272727), wk =   0.0045079
        k(   46) = (   0.0000000   0.2272727   0.2727273), wk =   0.0090158
        k(   47) = (   0.0000000   0.2272727   0.3181818), wk =   0.0090158
        k(   48) = (   0.0000000   0.2272727   0.3636364), wk =   0.0090158
        k(   49) = (   0.0000000   0.2727273   0.2727273), wk =   0.0045079
        k(   50) = (   0.0000000   0.2727273   0.3181818), wk =   0.0090158
        k(   51) = (   0.0000000   0.2727273   0.3636364), wk =   0.0045079
        k(   52) = (   0.0000000   0.3181818   0.3181818), wk =   0.0045079
        k(   53) = (   0.0454545   0.0454545   0.0454545), wk =   0.0015026
        k(   54) = (   0.0454545   0.0454545   0.0909091), wk =   0.0045079
        k(   55) = (   0.0454545   0.0454545   0.1363636), wk =   0.0045079
        k(   56) = (   0.0454545   0.0454545   0.1818182), wk =   0.0045079
        k(   57) = (   0.0454545   0.0454545   0.2272727), wk =   0.0045079
        k(   58) = (   0.0454545   0.0454545   0.2727273), wk =   0.0045079
        k(   59) = (   0.0454545   0.0454545   0.3181818), wk =   0.0045079
        k(   60) = (   0.0454545   0.0454545   0.3636364), wk =   0.0045079
        k(   61) = (   0.0454545   0.0454545   0.4090909), wk =   0.0045079
        k(   62) = (   0.0454545   0.0454545   0.4545455), wk =   0.0022539
        k(   63) = (   0.0454545   0.0454545  -0.0454545), wk =   0.0011270
        k(   64) = (   0.0454545   0.0909091   0.0909091), wk =   0.0045079
        k(   65) = (   0.0454545   0.0909091   0.1363636), wk =   0.0090158
        k(   66) = (   0.0454545   0.0909091   0.1818182), wk =   0.0090158
        k(   67) = (   0.0454545   0.0909091   0.2272727), wk =   0.0090158
        k(   68) = (   0.0454545   0.0909091   0.2727273), wk =   0.0090158
        k(   69) = (   0.0454545   0.0909091   0.3181818), wk =   0.0090158
        k(   70) = (   0.0454545   0.0909091   0.3636364), wk =   0.0090158
        k(   71) = (   0.0454545   0.0909091   0.4090909), wk =   0.0090158
        k(   72) = (   0.0454545   0.0909091  -0.0909091), wk =   0.0045079
        k(   73) = (   0.0454545   0.1363636   0.1363636), wk =   0.0045079
        k(   74) = (   0.0454545   0.1363636   0.1818182), wk =   0.0090158
        k(   75) = (   0.0454545   0.1363636   0.2272727), wk =   0.0090158
        k(   76) = (   0.0454545   0.1363636   0.2727273), wk =   0.0090158
        k(   77) = (   0.0454545   0.1363636   0.3181818), wk =   0.0090158
        k(   78) = (   0.0454545   0.1363636   0.3636364), wk =   0.0090158
        k(   79) = (   0.0454545   0.1363636   0.4090909), wk =   0.0045079
        k(   80) = (   0.0454545   0.1363636  -0.1363636), wk =   0.0045079
        k(   81) = (   0.0454545   0.1363636  -0.0909091), wk =   0.0045079
        k(   82) = (   0.0454545   0.1818182   0.1818182), wk =   0.0045079
        k(   83) = (   0.0454545   0.1818182   0.2272727), wk =   0.0090158
        k(   84) = (   0.0454545   0.1818182   0.2727273), wk =   0.0090158
        k(   85) = (   0.0454545   0.1818182   0.3181818), wk =   0.0090158
        k(   86) = (   0.0454545   0.1818182   0.3636364), wk =   0.0090158
        k(   87) = (   0.0454545   0.1818182  -0.1818182), wk =   0.0045079
        k(   88) = (   0.0454545   0.1818182  -0.1363636), wk =   0.0090158
        k(   89) = (   0.0454545   0.2272727   0.2272727), wk =   0.0045079
        k(   90) = (   0.0454545   0.2272727   0.2727273), wk =   0.0090158
        k(   91) = (   0.0454545   0.2272727   0.3181818), wk =   0.0090158
        k(   92) = (   0.0454545   0.2272727   0.3636364), wk =   0.0045079
        k(   93) = (   0.0454545   0.2272727  -0.2272727), wk =   0.0045079
        k(   94) = (   0.0454545   0.2272727  -0.1818182), wk =   0.0090158
        k(   95) = (   0.0454545   0.2272727  -0.1363636), wk =   0.0045079
        k(   96) = (   0.0454545   0.2727273   0.2727273), wk =   0.0045079
        k(   97) = (   0.0454545   0.2727273   0.3181818), wk =   0.0090158
        k(   98) = (   0.0454545   0.2727273  -0.2727273), wk =   0.0045079
        k(   99) = (   0.0454545   0.2727273  -0.2272727), wk =   0.0090158
        k(  100) = (   0.0454545   0.2727273  -0.1818182), wk =   0.0090158
        k(  101) = (   0.0454545   0.3181818   0.3181818), wk =   0.0015026
        k(  102) = (   0.0454545   0.3181818  -0.3181818), wk =   0.0045079
        k(  103) = (   0.0454545   0.3181818  -0.2727273), wk =   0.0090158
        k(  104) = (   0.0454545   0.3181818  -0.2272727), wk =   0.0090158
        k(  105) = (   0.0454545   0.3181818  -0.1818182), wk =   0.0045079
        k(  106) = (   0.0454545   0.3636364  -0.3636364), wk =   0.0045079
        k(  107) = (   0.0454545   0.3636364  -0.3181818), wk =   0.0090158
        k(  108) = (   0.0454545   0.3636364  -0.2727273), wk =   0.0090158
        k(  109) = (   0.0454545   0.3636364  -0.2272727), wk =   0.0090158
        k(  110) = (   0.0454545   0.4090909  -0.4090909), wk =   0.0045079
        k(  111) = (   0.0454545   0.4090909  -0.3636364), wk =   0.0090158
        k(  112) = (   0.0454545   0.4090909  -0.3181818), wk =   0.0090158
        k(  113) = (   0.0454545   0.4090909  -0.2727273), wk =   0.0090158
        k(  114) = (   0.0454545   0.4090909  -0.2272727), wk =   0.0045079
        k(  115) = (   0.0454545   0.4545455  -0.4545455), wk =   0.0045079
        k(  116) = (   0.0454545   0.4545455  -0.4090909), wk =   0.0090158
        k(  117) = (   0.0454545   0.4545455  -0.3636364), wk =   0.0090158
        k(  118) = (   0.0454545   0.4545455  -0.3181818), wk =   0.0090158
        k(  119) = (   0.0454545   0.4545455  -0.2727273), wk =   0.0090158
        k(  120) = (   0.0454545  -0.5000000  -0.5000000), wk =   0.0022539
        k(  121) = (   0.0454545  -0.5000000  -0.4545455), wk =   0.0090158
        k(  122) = (   0.0454545  -0.5000000  -0.4090909), wk =   0.0090158
        k(  123) = (   0.0454545  -0.5000000  -0.3636364), wk =   0.0090158
        k(  124) = (   0.0454545  -0.5000000  -0.3181818), wk =   0.0090158
        k(  125) = (   0.0454545  -0.5000000  -0.2727273), wk =   0.0045079
        k(  126) = (   0.0454545  -0.4545455  -0.4545455), wk =   0.0045079
        k(  127) = (   0.0454545  -0.4545455  -0.4090909), wk =   0.0090158
        k(  128) = (   0.0454545  -0.4545455  -0.3636364), wk =   0.0090158
        k(  129) = (   0.0454545  -0.4545455  -0.3181818), wk =   0.0090158
        k(  130) = (   0.0454545  -0.4090909  -0.4090909), wk =   0.0045079
        k(  131) = (   0.0454545  -0.4090909  -0.3636364), wk =   0.0090158
        k(  132) = (   0.0454545  -0.4090909  -0.3181818), wk =   0.0045079
        k(  133) = (   0.0454545  -0.3636364  -0.3636364), wk =   0.0045079
        k(  134) = (   0.0909091   0.0909091   0.0909091), wk =   0.0015026
        k(  135) = (   0.0909091   0.0909091   0.1363636), wk =   0.0045079
        k(  136) = (   0.0909091   0.0909091   0.1818182), wk =   0.0045079
        k(  137) = (   0.0909091   0.0909091   0.2272727), wk =   0.0045079
        k(  138) = (   0.0909091   0.0909091   0.2727273), wk =   0.0045079
        k(  139) = (   0.0909091   0.0909091   0.3181818), wk =   0.0045079
        k(  140) = (   0.0909091   0.0909091   0.3636364), wk =   0.0045079
        k(  141) = (   0.0909091   0.0909091   0.4090909), wk =   0.0022539
        k(  142) = (   0.0909091   0.0909091  -0.0909091), wk =   0.0011270
        k(  143) = (   0.0909091   0.1363636   0.1363636), wk =   0.0045079
        k(  144) = (   0.0909091   0.1363636   0.1818182), wk =   0.0090158
        k(  145) = (   0.0909091   0.1363636   0.2272727), wk =   0.0090158
        k(  146) = (   0.0909091   0.1363636   0.2727273), wk =   0.0090158
        k(  147) = (   0.0909091   0.1363636   0.3181818), wk =   0.0090158
        k(  148) = (   0.0909091   0.1363636   0.3636364), wk =   0.0090158
        k(  149) = (   0.0909091   0.1363636  -0.1363636), wk =   0.0045079
        k(  150) = (   0.0909091   0.1818182   0.1818182), wk =   0.0045079
        k(  151) = (   0.0909091   0.1818182   0.2272727), wk =   0.0090158
        k(  152) = (   0.0909091   0.1818182   0.2727273), wk =   0.0090158
        k(  153) = (   0.0909091   0.1818182   0.3181818), wk =   0.0090158
        k(  154) = (   0.0909091   0.1818182   0.3636364), wk =   0.0045079
        k(  155) = (   0.0909091   0.1818182  -0.1818182), wk =   0.0045079
        k(  156) = (   0.0909091   0.1818182  -0.1363636), wk =   0.0045079
        k(  157) = (   0.0909091   0.2272727   0.2272727), wk =   0.0045079
        k(  158) = (   0.0909091   0.2272727   0.2727273), wk =   0.0090158
        k(  159) = (   0.0909091   0.2272727   0.3181818), wk =   0.0090158
        k(  160) = (   0.0909091   0.2272727  -0.2272727), wk =   0.0045079
        k(  161) = (   0.0909091   0.2272727  -0.1818182), wk =   0.0090158
        k(  162) = (   0.0909091   0.2727273   0.2727273), wk =   0.0045079
        k(  163) = (   0.0909091   0.2727273   0.3181818), wk =   0.0045079
        k(  164) = (   0.0909091   0.2727273  -0.2727273), wk =   0.0045079
        k(  165) = (   0.0909091   0.2727273  -0.2272727), wk =   0.0090158
        k(  166) = (   0.0909091   0.2727273  -0.1818182), wk =   0.0045079
        k(  167) = (   0.0909091   0.3181818  -0.3181818), wk =   0.0045079
        k(  168) = (   0.0909091   0.3181818  -0.2727273), wk =   0.0090158
        k(  169) = (   0.0909091   0.3181818  -0.2272727), wk =   0.0090158
        k(  170) = (   0.0909091   0.3636364  -0.3636364), wk =   0.0045079
        k(  171) = (   0.0909091   0.3636364  -0.3181818), wk =   0.0090158
        k(  172) = (   0.0909091   0.3636364  -0.2727273), wk =   0.0090158
        k(  173) = (   0.0909091   0.3636364  -0.2272727), wk =   0.0045079
        k(  174) = (   0.0909091   0.4090909  -0.4090909), wk =   0.0045079
        k(  175) = (   0.0909091   0.4090909  -0.3636364), wk =   0.0090158
        k(  176) = (   0.0909091   0.4090909  -0.3181818), wk =   0.0090158
        k(  177) = (   0.0909091   0.4090909  -0.2727273), wk =   0.0090158
        k(  178) = (   0.0909091   0.4545455  -0.4545455), wk =   0.0045079
        k(  179) = (   0.0909091   0.4545455  -0.4090909), wk =   0.0090158
        k(  180) = (   0.0909091   0.4545455  -0.3636364), wk =   0.0090158
        k(  181) = (   0.0909091   0.4545455  -0.3181818), wk =   0.0090158
        k(  182) = (   0.0909091   0.4545455  -0.2727273), wk =   0.0045079
        k(  183) = (   0.0909091  -0.5000000  -0.5000000), wk =   0.0022539
        k(  184) = (   0.0909091  -0.5000000  -0.4545455), wk =   0.0090158
        k(  185) = (   0.0909091  -0.5000000  -0.4090909), wk =   0.0090158
        k(  186) = (   0.0909091  -0.5000000  -0.3636364), wk =   0.0090158
        k(  187) = (   0.0909091  -0.5000000  -0.3181818), wk =   0.0090158
        k(  188) = (   0.0909091  -0.4545455  -0.4545455), wk =   0.0045079
        k(  189) = (   0.0909091  -0.4545455  -0.4090909), wk =   0.0090158
        k(  190) = (   0.0909091  -0.4545455  -0.3636364), wk =   0.0090158
        k(  191) = (   0.0909091  -0.4545455  -0.3181818), wk =   0.0045079
        k(  192) = (   0.0909091  -0.4090909  -0.4090909), wk =   0.0045079
        k(  193) = (   0.0909091  -0.4090909  -0.3636364), wk =   0.0090158
        k(  194) = (   0.0909091  -0.3636364  -0.3636364), wk =   0.0015026
        k(  195) = (   0.1363636   0.1363636   0.1363636), wk =   0.0015026
        k(  196) = (   0.1363636   0.1363636   0.1818182), wk =   0.0045079
        k(  197) = (   0.1363636   0.1363636   0.2272727), wk =   0.0045079
        k(  198) = (   0.1363636   0.1363636   0.2727273), wk =   0.0045079
        k(  199) = (   0.1363636   0.1363636   0.3181818), wk =   0.0045079
        k(  200) = (   0.1363636   0.1363636   0.3636364), wk =   0.0022539
        k(  201) = (   0.1363636   0.1363636  -0.1363636), wk =   0.0011270
        k(  202) = (   0.1363636   0.1818182   0.1818182), wk =   0.0045079
        k(  203) = (   0.1363636   0.1818182   0.2272727), wk =   0.0090158
        k(  204) = (   0.1363636   0.1818182   0.2727273), wk =   0.0090158
        k(  205) = (   0.1363636   0.1818182   0.3181818), wk =   0.0090158
        k(  206) = (   0.1363636   0.1818182  -0.1818182), wk =   0.0045079
        k(  207) = (   0.1363636   0.2272727   0.2272727), wk =   0.0045079
        k(  208) = (   0.1363636   0.2272727   0.2727273), wk =   0.0090158
        k(  209) = (   0.1363636   0.2272727   0.3181818), wk =   0.0045079
        k(  210) = (   0.1363636   0.2272727  -0.2272727), wk =   0.0045079
        k(  211) = (   0.1363636   0.2272727  -0.1818182), wk =   0.0045079
        k(  212) = (   0.1363636   0.2727273   0.2727273), wk =   0.0045079
        k(  213) = (   0.1363636   0.2727273  -0.2727273), wk =   0.0045079
        k(  214) = (   0.1363636   0.2727273  -0.2272727), wk =   0.0090158
        k(  215) = (   0.1363636   0.3181818  -0.3181818), wk =   0.0045079
        k(  216) = (   0.1363636   0.3181818  -0.2727273), wk =   0.0090158
        k(  217) = (   0.1363636   0.3181818  -0.2272727), wk =   0.0045079
        k(  218) = (   0.1363636   0.3636364  -0.3636364), wk =   0.0045079
        k(  219) = (   0.1363636   0.3636364  -0.3181818), wk =   0.0090158
        k(  220) = (   0.1363636   0.3636364  -0.2727273), wk =   0.0090158
        k(  221) = (   0.1363636   0.4090909  -0.4090909), wk =   0.0045079
        k(  222) = (   0.1363636   0.4090909  -0.3636364), wk =   0.0090158
        k(  223) = (   0.1363636   0.4090909  -0.3181818), wk =   0.0090158
        k(  224) = (   0.1363636   0.4090909  -0.2727273), wk =   0.0045079
        k(  225) = (   0.1363636   0.4545455  -0.4545455), wk =   0.0045079
        k(  226) = (   0.1363636   0.4545455  -0.4090909), wk =   0.0090158
        k(  227) = (   0.1363636   0.4545455  -0.3636364), wk =   0.0090158
        k(  228) = (   0.1363636   0.4545455  -0.3181818), wk =   0.0090158
        k(  229) = (   0.1363636  -0.5000000  -0.5000000), wk =   0.0022539
        k(  230) = (   0.1363636  -0.5000000  -0.4545455), wk =   0.0090158
        k(  231) = (   0.1363636  -0.5000000  -0.4090909), wk =   0.0090158
        k(  232) = (   0.1363636  -0.5000000  -0.3636364), wk =   0.0090158
        k(  233) = (   0.1363636  -0.5000000  -0.3181818), wk =   0.0045079
        k(  234) = (   0.1363636  -0.4545455  -0.4545455), wk =   0.0045079
        k(  235) = (   0.1363636  -0.4545455  -0.4090909), wk =   0.0090158
        k(  236) = (   0.1363636  -0.4545455  -0.3636364), wk =   0.0090158
        k(  237) = (   0.1363636  -0.4090909  -0.4090909), wk =   0.0045079
        k(  238) = (   0.1363636  -0.4090909  -0.3636364), wk =   0.0045079
        k(  239) = (   0.1818182   0.1818182   0.1818182), wk =   0.0015026
        k(  240) = (   0.1818182   0.1818182   0.2272727), wk =   0.0045079
        k(  241) = (   0.1818182   0.1818182   0.2727273), wk =   0.0045079
        k(  242) = (   0.1818182   0.1818182   0.3181818), wk =   0.0022539
        k(  243) = (   0.1818182   0.1818182  -0.1818182), wk =   0.0011270
        k(  244) = (   0.1818182   0.2272727   0.2272727), wk =   0.0045079
        k(  245) = (   0.1818182   0.2272727   0.2727273), wk =   0.0090158
        k(  246) = (   0.1818182   0.2272727  -0.2272727), wk =   0.0045079
        k(  247) = (   0.1818182   0.2727273   0.2727273), wk =   0.0015026
        k(  248) = (   0.1818182   0.2727273  -0.2727273), wk =   0.0045079
        k(  249) = (   0.1818182   0.2727273  -0.2272727), wk =   0.0045079
        k(  250) = (   0.1818182   0.3181818  -0.3181818), wk =   0.0045079
        k(  251) = (   0.1818182   0.3181818  -0.2727273), wk =   0.0090158
        k(  252) = (   0.1818182   0.3636364  -0.3636364), wk =   0.0045079
        k(  253) = (   0.1818182   0.3636364  -0.3181818), wk =   0.0090158
        k(  254) = (   0.1818182   0.3636364  -0.2727273), wk =   0.0045079
        k(  255) = (   0.1818182   0.4090909  -0.4090909), wk =   0.0045079
        k(  256) = (   0.1818182   0.4090909  -0.3636364), wk =   0.0090158
        k(  257) = (   0.1818182   0.4090909  -0.3181818), wk =   0.0090158
        k(  258) = (   0.1818182   0.4545455  -0.4545455), wk =   0.0045079
        k(  259) = (   0.1818182   0.4545455  -0.4090909), wk =   0.0090158
        k(  260) = (   0.1818182   0.4545455  -0.3636364), wk =   0.0090158
        k(  261) = (   0.1818182   0.4545455  -0.3181818), wk =   0.0045079
        k(  262) = (   0.1818182  -0.5000000  -0.5000000), wk =   0.0022539
        k(  263) = (   0.1818182  -0.5000000  -0.4545455), wk =   0.0090158
        k(  264) = (   0.1818182  -0.5000000  -0.4090909), wk =   0.0090158
        k(  265) = (   0.1818182  -0.5000000  -0.3636364), wk =   0.0090158
        k(  266) = (   0.1818182  -0.4545455  -0.4545455), wk =   0.0045079
        k(  267) = (   0.1818182  -0.4545455  -0.4090909), wk =   0.0090158
        k(  268) = (   0.1818182  -0.4545455  -0.3636364), wk =   0.0045079
        k(  269) = (   0.1818182  -0.4090909  -0.4090909), wk =   0.0045079
        k(  270) = (   0.2272727   0.2272727   0.2272727), wk =   0.0015026
        k(  271) = (   0.2272727   0.2272727   0.2727273), wk =   0.0022539
        k(  272) = (   0.2272727   0.2272727  -0.2272727), wk =   0.0011270
        k(  273) = (   0.2272727   0.2727273  -0.2727273), wk =   0.0045079
        k(  274) = (   0.2272727   0.3181818  -0.3181818), wk =   0.0045079
        k(  275) = (   0.2272727   0.3181818  -0.2727273), wk =   0.0045079
        k(  276) = (   0.2272727   0.3636364  -0.3636364), wk =   0.0045079
        k(  277) = (   0.2272727   0.3636364  -0.3181818), wk =   0.0090158
        k(  278) = (   0.2272727   0.4090909  -0.4090909), wk =   0.0045079
        k(  279) = (   0.2272727   0.4090909  -0.3636364), wk =   0.0090158
        k(  280) = (   0.2272727   0.4090909  -0.3181818), wk =   0.0045079
        k(  281) = (   0.2272727   0.4545455  -0.4545455), wk =   0.0045079
        k(  282) = (   0.2272727   0.4545455  -0.4090909), wk =   0.0090158
        k(  283) = (   0.2272727   0.4545455  -0.3636364), wk =   0.0090158
        k(  284) = (   0.2272727  -0.5000000  -0.5000000), wk =   0.0022539
        k(  285) = (   0.2272727  -0.5000000  -0.4545455), wk =   0.0090158
        k(  286) = (   0.2272727  -0.5000000  -0.4090909), wk =   0.0090158
        k(  287) = (   0.2272727  -0.5000000  -0.3636364), wk =   0.0045079
        k(  288) = (   0.2272727  -0.4545455  -0.4545455), wk =   0.0045079
        k(  289) = (   0.2272727  -0.4545455  -0.4090909), wk =   0.0090158
        k(  290) = (   0.2272727  -0.4090909  -0.4090909), wk =   0.0015026
        k(  291) = (   0.2727273   0.2727273  -0.2727273), wk =   0.0011270
        k(  292) = (   0.2727273   0.3181818  -0.3181818), wk =   0.0045079
        k(  293) = (   0.2727273   0.3636364  -0.3636364), wk =   0.0045079
        k(  294) = (   0.2727273   0.3636364  -0.3181818), wk =   0.0045079
        k(  295) = (   0.2727273   0.4090909  -0.4090909), wk =   0.0045079
        k(  296) = (   0.2727273   0.4090909  -0.3636364), wk =   0.0090158
        k(  297) = (   0.2727273   0.4545455  -0.4545455), wk =   0.0045079
        k(  298) = (   0.2727273   0.4545455  -0.4090909), wk =   0.0090158
        k(  299) = (   0.2727273   0.4545455  -0.3636364), wk =   0.0045079
        k(  300) = (   0.2727273  -0.5000000  -0.5000000), wk =   0.0022539
        k(  301) = (   0.2727273  -0.5000000  -0.4545455), wk =   0.0090158
        k(  302) = (   0.2727273  -0.5000000  -0.4090909), wk =   0.0090158
        k(  303) = (   0.2727273  -0.4545455  -0.4545455), wk =   0.0045079
        k(  304) = (   0.2727273  -0.4545455  -0.4090909), wk =   0.0045079
        k(  305) = (   0.3181818   0.3181818  -0.3181818), wk =   0.0011270
        k(  306) = (   0.3181818   0.3636364  -0.3636364), wk =   0.0045079
        k(  307) = (   0.3181818   0.4090909  -0.4090909), wk =   0.0045079
        k(  308) = (   0.3181818   0.4090909  -0.3636364), wk =   0.0045079
        k(  309) = (   0.3181818   0.4545455  -0.4545455), wk =   0.0045079
        k(  310) = (   0.3181818   0.4545455  -0.4090909), wk =   0.0090158
        k(  311) = (   0.3181818  -0.5000000  -0.5000000), wk =   0.0022539
        k(  312) = (   0.3181818  -0.5000000  -0.4545455), wk =   0.0090158
        k(  313) = (   0.3181818  -0.5000000  -0.4090909), wk =   0.0045079
        k(  314) = (   0.3181818  -0.4545455  -0.4545455), wk =   0.0045079
        k(  315) = (   0.3636364   0.3636364  -0.3636364), wk =   0.0011270
        k(  316) = (   0.3636364   0.4090909  -0.4090909), wk =   0.0045079
        k(  317) = (   0.3636364   0.4545455  -0.4545455), wk =   0.0045079
        k(  318) = (   0.3636364   0.4545455  -0.4090909), wk =   0.0045079
        k(  319) = (   0.3636364  -0.5000000  -0.5000000), wk =   0.0022539
        k(  320) = (   0.3636364  -0.5000000  -0.4545455), wk =   0.0090158
        k(  321) = (   0.3636364  -0.4545455  -0.4545455), wk =   0.0015026
        k(  322) = (   0.4090909   0.4090909  -0.4090909), wk =   0.0011270
        k(  323) = (   0.4090909   0.4545455  -0.4545455), wk =   0.0045079
        k(  324) = (   0.4090909  -0.5000000  -0.5000000), wk =   0.0022539
        k(  325) = (   0.4090909  -0.5000000  -0.4545455), wk =   0.0045079
        k(  326) = (   0.4545455   0.4545455  -0.4545455), wk =   0.0011270
        k(  327) = (   0.4545455  -0.5000000  -0.5000000), wk =   0.0022539
        k(  328) = (  -0.5000000  -0.5000000  -0.5000000), wk =   0.0001878

     Dense  grid:     3103 G-vectors     FFT dimensions: (  20,  20,  20)

     Dynamical RAM for                 wfc:       0.04 MB

     Dynamical RAM for     wfc (w. buffer):      11.87 MB

     Dynamical RAM for           str. fact:       0.05 MB

     Dynamical RAM for           local pot:       0.00 MB

     Dynamical RAM for          nlocal pot:       0.05 MB

     Dynamical RAM for                qrad:       0.23 MB

     Dynamical RAM for          rho,v,vnew:       0.33 MB

     Dynamical RAM for               rhoin:       0.11 MB

     Dynamical RAM for            rho*nmix:       0.76 MB

     Dynamical RAM for           G-vectors:       0.20 MB

     Dynamical RAM for          h,s,v(r/c):       0.03 MB

     Dynamical RAM for          <psi|beta>:       0.00 MB

     Dynamical RAM for                 psi:       0.14 MB

     Dynamical RAM for                hpsi:       0.14 MB

     Dynamical RAM for                spsi:       0.14 MB

     Dynamical RAM for      wfcinit/wfcrot:       0.07 MB

     Dynamical RAM for           addusdens:       2.89 MB

     Estimated static dynamical RAM per process >      13.99 MB

     Estimated max dynamical RAM per process >      16.88 MB

     Initial potential from superposition of free atoms

     starting charge    2.99753, renormalised to    3.00000
     Starting wfc are    4 randomized atomic wfcs +    2 random wfc

     total cpu time spent up to now is        1.0 secs

     Self-consistent Calculation

     iteration #  1     ecut=    35.00 Ry     beta= 0.70
     Davidson diagonalization with overlap
     ethr =  1.00E-02,  avg # of iterations =  4.8

     Threshold (ethr) on eigenvalues was too large:
     Diagonalizing with lowered threshold

     Davidson diagonalization with overlap
     ethr =  1.92E-04,  avg # of iterations =  1.4

     total cpu time spent up to now is        7.8 secs

     total energy              =      -6.70060377 Ry
     Harris-Foulkes estimate   =      -6.70267700 Ry
     estimated scf accuracy    <       0.00574975 Ry

     iteration #  2     ecut=    35.00 Ry     beta= 0.70
     Davidson diagonalization with overlap
     ethr =  1.92E-04,  avg # of iterations =  1.0

     total cpu time spent up to now is       10.0 secs

     total energy              =      -6.70064211 Ry
     Harris-Foulkes estimate   =      -6.70074798 Ry
     estimated scf accuracy    <       0.00030743 Ry

     iteration #  3     ecut=    35.00 Ry     beta= 0.70
     Davidson diagonalization with overlap
     ethr =  1.02E-05,  avg # of iterations =  1.7

     total cpu time spent up to now is       21.2 secs

     End of self-consistent calculation

          k = 0.0000 0.0000 0.0000 (   381 PWs)   bands (ev):

    -3.2976  20.9696  20.9699  22.0553  22.0553  22.0553

     occupation numbers 
     1.0000   0.0000   0.0000   0.0000   0.0000   0.0000

          k = 0.0000 0.0394-0.0394 (   381 PWs)   bands (ev):

    -3.2386  20.0772  20.3850  20.7177  21.8417  22.4993

     occupation numbers 
     1.0000   0.0000   0.0000   0.0000   0.0000   0.0000

          k = 0.0000 0.0787-0.0787 (   386 PWs)   bands (ev):

    -3.0615  18.4477  19.5498  20.1159  21.3079  22.4695

     occupation numbers 
     1.0000   0.0000   0.0000   0.0000   0.0000   0.0000

          k = 0.0000 0.1181-0.1181 (   388 PWs)   bands (ev):

    -2.7669  16.6180  18.7702  19.3908  20.6490  21.8178

     occupation numbers 
     1.0000   0.0000   0.0000   0.0000   0.0000   0.0000

          k = 0.0000 0.1575-0.1575 (   388 PWs)   bands (ev):

    -2.3552  14.7588  18.0751  18.6673  19.9889  21.2174

     occupation numbers 
     1.0000   0.0000   0.0000   0.0000   0.0000   0.0000

          k = 0.0000 0.1968-0.1968 (   390 PWs)   bands (ev):

    -1.8273  12.9368  17.4708  18.0014  19.3819  20.6720

     occupation numbers 
     1.0000   0.0000   0.0000   0.0000   0.0000   0.0000

          k = 0.0000 0.2362-0.2362 (   386 PWs)   bands (ev):

    -1.1845  11.1803  16.9590  17.4188  18.8522  20.1872

     occupation numbers 
     1.0000   0.0000   0.0000   0.0000   0.0000   0.0000

          k = 0.0000 0.2756-0.2756 (   392 PWs)   bands (ev):

    -0.4280   9.5036  16.5402  16.9327  18.4111  19.7735

     occupation numbers 
     1.0000   0.0000   0.0000   0.0000   0.0000   0.0000

          k = 0.0000 0.3149-0.3149 (   394 PWs)   bands (ev):

     0.4402   7.9152  16.2146  16.5500  18.0644  19.4408

     occupation numbers 
     1.0000   0.0572   0.0000   0.0000   0.0000   0.0000

          k = 0.0000 0.3543-0.3543 (   402 PWs)   bands (ev):

     1.4172   6.4217  15.9821  16.2745  17.8152  19.1974

     occupation numbers 
     1.0000   1.0000   0.0000   0.0000   0.0000   0.0000

          k = 0.0000 0.3936-0.3936 (   394 PWs)   bands (ev):

     2.4959   5.0324  15.8426  16.1085  17.6651  19.0491

     occupation numbers 
     1.0000   1.0000   0.0000   0.0000   0.0000   0.0000

          k = 0.0000-0.4330 0.4330 (   392 PWs)   bands (ev):

     3.4822   3.9424  15.7962  16.0530  17.6150  18.9993

     occupation numbers 
     1.0000   1.0000   0.0000   0.0000   0.0000   0.0000

          k = 0.0394 0.0394-0.0787 (   384 PWs)   bands (ev):

    -3.1205  19.2496  19.3191  20.2229  21.7898  22.7349

     occupation numbers 
     1.0000   0.0000   0.0000   0.0000   0.0000   0.0000

          k = 0.0394 0.0787-0.1181 (   387 PWs)   bands (ev):

    -2.8847  17.5654  18.4631  19.5198  21.4107  22.2594

     occupation numbers 
     1.0000   0.0000   0.0000   0.0000   0.0000   0.0000

          k = 0.0394 0.1181-0.1575 (   390 PWs)   bands (ev):

    -2.5315  15.7183  17.7014  18.7977  20.7906  21.8403

     occupation numbers 
     1.0000   0.0000   0.0000   0.0000   0.0000   0.0000

          k = 0.0394 0.1575-0.1968 (   387 PWs)   bands (ev):

    -2.0617  13.8765  17.0188  18.1273  20.1604  21.3854

     occupation numbers 
     1.0000   0.0000   0.0000   0.0000   0.0000   0.0000

          k = 0.0394 0.1968-0.2362 (   387 PWs)   bands (ev):

    -1.4764  12.0871  16.4241  17.5369  19.5878  20.9318

     occupation numbers 
     1.0000   0.0000   0.0000   0.0000   0.0000   0.0000

          k = 0.0394 0.2362-0.2756 (   388 PWs)   bands (ev):

    -0.7767  10.3706  15.9224  17.0384  19.0957  20.5177

     occupation numbers 
     1.0000   0.0000   0.0000   0.0000   0.0000   0.0000

          k = 0.0394 0.2756-0.3149 (   392 PWs)   bands (ev):

     0.0357   8.7382  15.5172  16.6370  18.6946  20.1664

     occupation numbers 
     1.0000   0.0000   0.0000   0.0000   0.0000   0.0000

          k = 0.0394 0.3149-0.3543 (   393 PWs)   bands (ev):

     0.9585   7.1972  15.2111  16.3349  18.3902  19.8927

     occupation numbers 
     1.0000   1.0000   0.0000   0.0000   0.0000   0.0000

          k = 0.0394 0.3543-0.3936 (   397 PWs)   bands (ev):

     1.9876   5.7546  15.0061  16.1333  18.1859  19.7059

     occupation numbers 
     1.0000   1.0000   0.0000   0.0000   0.0000   0.0000

          k = 0.0394 0.3936-0.4330 (   391 PWs)   bands (ev):

[...]

     occupation numbers 
     1.0000   0.0000   0.0000   0.0000   0.0000   0.0000

          k = 0.3936 0.3936-0.4724 (   393 PWs)   bands (ev):

     6.3067   6.3067   7.0712   9.2040  28.4829  28.8129

     occupation numbers 
     1.0000   1.0000   1.0000   0.0000   0.0000   0.0000

          k = 0.3936-0.0787 0.0000 (   392 PWs)   bands (ev):

    -0.2538  11.9265  13.4586  15.6374  17.2792  22.4724

     occupation numbers 
     1.0000   0.0000   0.0000   0.0000   0.0000   0.0000

          k = 0.3936-0.0394-0.0394 (   398 PWs)   bands (ev):

    -0.3118  12.7777  12.9910  15.7375  16.6144  22.9113

     occupation numbers 
     1.0000   0.0000   0.0000   0.0000   0.0000   0.0000

          k = 0.4330-0.1181 0.0000 (   400 PWs)   bands (ev):

     0.4981  10.3185  12.9944  15.2036  17.8153  22.0929

     occupation numbers 
     1.0000   0.0000   0.0000   0.0000   0.0000   0.0000

          k = 0.4330-0.0787-0.0394 (   398 PWs)   bands (ev):

     0.3827  11.3238  12.3875  15.4985  16.7567  22.6082

     occupation numbers 
     1.0000   0.0000   0.0000   0.0000   0.0000   0.0000

          k = 0.4724-0.1575 0.0000 (   399 PWs)   bands (ev):

     1.3609   8.7659  12.6329  14.8426  18.5079  21.7729

     occupation numbers 
     1.0000   0.0000   0.0000   0.0000   0.0000   0.0000

          k = 0.4724-0.1181-0.0394 (   399 PWs)   bands (ev):

     1.1889   9.7701  11.9615  15.1505  17.3207  22.2684

     occupation numbers 
     1.0000   0.0000   0.0000   0.0000   0.0000   0.0000

          k = 0.4724-0.0787-0.0787 (   400 PWs)   bands (ev):

     1.1315  10.6576  11.0876  15.7534  16.5179  22.3370

     occupation numbers 
     1.0000   0.0000   0.0000   0.0000   0.0000   0.0000

          k = 0.5117-0.1968 0.0000 (   402 PWs)   bands (ev):

     2.3312   7.2948  12.3744  14.5775  19.3049  21.5360

     occupation numbers 
     1.0000   1.0000   0.0000   0.0000   0.0000   0.0000

          k = 0.5117-0.1575-0.0394 (   399 PWs)   bands (ev):

     2.1041   8.2698  11.6438  14.8534  18.0664  21.9610

     occupation numbers 
     1.0000   0.0000   0.0000   0.0000   0.0000   0.0000

          k = 0.5117-0.1181-0.0787 (   402 PWs)   bands (ev):

     1.9902   9.3090  10.5509  15.6566  16.9449  21.9750

     occupation numbers 
     1.0000   0.0000   0.0000   0.0000   0.0000   0.0000

          k = 0.5511-0.2362 0.0000 (   393 PWs)   bands (ev):

     3.4012   5.9220  12.2193  14.4164  20.1708  21.3915

     occupation numbers 
     1.0000   1.0000   0.0000   0.0000   0.0000   0.0000

          k = 0.5511-0.1968-0.0394 (   400 PWs)   bands (ev):

     3.1238   6.8531  11.4320  14.6473  18.9255  21.6012

     occupation numbers 
     1.0000   1.0000   0.0000   0.0000   0.0000   0.0000

          k = 0.5511-0.1575-0.0787 (   402 PWs)   bands (ev):

     2.9557   7.8768  10.2641  15.4460  17.7179  21.4704

     occupation numbers 
     1.0000   0.1297   0.0000   0.0000   0.0000   0.0000

          k = 0.5511-0.1181-0.1181 (   404 PWs)   bands (ev):

     2.8995   8.7682   9.3056  16.1945  16.8491  21.4216

     occupation numbers 
     1.0000   0.0000   0.0000   0.0000   0.0000   0.0000

          k =-0.2756-0.2756 0.8660 (   398 PWs)   bands (ev):

     4.3686   4.8534  12.1675  14.3624  20.8906  21.3444

     occupation numbers 
     1.0000   1.0000   0.0000   0.0000   0.0000   0.0000

          k =-0.2756-0.2362 0.8267 (   398 PWs)   bands (ev):

     4.2248   5.5519  11.3261  14.5427  19.8611  20.8419

     occupation numbers 
     1.0000   1.0000   0.0000   0.0000   0.0000   0.0000

          k =-0.2756-0.1968 0.7873 (   402 PWs)   bands (ev):

     4.0194   6.5225  10.0973  15.3026  18.6260  20.6248

     occupation numbers 
     1.0000   1.0000   0.0000   0.0000   0.0000   0.0000

          k =-0.2756-0.1575 0.7479 (   398 PWs)   bands (ev):

     3.9116   7.5730   8.8872  16.2330  17.4814  20.5215

     occupation numbers 
     1.0000   1.0677   0.0000   0.0000   0.0000   0.0000

          k =-0.2362-0.2362 0.7873 (   398 PWs)   bands (ev):

     4.9770   5.4669  10.0420  15.2533  19.5880  19.6443

     occupation numbers 
     1.0000   1.0000   0.0000   0.0000   0.0000   0.0000

          k =-0.2362-0.1968 0.7479 (   400 PWs)   bands (ev):

     5.0025   6.3099   8.7551  16.1638  18.4120  19.4753

     occupation numbers 
     1.0000   1.0000   0.0000   0.0000   0.0000   0.0000

          k =-0.2362-0.1575 0.7086 (   400 PWs)   bands (ev):

     4.9612   7.1816   7.7806  16.9915  17.4904  19.4258

     occupation numbers 
     1.0000   1.0000   0.5351   0.0000   0.0000   0.0000

          k =-0.1968-0.1968 0.7086 (   397 PWs)   bands (ev):

     5.9157   6.3189   7.5378  17.1303  18.1259  18.5328

     occupation numbers 
     1.0000   1.0000   1.0438   0.0000   0.0000   0.0000

          k = 0.3936 0.3936-0.3936 (   396 PWs)   bands (ev):

     5.2897   7.5217   7.5217   8.5554  28.8649  28.8650

     occupation numbers 
     1.0000   1.0337   1.0337   0.0000   0.0000   0.0000

          k = 0.3936 0.4330-0.4330 (   398 PWs)   bands (ev):

     6.2514   6.6023   7.4666   8.3564  29.0823  29.3563

     occupation numbers 
     1.0000   1.0000   1.0106   0.0000   0.0000   0.0000

          k = 0.3936-0.0000 0.0000 (   402 PWs)   bands (ev):

    -0.3698  13.3538  13.3538  15.0551  16.1744  23.8226

     occupation numbers 
     1.0000   0.0000   0.0000   0.0000   0.0000   0.0000

          k = 0.4330-0.0394 0.0000 (   402 PWs)   bands (ev):

     0.2672  12.2433  12.7851  14.6907  15.8743  23.9290

     occupation numbers 
     1.0000   0.0000   0.0000   0.0000   0.0000   0.0000

          k = 0.4724-0.0787 0.0000 (   402 PWs)   bands (ev):

     1.0166  10.7440  12.3191  14.4047  16.1713  23.6518

     occupation numbers 
     1.0000   0.0000   0.0000   0.0000   0.0000   0.0000

          k = 0.4724-0.0394-0.0394 (   401 PWs)   bands (ev):

     0.9591  11.6035  11.8427  14.4854  15.5167  23.9398

     occupation numbers 
     1.0000   0.0000   0.0000   0.0000   0.0000   0.0000

          k = 0.5117-0.1181 0.0000 (   399 PWs)   bands (ev):

     1.8761   9.2297  11.9564  14.0880  16.8087  23.0114

     occupation numbers 
     1.0000   0.0000   0.0000   0.0000   0.0000   0.0000

          k = 0.5117-0.0787-0.0394 (   403 PWs)   bands (ev):

     1.7619  10.2441  11.3333  14.3818  15.7396  22.9408

     occupation numbers 
     1.0000   0.0000   0.0000   0.0000   0.0000   0.0000

          k = 0.5511-0.1575 0.0000 (   408 PWs)   bands (ev):

     2.8426   7.7775  11.6972  13.8363  17.6176  21.8275

     occupation numbers 
     1.0000   0.5521   0.0000   0.0000   0.0000   0.0000

          k = 0.5511-0.1181-0.0394 (   402 PWs)   bands (ev):

     2.6732   8.7878  11.0096  14.1532  16.4009  21.7161

     occupation numbers 
     1.0000   0.0000   0.0000   0.0000   0.0000   0.0000

          k = 0.5511-0.0787-0.0787 (   402 PWs)   bands (ev):

     2.6166   9.6776  10.1272  14.7458  15.6069  21.6726

     occupation numbers 
     1.0000   0.0000   0.0000   0.0000   0.0000   0.0000

          k = 0.5905-0.1968 0.0000 (   401 PWs)   bands (ev):

     3.9076   6.4164  11.5416  13.6795  18.5437  20.6736

     occupation numbers 
     1.0000   1.0000   0.0000   0.0000   0.0000   0.0000

          k = 0.5905-0.1575-0.0394 (   401 PWs)   bands (ev):

     3.6879   7.3916  10.7959  13.9657  17.2566  20.5033

     occupation numbers 
     1.0000   1.0012   0.0000   0.0000   0.0000   0.0000

          k = 0.5905-0.1181-0.0787 (   402 PWs)   bands (ev):

     3.5769   8.4343   9.6899  14.7745  16.1217  20.4121

     occupation numbers 
     1.0000   0.0000   0.0000   0.0000   0.0000   0.0000

          k =-0.2362-0.2362 0.8660 (   392 PWs)   bands (ev):

     4.8663   5.3583  11.4897  13.6265  19.4792  19.6613

     occupation numbers 
     1.0000   1.0000   0.0000   0.0000   0.0000   0.0000

          k =-0.2362-0.1968 0.8267 (   402 PWs)   bands (ev):

     4.7821   6.1031  10.6893  13.8665  18.2210  19.3625

     occupation numbers 
     1.0000   1.0000   0.0000   0.0000   0.0000   0.0000

          k =-0.2362-0.1575 0.7873 (   403 PWs)   bands (ev):

     4.6340   7.1124   9.5096  14.6752  16.9898  19.2140

     occupation numbers 
     1.0000   1.0000   0.0000   0.0000   0.0000   0.0000

          k =-0.2362-0.1181 0.7479 (   402 PWs)   bands (ev):

     4.5817   7.9997   8.5498  15.4171  16.1241  19.1644

     occupation numbers 
     1.0000   0.0055   0.0000   0.0000   0.0000   0.0000

          k =-0.1968-0.1968 0.7873 (   402 PWs)   bands (ev):

     5.5841   6.0700   9.4520  14.6340  17.7972  18.3047

     occupation numbers 
     1.0000   1.0000   0.0000   0.0000   0.0000   0.0000

          k =-0.1968-0.1575 0.7479 (   402 PWs)   bands (ev):

     5.6629   6.9301   8.2443  15.5674  16.7995  18.0417

     occupation numbers 
     1.0000   1.0000   0.0000   0.0000   0.0000   0.0000

          k =-0.1575-0.1575 0.7086 (   406 PWs)   bands (ev):

     6.6304   6.6304   7.4326  16.4397  16.4397  17.3756

     occupation numbers 
     1.0000   1.0000   1.0043   0.0000   0.0000   0.0000

          k = 0.4724 0.0000 0.0000 (   402 PWs)   bands (ev):

     0.9016  12.2145  12.2145  13.7668  15.0603  24.3070

     occupation numbers 
     1.0000   0.0000   0.0000   0.0000   0.0000   0.0000

          k = 0.5117-0.0394 0.0000 (   408 PWs)   bands (ev):

     1.6476  11.1821  11.7473  13.5396  14.8417  22.9760

     occupation numbers 
     1.0000   0.0000   0.0000   0.0000   0.0000   0.0000

          k = 0.5511-0.0787 0.0000 (   406 PWs)   bands (ev):

     2.5031   9.7707  11.3838  13.3816  15.2305  21.6365

     occupation numbers 
     1.0000   0.0000   0.0000   0.0000   0.0000   0.0000

          k = 0.5511-0.0394-0.0394 (   405 PWs)   bands (ev):

     2.4464  10.6384  10.8969  13.4606  14.5745  21.5995

     occupation numbers 
     1.0000   0.0000   0.0000   0.0000   0.0000   0.0000

          k = 0.5905-0.1181 0.0000 (   401 PWs)   bands (ev):

     3.4647   8.3555  11.1240  13.1788  15.9698  20.3441

     occupation numbers 
     1.0000   0.0000   0.0000   0.0000   0.0000   0.0000

          k = 0.5905-0.0787-0.0394 (   403 PWs)   bands (ev):

     3.3526   9.3766  10.4856  13.4805  14.8912  20.2561

     occupation numbers 
     1.0000   0.0000   0.0000   0.0000   0.0000   0.0000

          k = 0.6298-0.1575 0.0000 (   404 PWs)   bands (ev):

     4.5233   7.0132  10.9680  13.0365  16.8768  19.1307

     occupation numbers 
     1.0000   1.0000   0.0000   0.0000   0.0000   0.0000

          k = 0.6298-0.1181-0.0394 (   399 PWs)   bands (ev):

     4.3610   8.0234  10.2662  13.3647  15.6480  18.9854

     occupation numbers 
     1.0000   0.0025   0.0000   0.0000   0.0000   0.0000

          k = 0.6298-0.0787-0.0787 (   402 PWs)   bands (ev):

     4.3063   8.9136   9.3767  13.9612  14.8530  18.9363

     occupation numbers 
     1.0000   0.0000   0.0000   0.0000   0.0000   0.0000

          k =-0.1968-0.1968 0.8660 (   398 PWs)   bands (ev):

     5.4736   5.9671  10.9160  12.9868  17.6875  18.2205

     occupation numbers 
     1.0000   1.0000   0.0000   0.0000   0.0000   0.0000

          k =-0.1968-0.1575 0.8267 (   401 PWs)   bands (ev):

     5.4471   6.7549  10.1582  13.2831  16.5607  17.8449

     occupation numbers 
     1.0000   1.0000   0.0000   0.0000   0.0000   0.0000

          k =-0.1968-0.1181 0.7873 (   400 PWs)   bands (ev):

     5.3547   7.7815   9.0445  14.1014  15.4408  17.7208

     occupation numbers 
     1.0000   0.5301   0.0000   0.0000   0.0000   0.0000

          k =-0.1575-0.1575 0.7873 (   400 PWs)   bands (ev):

     6.2994   6.7619   8.9765  14.0946  16.1080  16.9013

     occupation numbers 
     1.0000   1.0000   0.0000   0.0000   0.0000   0.0000

          k =-0.1575-0.1181 0.7479 (   398 PWs)   bands (ev):

     6.4179   7.4502   8.0442  14.8609  15.3949  16.6702

     occupation numbers 
     1.0000   1.0070   0.0012   0.0000   0.0000   0.0000

          k = 0.5511-0.0000 0.0000 (   406 PWs)   bands (ev):

     2.3896  11.2793  11.2793  12.7114  14.1035  21.5644

     occupation numbers 
     1.0000   0.0000   0.0000   0.0000   0.0000   0.0000

          k = 0.5905-0.0394 0.0000 (   404 PWs)   bands (ev):

     3.2401  10.3291  10.9151  12.6162  13.9775  20.1690

     occupation numbers 
     1.0000   0.0000   0.0000   0.0000   0.0000   0.0000

          k = 0.6298-0.0787 0.0000 (   398 PWs)   bands (ev):

     4.1954   9.0114  10.6548  12.5760  14.4652  18.8410

     occupation numbers 
     1.0000   0.0000   0.0000   0.0000   0.0000   0.0000

          k = 0.6298-0.0394-0.0394 (   401 PWs)   bands (ev):

     4.1399   9.8853  10.1580  12.6636  13.8017  18.7921

     occupation numbers 
     1.0000   0.0000   0.0000   0.0000   0.0000   0.0000

          k = 0.6692-0.1181 0.0000 (   400 PWs)   bands (ev):

     5.2460   7.7044  10.4987  12.4818  15.2880  17.6177

     occupation numbers 
     1.0000   0.9206   0.0000   0.0000   0.0000   0.0000

          k = 0.6692-0.0787-0.0394 (   395 PWs)   bands (ev):

     5.1402   8.7255   9.8478  12.7980  14.2074  17.5082

     occupation numbers 
     1.0000   0.0000   0.0000   0.0000   0.0000   0.0000

          k =-0.1575-0.1575 0.8660 (   394 PWs)   bands (ev):

     6.1890   6.6723  10.4466  12.4423  15.9974  16.7858

     occupation numbers 
     1.0000   1.0000   0.0000   0.0000   0.0000   0.0000

          k =-0.1575-0.1181 0.8267 (   399 PWs)   bands (ev):

     6.2163   7.4969   9.7346  12.7825  14.9864  16.4013

     occupation numbers 
     1.0000   1.0210   0.0000   0.0000   0.0000   0.0000

          k =-0.1575-0.0787 0.7873 (   394 PWs)   bands (ev):

     6.1760   8.3671   8.8473  13.4004  14.2054  16.3159

     occupation numbers 
     1.0000   0.0000   0.0000   0.0000   0.0000   0.0000

          k =-0.1181-0.1181 0.7873 (   391 PWs)   bands (ev):

     7.1201   7.5056   8.6397  13.6038  14.5269  15.6101

     occupation numbers 
     1.0000   1.0250   0.0000   0.0000   0.0000   0.0000

          k = 0.6298 0.0000 0.0000 (   402 PWs)   bands (ev):

     4.0843  10.5504  10.5504  11.8898  13.3188  18.7433

     occupation numbers 
     1.0000   0.0000   0.0000   0.0000   0.0000   0.0000

          k = 0.6692-0.0394 0.0000 (   396 PWs)   bands (ev):

     5.0316   9.6874  10.2899  11.9217  13.2831  17.4019

     occupation numbers 
     1.0000   0.0000   0.0000   0.0000   0.0000   0.0000

          k = 0.7086-0.0787 0.0000 (   394 PWs)   bands (ev):

     6.0719   8.4723  10.1336  11.9872  13.8418  16.1916

     occupation numbers 
     1.0000   0.0000   0.0000   0.0000   0.0000   0.0000

          k = 0.7086-0.0394-0.0394 (   392 PWs)   bands (ev):

     6.0208   9.3462   9.6295  12.0946  13.1725  16.1273

     occupation numbers 
     1.0000   0.0000   0.0000   0.0000   0.0000   0.0000

          k =-0.1181-0.1181 0.8660 (   390 PWs)   bands (ev):

     7.0101   7.4613  10.0814  11.9817  14.4156  15.4418

     occupation numbers 
     1.0000   1.0093   0.0000   0.0000   0.0000   0.0000

          k =-0.1181-0.0787 0.8267 (   392 PWs)   bands (ev):

     7.0831   8.3039   9.4245  12.3239  13.5496  15.0916

     occupation numbers 
     1.0000   0.0000   0.0000   0.0000   0.0000   0.0000

          k =-0.0787-0.0787 0.7873 (   385 PWs)   bands (ev):

     8.0389   8.0389   8.6743  13.0639  13.0639  14.5892

     occupation numbers 
     0.0015   0.0015   0.0000   0.0000   0.0000   0.0000

          k = 0.7086 0.0000 0.0000 (   394 PWs)   bands (ev):

     5.9682  10.0292  10.0292  11.3027  12.6874  16.0666

     occupation numbers 
     1.0000   0.0000   0.0000   0.0000   0.0000   0.0000

          k = 0.7479-0.0394 0.0000 (   390 PWs)   bands (ev):

     6.9935   9.2603   9.8727  11.4534  12.6767  14.9033

     occupation numbers 
     1.0000   0.0000   0.0000   0.0000   0.0000   0.0000

          k =-0.0787-0.0787 0.8660 (   390 PWs)   bands (ev):

     7.9294   8.3075   9.8206  11.5712  12.9517  14.2713

     occupation numbers 
     0.0407   0.0000   0.0000   0.0000   0.0000   0.0000

          k =-0.0787-0.0394 0.8267 (   392 PWs)   bands (ev):

     8.0290   9.0223   9.3209  11.7533  12.3896  14.0275

     occupation numbers 
     0.0021   0.0000   0.0000   0.0000   0.0000   0.0000

          k = 0.7873-0.0000 0.0000 (   394 PWs)   bands (ev):

     7.9931   9.7162   9.7162  10.9503  11.9863  13.8712

     occupation numbers 
     0.0068   0.0000   0.0000   0.0000   0.0000   0.0000

          k =-0.0394-0.0394 0.8660 (   390 PWs)   bands (ev):

     8.9143   9.1368   9.6641  11.1438  11.6396  13.4254

     occupation numbers 
     0.0000   0.0000   0.0000   0.0000   0.0000   0.0000

          k =-0.8660-0.8660 0.8660 (   370 PWs)   bands (ev):

     9.6119   9.6119   9.6119  10.8328  10.8328  13.1129

     occupation numbers 
     0.0000   0.0000   0.0000   0.0000   0.0000   0.0000

     the Fermi energy is     7.8060 ev

!    total energy              =      -6.70065666 Ry
     Harris-Foulkes estimate   =      -6.70065663 Ry
     estimated scf accuracy    <       0.00000079 Ry

     The total energy is the sum of the following terms:

     one-electron contribution =       2.96224932 Ry
     hartree contribution      =       0.00558039 Ry
     xc contribution           =      -4.28661790 Ry
     ewald contribution        =      -5.38183349 Ry
     smearing contrib. (-TS)   =      -0.00003498 Ry

     convergence has been achieved in   3 iterations
 
     init_run     :      9.16s CPU      0.99s WALL (       1 calls)
     electrons    :    202.41s CPU     20.18s WALL (       1 calls)

     Called by init_run:
     wfcinit      :      9.00s CPU      0.85s WALL (       1 calls)
     wfcinit:atom :      0.22s CPU      0.02s WALL (     328 calls)
     wfcinit:wfcr :      8.24s CPU      0.77s WALL (     328 calls)
     potinit      :      0.02s CPU      0.00s WALL (       1 calls)

     Called by electrons:
     c_bands      :    183.41s CPU     18.68s WALL (       4 calls)
     sum_band     :     18.55s CPU      1.48s WALL (       4 calls)
     v_of_rho     :      0.12s CPU      0.01s WALL (       4 calls)
     v_h          :      0.01s CPU      0.00s WALL (       4 calls)
     v_xc         :      0.12s CPU      0.01s WALL (       4 calls)
     newd         :      0.08s CPU      0.01s WALL (       4 calls)
     mix_rho      :      0.02s CPU      0.00s WALL (       4 calls)

     Called by c_bands:
     init_us_2    :      4.35s CPU      0.29s WALL (    2952 calls)
     cegterg      :    169.39s CPU      9.31s WALL (    1312 calls)

     Called by sum_band:
     sum_band:bec :      0.18s CPU      0.01s WALL (    1312 calls)
     addusdens    :      0.12s CPU      0.01s WALL (       4 calls)

     Called by *egterg:
     h_psi        :    148.13s CPU      8.42s WALL (    4558 calls)
     s_psi        :      1.63s CPU      0.09s WALL (    4558 calls)
     g_psi        :      1.23s CPU      0.07s WALL (    2918 calls)
     cdiaghg      :      6.89s CPU      0.39s WALL (    3902 calls)
     cegterg:over :      3.12s CPU      0.17s WALL (    2918 calls)
     cegterg:upda :      2.07s CPU      0.12s WALL (    2918 calls)
     cegterg:last :      1.38s CPU      0.08s WALL (    1501 calls)

     Called by h_psi:
     h_psi:pot    :    145.94s CPU      8.29s WALL (    4558 calls)
     h_psi:calbec :      5.02s CPU      0.29s WALL (    4558 calls)
     vloc_psi     :    135.70s CPU      7.71s WALL (    4558 calls)
     add_vuspsi   :      1.86s CPU      0.11s WALL (    4558 calls)

     General routines
     calbec       :      3.85s CPU      0.23s WALL (    5870 calls)
     fft          :      0.05s CPU      0.01s WALL (      54 calls)
     fftw         :    129.44s CPU      7.69s WALL (   52934 calls)
 
     Parallel routines
 
     PWSCF        :  3m31.66s CPU     0m21.22s WALL

 
   This run was terminated on:  19:11:29  30Jan2019            

=------------------------------------------------------------------------------=
   JOB DONE.
=------------------------------------------------------------------------------=
