
     Program PWSCF v.6.2 (svn rev. 14038) starts on 30Jan2019 at 19: 9:19 

     This program is part of the open-source Quantum ESPRESSO suite
     for quantum simulation of materials; please cite
         "P. Giannozzi et al., J. Phys.:Condens. Matter 21 395502 (2009);
         "P. Giannozzi et al., J. Phys.:Condens. Matter 29 465901 (2017);
          URL http://www.quantum-espresso.org", 
     in publications or presentations arising from this work. More details at
     http://www.quantum-espresso.org/quote

     Parallel version (MPI), running on     1 processors

     MPI processes distributed on     1 nodes
     Reading input from ./Alkpoint14.in
Warning: card &IONS ignored
Warning: card / ignored
Warning: card &CELL ignored
Warning: card / ignored

     Current dimensions of program PWSCF are:
     Max number of different atomic species (ntypx) = 10
     Max number of k-points (npk) =  40000
     Max angular momentum in pseudopotentials (lmaxx) =  3
     Message from routine iosys:
     minimal I/O required, wf_collect reset to FALSE

     Subspace diagonalization in iterative solution of the eigenvalue problem:
     a serial algorithm will be used

 
     G-vector sticks info
     --------------------
     sticks:   dense  smooth     PW     G-vecs:    dense   smooth      PW
     Sum         283     283    129                 3103     3103     887
 


     bravais-lattice index     =            0
     lattice parameter (alat)  =       5.2705  a.u.
     unit-cell volume          =     112.7033 (a.u.)^3
     number of atoms/cell      =            1
     number of atomic types    =            1
     number of electrons       =         3.00
     number of Kohn-Sham states=            6
     kinetic-energy cutoff     =      35.0000  Ry
     charge density cutoff     =     140.0000  Ry
     convergence threshold     =      1.0E-06
     mixing beta               =       0.7000
     number of iterations used =            8  plain     mixing
     Exchange-correlation      = SLA  PW   PBE  PBE ( 1  4  3  4 0 0)

     celldm(1)=   5.270512  celldm(2)=   0.000000  celldm(3)=   0.000000
     celldm(4)=   0.000000  celldm(5)=   0.000000  celldm(6)=   0.000000

     crystal axes: (cart. coord. in units of alat)
               a(1) = (   0.577350   0.577350   0.577350 )  
               a(2) = (   0.577350  -0.577350  -0.577350 )  
               a(3) = (  -0.577350   0.577350  -0.577350 )  

     reciprocal axes: (cart. coord. in units 2 pi/alat)
               b(1) = (  0.866025  0.866025  0.000000 )  
               b(2) = (  0.866025  0.000000 -0.866025 )  
               b(3) = (  0.000000  0.866025 -0.866025 )  


     PseudoPot. # 1 for Al read from file:
     ./al_pbe_v1.uspp.F.UPF
     MD5 check sum: 0a6289f5291fc8f409219462bc851e1f
     Pseudo is Ultrasoft + core correction, Zval =  3.0
     Generated by new atomic code, or converted to UPF format
     Using radial grid of  893 points,  3 beta functions with: 
                l(1) =   0
                l(2) =   1
                l(3) =   2
     Q(r) pseudized with  8 coefficients,  rinner =    0.900   0.900   0.900
                                                       0.900   0.900

     atomic species   valence    mass     pseudopotential
        Al             3.00    26.98150     Al( 1.00)

     48 Sym. Ops., with inversion, found


                                    s                        frac. trans.

      isym =  1     identity                                     

 cryst.   s( 1) = (     1          0          0      )
                  (     0          1          0      )
                  (     0          0          1      )

 cart.    s( 1) = (  1.0000000  0.0000000  0.0000000 )
                  (  0.0000000  1.0000000  0.0000000 )
                  (  0.0000000  0.0000000  1.0000000 )


      isym =  2     180 deg rotation - cart. axis [0,0,1]        

 cryst.   s( 2) = (    -1         -1         -1      )
                  (     0          0          1      )
                  (     0          1          0      )

 cart.    s( 2) = ( -1.0000000  0.0000000  0.0000000 )
                  (  0.0000000 -1.0000000  0.0000000 )
                  (  0.0000000  0.0000000  1.0000000 )


      isym =  3     180 deg rotation - cart. axis [0,1,0]        

 cryst.   s( 3) = (     0          0          1      )
                  (    -1         -1         -1      )
                  (     1          0          0      )

 cart.    s( 3) = ( -1.0000000  0.0000000  0.0000000 )
                  (  0.0000000  1.0000000  0.0000000 )
                  (  0.0000000  0.0000000 -1.0000000 )


      isym =  4     180 deg rotation - cart. axis [1,0,0]        

 cryst.   s( 4) = (     0          1          0      )
                  (     1          0          0      )
                  (    -1         -1         -1      )

 cart.    s( 4) = (  1.0000000  0.0000000  0.0000000 )
                  (  0.0000000 -1.0000000  0.0000000 )
                  (  0.0000000  0.0000000 -1.0000000 )


      isym =  5     180 deg rotation - cart. axis [1,1,0]        

 cryst.   s( 5) = (     1          1          1      )
                  (     0         -1          0      )
                  (     0          0         -1      )

 cart.    s( 5) = (  0.0000000  1.0000000  0.0000000 )
                  (  1.0000000  0.0000000  0.0000000 )
                  (  0.0000000  0.0000000 -1.0000000 )


      isym =  6     180 deg rotation - cart. axis [1,-1,0]       

 cryst.   s( 6) = (    -1          0          0      )
                  (     0          0         -1      )
                  (     0         -1          0      )

 cart.    s( 6) = (  0.0000000 -1.0000000  0.0000000 )
                  ( -1.0000000  0.0000000  0.0000000 )
                  (  0.0000000  0.0000000 -1.0000000 )


      isym =  7      90 deg rotation - cart. axis [0,0,-1]       

 cryst.   s( 7) = (     0          0         -1      )
                  (    -1          0          0      )
                  (     1          1          1      )

 cart.    s( 7) = (  0.0000000  1.0000000  0.0000000 )
                  ( -1.0000000  0.0000000  0.0000000 )
                  (  0.0000000  0.0000000  1.0000000 )


      isym =  8      90 deg rotation - cart. axis [0,0,1]        

 cryst.   s( 8) = (     0         -1          0      )
                  (     1          1          1      )
                  (    -1          0          0      )

 cart.    s( 8) = (  0.0000000 -1.0000000  0.0000000 )
                  (  1.0000000  0.0000000  0.0000000 )
                  (  0.0000000  0.0000000  1.0000000 )


      isym =  9     180 deg rotation - cart. axis [1,0,1]        

 cryst.   s( 9) = (     0          0         -1      )
                  (     0         -1          0      )
                  (    -1          0          0      )

 cart.    s( 9) = (  0.0000000  0.0000000  1.0000000 )
                  (  0.0000000 -1.0000000  0.0000000 )
                  (  1.0000000  0.0000000  0.0000000 )


      isym = 10     180 deg rotation - cart. axis [-1,0,1]       

 cryst.   s(10) = (    -1          0          0      )
                  (     1          1          1      )
                  (     0          0         -1      )

 cart.    s(10) = (  0.0000000  0.0000000 -1.0000000 )
                  (  0.0000000 -1.0000000  0.0000000 )
                  ( -1.0000000  0.0000000  0.0000000 )


      isym = 11      90 deg rotation - cart. axis [0,1,0]        

 cryst.   s(11) = (     1          1          1      )
                  (    -1          0          0      )
                  (     0         -1          0      )

 cart.    s(11) = (  0.0000000  0.0000000  1.0000000 )
                  (  0.0000000  1.0000000  0.0000000 )
                  ( -1.0000000  0.0000000  0.0000000 )


      isym = 12      90 deg rotation - cart. axis [0,-1,0]       

 cryst.   s(12) = (     0         -1          0      )
                  (     0          0         -1      )
                  (     1          1          1      )

 cart.    s(12) = (  0.0000000  0.0000000 -1.0000000 )
                  (  0.0000000  1.0000000  0.0000000 )
                  (  1.0000000  0.0000000  0.0000000 )


      isym = 13     180 deg rotation - cart. axis [0,1,1]        

 cryst.   s(13) = (     0         -1          0      )
                  (    -1          0          0      )
                  (     0          0         -1      )

 cart.    s(13) = ( -1.0000000  0.0000000  0.0000000 )
                  (  0.0000000  0.0000000  1.0000000 )
                  (  0.0000000  1.0000000  0.0000000 )


      isym = 14     180 deg rotation - cart. axis [0,1,-1]       

 cryst.   s(14) = (    -1          0          0      )
                  (     0         -1          0      )
                  (     1          1          1      )

 cart.    s(14) = ( -1.0000000  0.0000000  0.0000000 )
                  (  0.0000000  0.0000000 -1.0000000 )
                  (  0.0000000 -1.0000000  0.0000000 )


      isym = 15      90 deg rotation - cart. axis [-1,0,0]       

 cryst.   s(15) = (     1          1          1      )
                  (     0          0         -1      )
                  (    -1          0          0      )

 cart.    s(15) = (  1.0000000  0.0000000  0.0000000 )
                  (  0.0000000  0.0000000  1.0000000 )
                  (  0.0000000 -1.0000000  0.0000000 )


      isym = 16      90 deg rotation - cart. axis [1,0,0]        

 cryst.   s(16) = (     0          0         -1      )
                  (     1          1          1      )
                  (     0         -1          0      )

 cart.    s(16) = (  1.0000000  0.0000000  0.0000000 )
                  (  0.0000000  0.0000000 -1.0000000 )
                  (  0.0000000  1.0000000  0.0000000 )


      isym = 17     120 deg rotation - cart. axis [-1,-1,-1]     

 cryst.   s(17) = (     1          0          0      )
                  (    -1         -1         -1      )
                  (     0          1          0      )

 cart.    s(17) = (  0.0000000  1.0000000  0.0000000 )
                  (  0.0000000  0.0000000  1.0000000 )
                  (  1.0000000  0.0000000  0.0000000 )


      isym = 18     120 deg rotation - cart. axis [-1,1,1]       

 cryst.   s(18) = (     0          0          1      )
                  (     0          1          0      )
                  (    -1         -1         -1      )

 cart.    s(18) = (  0.0000000 -1.0000000  0.0000000 )
                  (  0.0000000  0.0000000  1.0000000 )
                  ( -1.0000000  0.0000000  0.0000000 )


      isym = 19     120 deg rotation - cart. axis [1,1,-1]       

 cryst.   s(19) = (     0          1          0      )
                  (     0          0          1      )
                  (     1          0          0      )

 cart.    s(19) = (  0.0000000  1.0000000  0.0000000 )
                  (  0.0000000  0.0000000 -1.0000000 )
                  ( -1.0000000  0.0000000  0.0000000 )


      isym = 20     120 deg rotation - cart. axis [1,-1,1]       

 cryst.   s(20) = (    -1         -1         -1      )
                  (     1          0          0      )
                  (     0          0          1      )

 cart.    s(20) = (  0.0000000 -1.0000000  0.0000000 )
                  (  0.0000000  0.0000000 -1.0000000 )
                  (  1.0000000  0.0000000  0.0000000 )


      isym = 21     120 deg rotation - cart. axis [1,1,1]        

 cryst.   s(21) = (     1          0          0      )
                  (     0          0          1      )
                  (    -1         -1         -1      )

 cart.    s(21) = (  0.0000000  0.0000000  1.0000000 )
                  (  1.0000000  0.0000000  0.0000000 )
                  (  0.0000000  1.0000000  0.0000000 )


      isym = 22     120 deg rotation - cart. axis [-1,1,-1]      

 cryst.   s(22) = (     0          1          0      )
                  (    -1         -1         -1      )
                  (     0          0          1      )

 cart.    s(22) = (  0.0000000  0.0000000  1.0000000 )
                  ( -1.0000000  0.0000000  0.0000000 )
                  (  0.0000000 -1.0000000  0.0000000 )


      isym = 23     120 deg rotation - cart. axis [1,-1,-1]      

 cryst.   s(23) = (    -1         -1         -1      )
                  (     0          1          0      )
                  (     1          0          0      )

 cart.    s(23) = (  0.0000000  0.0000000 -1.0000000 )
                  ( -1.0000000  0.0000000  0.0000000 )
                  (  0.0000000  1.0000000  0.0000000 )


      isym = 24     120 deg rotation - cart. axis [-1,-1,1]      

 cryst.   s(24) = (     0          0          1      )
                  (     1          0          0      )
                  (     0          1          0      )

 cart.    s(24) = (  0.0000000  0.0000000 -1.0000000 )
                  (  1.0000000  0.0000000  0.0000000 )
                  (  0.0000000 -1.0000000  0.0000000 )


      isym = 25     inversion                                    

 cryst.   s(25) = (    -1          0          0      )
                  (     0         -1          0      )
                  (     0          0         -1      )

 cart.    s(25) = ( -1.0000000  0.0000000  0.0000000 )
                  (  0.0000000 -1.0000000  0.0000000 )
                  (  0.0000000  0.0000000 -1.0000000 )


      isym = 26     inv. 180 deg rotation - cart. axis [0,0,1]   

 cryst.   s(26) = (     1          1          1      )
                  (     0          0         -1      )
                  (     0         -1          0      )

 cart.    s(26) = (  1.0000000  0.0000000  0.0000000 )
                  (  0.0000000  1.0000000  0.0000000 )
                  (  0.0000000  0.0000000 -1.0000000 )


      isym = 27     inv. 180 deg rotation - cart. axis [0,1,0]   

 cryst.   s(27) = (     0          0         -1      )
                  (     1          1          1      )
                  (    -1          0          0      )

 cart.    s(27) = (  1.0000000  0.0000000  0.0000000 )
                  (  0.0000000 -1.0000000  0.0000000 )
                  (  0.0000000  0.0000000  1.0000000 )


      isym = 28     inv. 180 deg rotation - cart. axis [1,0,0]   

 cryst.   s(28) = (     0         -1          0      )
                  (    -1          0          0      )
                  (     1          1          1      )

 cart.    s(28) = ( -1.0000000  0.0000000  0.0000000 )
                  (  0.0000000  1.0000000  0.0000000 )
                  (  0.0000000  0.0000000  1.0000000 )


      isym = 29     inv. 180 deg rotation - cart. axis [1,1,0]   

 cryst.   s(29) = (    -1         -1         -1      )
                  (     0          1          0      )
                  (     0          0          1      )

 cart.    s(29) = (  0.0000000 -1.0000000  0.0000000 )
                  ( -1.0000000  0.0000000  0.0000000 )
                  (  0.0000000  0.0000000  1.0000000 )


      isym = 30     inv. 180 deg rotation - cart. axis [1,-1,0]  

 cryst.   s(30) = (     1          0          0      )
                  (     0          0          1      )
                  (     0          1          0      )

 cart.    s(30) = (  0.0000000  1.0000000  0.0000000 )
                  (  1.0000000  0.0000000  0.0000000 )
                  (  0.0000000  0.0000000  1.0000000 )


      isym = 31     inv.  90 deg rotation - cart. axis [0,0,-1]  

 cryst.   s(31) = (     0          0          1      )
                  (     1          0          0      )
                  (    -1         -1         -1      )

 cart.    s(31) = (  0.0000000 -1.0000000  0.0000000 )
                  (  1.0000000  0.0000000  0.0000000 )
                  (  0.0000000  0.0000000 -1.0000000 )


      isym = 32     inv.  90 deg rotation - cart. axis [0,0,1]   

 cryst.   s(32) = (     0          1          0      )
                  (    -1         -1         -1      )
                  (     1          0          0      )

 cart.    s(32) = (  0.0000000  1.0000000  0.0000000 )
                  ( -1.0000000  0.0000000  0.0000000 )
                  (  0.0000000  0.0000000 -1.0000000 )


      isym = 33     inv. 180 deg rotation - cart. axis [1,0,1]   

 cryst.   s(33) = (     0          0          1      )
                  (     0          1          0      )
                  (     1          0          0      )

 cart.    s(33) = (  0.0000000  0.0000000 -1.0000000 )
                  (  0.0000000  1.0000000  0.0000000 )
                  ( -1.0000000  0.0000000  0.0000000 )


      isym = 34     inv. 180 deg rotation - cart. axis [-1,0,1]  

 cryst.   s(34) = (     1          0          0      )
                  (    -1         -1         -1      )
                  (     0          0          1      )

 cart.    s(34) = (  0.0000000  0.0000000  1.0000000 )
                  (  0.0000000  1.0000000  0.0000000 )
                  (  1.0000000  0.0000000  0.0000000 )


      isym = 35     inv.  90 deg rotation - cart. axis [0,1,0]   

 cryst.   s(35) = (    -1         -1         -1      )
                  (     1          0          0      )
                  (     0          1          0      )

 cart.    s(35) = (  0.0000000  0.0000000 -1.0000000 )
                  (  0.0000000 -1.0000000  0.0000000 )
                  (  1.0000000  0.0000000  0.0000000 )


      isym = 36     inv.  90 deg rotation - cart. axis [0,-1,0]  

 cryst.   s(36) = (     0          1          0      )
                  (     0          0          1      )
                  (    -1         -1         -1      )

 cart.    s(36) = (  0.0000000  0.0000000  1.0000000 )
                  (  0.0000000 -1.0000000  0.0000000 )
                  ( -1.0000000  0.0000000  0.0000000 )


      isym = 37     inv. 180 deg rotation - cart. axis [0,1,1]   

 cryst.   s(37) = (     0          1          0      )
                  (     1          0          0      )
                  (     0          0          1      )

 cart.    s(37) = (  1.0000000  0.0000000  0.0000000 )
                  (  0.0000000  0.0000000 -1.0000000 )
                  (  0.0000000 -1.0000000  0.0000000 )


      isym = 38     inv. 180 deg rotation - cart. axis [0,1,-1]  

 cryst.   s(38) = (     1          0          0      )
                  (     0          1          0      )
                  (    -1         -1         -1      )

 cart.    s(38) = (  1.0000000  0.0000000  0.0000000 )
                  (  0.0000000  0.0000000  1.0000000 )
                  (  0.0000000  1.0000000  0.0000000 )


      isym = 39     inv.  90 deg rotation - cart. axis [-1,0,0]  

 cryst.   s(39) = (    -1         -1         -1      )
                  (     0          0          1      )
                  (     1          0          0      )

 cart.    s(39) = ( -1.0000000  0.0000000  0.0000000 )
                  (  0.0000000  0.0000000 -1.0000000 )
                  (  0.0000000  1.0000000  0.0000000 )


      isym = 40     inv.  90 deg rotation - cart. axis [1,0,0]   

 cryst.   s(40) = (     0          0          1      )
                  (    -1         -1         -1      )
                  (     0          1          0      )

 cart.    s(40) = ( -1.0000000  0.0000000  0.0000000 )
                  (  0.0000000  0.0000000  1.0000000 )
                  (  0.0000000 -1.0000000  0.0000000 )


      isym = 41     inv. 120 deg rotation - cart. axis [-1,-1,-1]

 cryst.   s(41) = (    -1          0          0      )
                  (     1          1          1      )
                  (     0         -1          0      )

 cart.    s(41) = (  0.0000000 -1.0000000  0.0000000 )
                  (  0.0000000  0.0000000 -1.0000000 )
                  ( -1.0000000  0.0000000  0.0000000 )


      isym = 42     inv. 120 deg rotation - cart. axis [-1,1,1]  

 cryst.   s(42) = (     0          0         -1      )
                  (     0         -1          0      )
                  (     1          1          1      )

 cart.    s(42) = (  0.0000000  1.0000000  0.0000000 )
                  (  0.0000000  0.0000000 -1.0000000 )
                  (  1.0000000  0.0000000  0.0000000 )


      isym = 43     inv. 120 deg rotation - cart. axis [1,1,-1]  

 cryst.   s(43) = (     0         -1          0      )
                  (     0          0         -1      )
                  (    -1          0          0      )

 cart.    s(43) = (  0.0000000 -1.0000000  0.0000000 )
                  (  0.0000000  0.0000000  1.0000000 )
                  (  1.0000000  0.0000000  0.0000000 )


      isym = 44     inv. 120 deg rotation - cart. axis [1,-1,1]  

 cryst.   s(44) = (     1          1          1      )
                  (    -1          0          0      )
                  (     0          0         -1      )

 cart.    s(44) = (  0.0000000  1.0000000  0.0000000 )
                  (  0.0000000  0.0000000  1.0000000 )
                  ( -1.0000000  0.0000000  0.0000000 )


      isym = 45     inv. 120 deg rotation - cart. axis [1,1,1]   

 cryst.   s(45) = (    -1          0          0      )
                  (     0          0         -1      )
                  (     1          1          1      )

 cart.    s(45) = (  0.0000000  0.0000000 -1.0000000 )
                  ( -1.0000000  0.0000000  0.0000000 )
                  (  0.0000000 -1.0000000  0.0000000 )


      isym = 46     inv. 120 deg rotation - cart. axis [-1,1,-1] 

 cryst.   s(46) = (     0         -1          0      )
                  (     1          1          1      )
                  (     0          0         -1      )

 cart.    s(46) = (  0.0000000  0.0000000 -1.0000000 )
                  (  1.0000000  0.0000000  0.0000000 )
                  (  0.0000000  1.0000000  0.0000000 )


      isym = 47     inv. 120 deg rotation - cart. axis [1,-1,-1] 

 cryst.   s(47) = (     1          1          1      )
                  (     0         -1          0      )
                  (    -1          0          0      )

 cart.    s(47) = (  0.0000000  0.0000000  1.0000000 )
                  (  1.0000000  0.0000000  0.0000000 )
                  (  0.0000000 -1.0000000  0.0000000 )


      isym = 48     inv. 120 deg rotation - cart. axis [-1,-1,1] 

 cryst.   s(48) = (     0          0         -1      )
                  (    -1          0          0      )
                  (     0         -1          0      )

 cart.    s(48) = (  0.0000000  0.0000000  1.0000000 )
                  ( -1.0000000  0.0000000  0.0000000 )
                  (  0.0000000  1.0000000  0.0000000 )


   Cartesian axes

     site n.     atom                  positions (alat units)
         1           Al  tau(   1) = (   0.0000000   0.0000000   0.0000000  )

   Crystallographic axes

     site n.     atom                  positions (cryst. coord.)
         1           Al  tau(   1) = (  0.0000000  0.0000000  0.0000000  )

     number of k points=   104  Marzari-Vanderbilt smearing, width (Ry)=  0.0100
                       cart. coord. in units 2pi/alat
        k(    1) = (   0.0000000   0.0000000   0.0000000), wk =   0.0007289
        k(    2) = (   0.0000000   0.0618590  -0.0618590), wk =   0.0087464
        k(    3) = (   0.0000000   0.1237179  -0.1237179), wk =   0.0087464
        k(    4) = (   0.0000000   0.1855769  -0.1855769), wk =   0.0087464
        k(    5) = (   0.0000000   0.2474358  -0.2474358), wk =   0.0087464
        k(    6) = (   0.0000000   0.3092948  -0.3092948), wk =   0.0087464
        k(    7) = (   0.0000000   0.3711537  -0.3711537), wk =   0.0087464
        k(    8) = (   0.0000000  -0.4330127   0.4330127), wk =   0.0043732
        k(    9) = (   0.0618590   0.0618590  -0.1237179), wk =   0.0174927
        k(   10) = (   0.0618590   0.1237179  -0.1855769), wk =   0.0349854
        k(   11) = (   0.0618590   0.1855769  -0.2474358), wk =   0.0349854
        k(   12) = (   0.0618590   0.2474358  -0.3092948), wk =   0.0349854
        k(   13) = (   0.0618590   0.3092948  -0.3711537), wk =   0.0349854
        k(   14) = (   0.0618590   0.3711537  -0.4330127), wk =   0.0349854
        k(   15) = (   0.1237179   0.1237179  -0.2474358), wk =   0.0174927
        k(   16) = (   0.1237179   0.1855769  -0.3092948), wk =   0.0349854
        k(   17) = (   0.1237179   0.2474358  -0.3711537), wk =   0.0349854
        k(   18) = (   0.1237179   0.3092948  -0.4330127), wk =   0.0349854
        k(   19) = (   0.1237179   0.3711537  -0.4948717), wk =   0.0174927
        k(   20) = (   0.1855769   0.1855769  -0.3711537), wk =   0.0174927
        k(   21) = (   0.1855769   0.2474358  -0.4330127), wk =   0.0349854
        k(   22) = (   0.1855769   0.3092948  -0.4948717), wk =   0.0349854
        k(   23) = (   0.2474358   0.2474358  -0.4948717), wk =   0.0174927
        k(   24) = (   0.2474358   0.3092948  -0.5567306), wk =   0.0174927
        k(   25) = (   0.1237179   0.1237179  -0.1237179), wk =   0.0058309
        k(   26) = (   0.1237179   0.1855769  -0.1855769), wk =   0.0174927
        k(   27) = (   0.1237179   0.2474358  -0.2474358), wk =   0.0174927
        k(   28) = (   0.1237179   0.3092948  -0.3092948), wk =   0.0174927
        k(   29) = (   0.1237179   0.3711537  -0.3711537), wk =   0.0174927
        k(   30) = (   0.1237179   0.4330127  -0.4330127), wk =   0.0087464
        k(   31) = (   0.1237179   0.0000000  -0.0000000), wk =   0.0043732
        k(   32) = (   0.1855769   0.1855769  -0.2474358), wk =   0.0174927
        k(   33) = (   0.1855769   0.2474358  -0.3092948), wk =   0.0349854
        k(   34) = (   0.1855769   0.3092948  -0.3711537), wk =   0.0349854
        k(   35) = (   0.1855769   0.3711537  -0.4330127), wk =   0.0349854
        k(   36) = (   0.1855769  -0.0618590   0.0000000), wk =   0.0174927
        k(   37) = (   0.2474358   0.2474358  -0.3711537), wk =   0.0174927
        k(   38) = (   0.2474358   0.3092948  -0.4330127), wk =   0.0349854
        k(   39) = (   0.2474358   0.3711537  -0.4948717), wk =   0.0174927
        k(   40) = (   0.2474358  -0.1237179   0.0000000), wk =   0.0174927
        k(   41) = (   0.2474358  -0.0618590  -0.0618590), wk =   0.0174927
        k(   42) = (   0.3092948   0.3092948  -0.4948717), wk =   0.0174927
        k(   43) = (   0.3092948  -0.1855769   0.0000000), wk =   0.0174927
        k(   44) = (   0.3092948  -0.1237179  -0.0618590), wk =   0.0349854
        k(   45) = (   0.3711537  -0.2474358  -0.0000000), wk =   0.0174927
        k(   46) = (   0.3711537  -0.1855769  -0.0618590), wk =   0.0349854
        k(   47) = (   0.3711537  -0.1237179  -0.1237179), wk =   0.0174927
        k(   48) = (   0.4330127  -0.3092948   0.0000000), wk =   0.0174927
        k(   49) = (   0.4330127  -0.2474358  -0.0618590), wk =   0.0349854
        k(   50) = (   0.4330127  -0.1855769  -0.1237179), wk =   0.0349854
        k(   51) = (  -0.3711537  -0.3711537   0.8660254), wk =   0.0087464
        k(   52) = (  -0.3711537  -0.3092948   0.8041664), wk =   0.0349854
        k(   53) = (  -0.3711537  -0.2474358   0.7423075), wk =   0.0349854
        k(   54) = (  -0.3711537  -0.1855769   0.6804485), wk =   0.0174927
        k(   55) = (  -0.3092948  -0.3092948   0.7423075), wk =   0.0174927
        k(   56) = (  -0.3092948  -0.2474358   0.6804485), wk =   0.0349854
        k(   57) = (  -0.2474358  -0.2474358   0.6185896), wk =   0.0058309
        k(   58) = (   0.2474358   0.2474358  -0.2474358), wk =   0.0058309
        k(   59) = (   0.2474358   0.3092948  -0.3092948), wk =   0.0174927
        k(   60) = (   0.2474358   0.3711537  -0.3711537), wk =   0.0174927
        k(   61) = (   0.2474358   0.4330127  -0.4330127), wk =   0.0087464
        k(   62) = (   0.2474358  -0.0000000   0.0000000), wk =   0.0043732
        k(   63) = (   0.3092948   0.3092948  -0.3711537), wk =   0.0174927
        k(   64) = (   0.3092948   0.3711537  -0.4330127), wk =   0.0349854
        k(   65) = (   0.3092948  -0.0618590   0.0000000), wk =   0.0174927
        k(   66) = (   0.3711537   0.3711537  -0.4948717), wk =   0.0058309
        k(   67) = (   0.3711537  -0.1237179   0.0000000), wk =   0.0174927
        k(   68) = (   0.3711537  -0.0618590  -0.0618590), wk =   0.0174927
        k(   69) = (   0.4330127  -0.1855769  -0.0000000), wk =   0.0174927
        k(   70) = (   0.4330127  -0.1237179  -0.0618590), wk =   0.0349854
        k(   71) = (   0.4948717  -0.2474358   0.0000000), wk =   0.0174927
        k(   72) = (   0.4948717  -0.1855769  -0.0618590), wk =   0.0349854
        k(   73) = (   0.4948717  -0.1237179  -0.1237179), wk =   0.0174927
        k(   74) = (  -0.3092948  -0.3092948   0.8660254), wk =   0.0087464
        k(   75) = (  -0.3092948  -0.2474358   0.8041664), wk =   0.0349854
        k(   76) = (  -0.3092948  -0.1855769   0.7423075), wk =   0.0349854
        k(   77) = (  -0.2474358  -0.2474358   0.7423075), wk =   0.0174927
        k(   78) = (  -0.2474358  -0.1855769   0.6804485), wk =   0.0174927
        k(   79) = (   0.3711537   0.3711537  -0.3711537), wk =   0.0058309
        k(   80) = (   0.3711537   0.4330127  -0.4330127), wk =   0.0087464
        k(   81) = (   0.3711537  -0.0000000   0.0000000), wk =   0.0043732
        k(   82) = (   0.4330127  -0.0618590   0.0000000), wk =   0.0174927
        k(   83) = (   0.4948717  -0.1237179  -0.0000000), wk =   0.0174927
        k(   84) = (   0.4948717  -0.0618590  -0.0618590), wk =   0.0174927
        k(   85) = (   0.5567306  -0.1855769   0.0000000), wk =   0.0174927
        k(   86) = (   0.5567306  -0.1237179  -0.0618590), wk =   0.0349854
        k(   87) = (  -0.2474358  -0.2474358   0.8660254), wk =   0.0087464
        k(   88) = (  -0.2474358  -0.1855769   0.8041664), wk =   0.0349854
        k(   89) = (  -0.2474358  -0.1237179   0.7423075), wk =   0.0174927
        k(   90) = (  -0.1855769  -0.1855769   0.7423075), wk =   0.0174927
        k(   91) = (   0.4948717   0.0000000   0.0000000), wk =   0.0043732
        k(   92) = (   0.5567306  -0.0618590  -0.0000000), wk =   0.0174927
        k(   93) = (   0.6185896  -0.1237179   0.0000000), wk =   0.0174927
        k(   94) = (   0.6185896  -0.0618590  -0.0618590), wk =   0.0174927
        k(   95) = (  -0.1855769  -0.1855769   0.8660254), wk =   0.0087464
        k(   96) = (  -0.1855769  -0.1237179   0.8041664), wk =   0.0349854
        k(   97) = (  -0.1237179  -0.1237179   0.7423075), wk =   0.0058309
        k(   98) = (   0.6185896   0.0000000  -0.0000000), wk =   0.0043732
        k(   99) = (   0.6804485  -0.0618590   0.0000000), wk =   0.0174927
        k(  100) = (  -0.1237179  -0.1237179   0.8660254), wk =   0.0087464
        k(  101) = (  -0.1237179  -0.0618590   0.8041664), wk =   0.0174927
        k(  102) = (   0.7423075  -0.0000000   0.0000000), wk =   0.0043732
        k(  103) = (  -0.0618590  -0.0618590   0.8660254), wk =   0.0087464
        k(  104) = (  -0.8660254  -0.8660254   0.8660254), wk =   0.0007289

                       cryst. coord.
        k(    1) = (   0.0000000   0.0000000   0.0000000), wk =   0.0007289
        k(    2) = (   0.0000000   0.0000000   0.0714286), wk =   0.0087464
        k(    3) = (   0.0000000   0.0000000   0.1428571), wk =   0.0087464
        k(    4) = (   0.0000000   0.0000000   0.2142857), wk =   0.0087464
        k(    5) = (   0.0000000   0.0000000   0.2857143), wk =   0.0087464
        k(    6) = (   0.0000000   0.0000000   0.3571429), wk =   0.0087464
        k(    7) = (   0.0000000   0.0000000   0.4285714), wk =   0.0087464
        k(    8) = (   0.0000000   0.0000000  -0.5000000), wk =   0.0043732
        k(    9) = (   0.0000000   0.0714286   0.0714286), wk =   0.0174927
        k(   10) = (   0.0000000   0.0714286   0.1428571), wk =   0.0349854
        k(   11) = (   0.0000000   0.0714286   0.2142857), wk =   0.0349854
        k(   12) = (   0.0000000   0.0714286   0.2857143), wk =   0.0349854
        k(   13) = (   0.0000000   0.0714286   0.3571429), wk =   0.0349854
        k(   14) = (   0.0000000   0.0714286   0.4285714), wk =   0.0349854
        k(   15) = (   0.0000000   0.1428571   0.1428571), wk =   0.0174927
        k(   16) = (   0.0000000   0.1428571   0.2142857), wk =   0.0349854
        k(   17) = (   0.0000000   0.1428571   0.2857143), wk =   0.0349854
        k(   18) = (   0.0000000   0.1428571   0.3571429), wk =   0.0349854
        k(   19) = (   0.0000000   0.1428571   0.4285714), wk =   0.0174927
        k(   20) = (   0.0000000   0.2142857   0.2142857), wk =   0.0174927
        k(   21) = (   0.0000000   0.2142857   0.2857143), wk =   0.0349854
        k(   22) = (  -0.0000000   0.2142857   0.3571429), wk =   0.0349854
        k(   23) = (   0.0000000   0.2857143   0.2857143), wk =   0.0174927
        k(   24) = (   0.0000000   0.2857143   0.3571429), wk =   0.0174927
        k(   25) = (   0.0714286   0.0714286   0.0714286), wk =   0.0058309
        k(   26) = (   0.0714286   0.0714286   0.1428571), wk =   0.0174927
        k(   27) = (   0.0714286   0.0714286   0.2142857), wk =   0.0174927
        k(   28) = (   0.0714286   0.0714286   0.2857143), wk =   0.0174927
        k(   29) = (   0.0714286   0.0714286   0.3571429), wk =   0.0174927
        k(   30) = (   0.0714286   0.0714286   0.4285714), wk =   0.0087464
        k(   31) = (   0.0714286   0.0714286  -0.0714286), wk =   0.0043732
        k(   32) = (   0.0714286   0.1428571   0.1428571), wk =   0.0174927
        k(   33) = (   0.0714286   0.1428571   0.2142857), wk =   0.0349854
        k(   34) = (   0.0714286   0.1428571   0.2857143), wk =   0.0349854
        k(   35) = (   0.0714286   0.1428571   0.3571429), wk =   0.0349854
        k(   36) = (   0.0714286   0.1428571  -0.1428571), wk =   0.0174927
        k(   37) = (   0.0714286   0.2142857   0.2142857), wk =   0.0174927
        k(   38) = (   0.0714286   0.2142857   0.2857143), wk =   0.0349854
        k(   39) = (   0.0714286   0.2142857   0.3571429), wk =   0.0174927
        k(   40) = (   0.0714286   0.2142857  -0.2142857), wk =   0.0174927
        k(   41) = (   0.0714286   0.2142857  -0.1428571), wk =   0.0174927
        k(   42) = (   0.0714286   0.2857143   0.2857143), wk =   0.0174927
        k(   43) = (   0.0714286   0.2857143  -0.2857143), wk =   0.0174927
        k(   44) = (   0.0714286   0.2857143  -0.2142857), wk =   0.0349854
        k(   45) = (   0.0714286   0.3571429  -0.3571429), wk =   0.0174927
        k(   46) = (   0.0714286   0.3571429  -0.2857143), wk =   0.0349854
        k(   47) = (   0.0714286   0.3571429  -0.2142857), wk =   0.0174927
        k(   48) = (   0.0714286   0.4285714  -0.4285714), wk =   0.0174927
        k(   49) = (   0.0714286   0.4285714  -0.3571429), wk =   0.0349854
        k(   50) = (   0.0714286   0.4285714  -0.2857143), wk =   0.0349854
        k(   51) = (   0.0714286  -0.5000000  -0.5000000), wk =   0.0087464
        k(   52) = (   0.0714286  -0.5000000  -0.4285714), wk =   0.0349854
        k(   53) = (   0.0714286  -0.5000000  -0.3571429), wk =   0.0349854
        k(   54) = (   0.0714286  -0.5000000  -0.2857143), wk =   0.0174927
        k(   55) = (   0.0714286  -0.4285714  -0.4285714), wk =   0.0174927
        k(   56) = (   0.0714286  -0.4285714  -0.3571429), wk =   0.0349854
        k(   57) = (   0.0714286  -0.3571429  -0.3571429), wk =   0.0058309
        k(   58) = (   0.1428571   0.1428571   0.1428571), wk =   0.0058309
        k(   59) = (   0.1428571   0.1428571   0.2142857), wk =   0.0174927
        k(   60) = (   0.1428571   0.1428571   0.2857143), wk =   0.0174927
        k(   61) = (   0.1428571   0.1428571   0.3571429), wk =   0.0087464
        k(   62) = (   0.1428571   0.1428571  -0.1428571), wk =   0.0043732
        k(   63) = (   0.1428571   0.2142857   0.2142857), wk =   0.0174927
        k(   64) = (   0.1428571   0.2142857   0.2857143), wk =   0.0349854
        k(   65) = (   0.1428571   0.2142857  -0.2142857), wk =   0.0174927
        k(   66) = (   0.1428571   0.2857143   0.2857143), wk =   0.0058309
        k(   67) = (   0.1428571   0.2857143  -0.2857143), wk =   0.0174927
        k(   68) = (   0.1428571   0.2857143  -0.2142857), wk =   0.0174927
        k(   69) = (   0.1428571   0.3571429  -0.3571429), wk =   0.0174927
        k(   70) = (   0.1428571   0.3571429  -0.2857143), wk =   0.0349854
        k(   71) = (   0.1428571   0.4285714  -0.4285714), wk =   0.0174927
        k(   72) = (   0.1428571   0.4285714  -0.3571429), wk =   0.0349854
        k(   73) = (   0.1428571   0.4285714  -0.2857143), wk =   0.0174927
        k(   74) = (   0.1428571  -0.5000000  -0.5000000), wk =   0.0087464
        k(   75) = (   0.1428571  -0.5000000  -0.4285714), wk =   0.0349854
        k(   76) = (   0.1428571  -0.5000000  -0.3571429), wk =   0.0349854
        k(   77) = (   0.1428571  -0.4285714  -0.4285714), wk =   0.0174927
        k(   78) = (   0.1428571  -0.4285714  -0.3571429), wk =   0.0174927
        k(   79) = (   0.2142857   0.2142857   0.2142857), wk =   0.0058309
        k(   80) = (   0.2142857   0.2142857   0.2857143), wk =   0.0087464
        k(   81) = (   0.2142857   0.2142857  -0.2142857), wk =   0.0043732
        k(   82) = (   0.2142857   0.2857143  -0.2857143), wk =   0.0174927
        k(   83) = (   0.2142857   0.3571429  -0.3571429), wk =   0.0174927
        k(   84) = (   0.2142857   0.3571429  -0.2857143), wk =   0.0174927
        k(   85) = (   0.2142857   0.4285714  -0.4285714), wk =   0.0174927
        k(   86) = (   0.2142857   0.4285714  -0.3571429), wk =   0.0349854
        k(   87) = (   0.2142857  -0.5000000  -0.5000000), wk =   0.0087464
        k(   88) = (   0.2142857  -0.5000000  -0.4285714), wk =   0.0349854
        k(   89) = (   0.2142857  -0.5000000  -0.3571429), wk =   0.0174927
        k(   90) = (   0.2142857  -0.4285714  -0.4285714), wk =   0.0174927
        k(   91) = (   0.2857143   0.2857143  -0.2857143), wk =   0.0043732
        k(   92) = (   0.2857143   0.3571429  -0.3571429), wk =   0.0174927
        k(   93) = (   0.2857143   0.4285714  -0.4285714), wk =   0.0174927
        k(   94) = (   0.2857143   0.4285714  -0.3571429), wk =   0.0174927
        k(   95) = (   0.2857143  -0.5000000  -0.5000000), wk =   0.0087464
        k(   96) = (   0.2857143  -0.5000000  -0.4285714), wk =   0.0349854
        k(   97) = (   0.2857143  -0.4285714  -0.4285714), wk =   0.0058309
        k(   98) = (   0.3571429   0.3571429  -0.3571429), wk =   0.0043732
        k(   99) = (   0.3571429   0.4285714  -0.4285714), wk =   0.0174927
        k(  100) = (   0.3571429  -0.5000000  -0.5000000), wk =   0.0087464
        k(  101) = (   0.3571429  -0.5000000  -0.4285714), wk =   0.0174927
        k(  102) = (   0.4285714   0.4285714  -0.4285714), wk =   0.0043732
        k(  103) = (   0.4285714  -0.5000000  -0.5000000), wk =   0.0087464
        k(  104) = (  -0.5000000  -0.5000000  -0.5000000), wk =   0.0007289

     Dense  grid:     3103 G-vectors     FFT dimensions: (  20,  20,  20)

     Dynamical RAM for                 wfc:       0.04 MB

     Dynamical RAM for     wfc (w. buffer):       3.79 MB

     Dynamical RAM for           str. fact:       0.05 MB

     Dynamical RAM for           local pot:       0.00 MB

     Dynamical RAM for          nlocal pot:       0.05 MB

     Dynamical RAM for                qrad:       0.23 MB

     Dynamical RAM for          rho,v,vnew:       0.33 MB

     Dynamical RAM for               rhoin:       0.11 MB

     Dynamical RAM for            rho*nmix:       0.76 MB

     Dynamical RAM for           G-vectors:       0.20 MB

     Dynamical RAM for          h,s,v(r/c):       0.03 MB

     Dynamical RAM for          <psi|beta>:       0.00 MB

     Dynamical RAM for                 psi:       0.14 MB

     Dynamical RAM for                hpsi:       0.14 MB

     Dynamical RAM for                spsi:       0.14 MB

     Dynamical RAM for      wfcinit/wfcrot:       0.07 MB

     Dynamical RAM for           addusdens:       2.89 MB

     Estimated static dynamical RAM per process >       5.91 MB

     Estimated max dynamical RAM per process >       8.80 MB

     Initial potential from superposition of free atoms

     starting charge    2.99753, renormalised to    3.00000
     Starting wfc are    4 randomized atomic wfcs +    2 random wfc

     total cpu time spent up to now is        0.4 secs

     Self-consistent Calculation

     iteration #  1     ecut=    35.00 Ry     beta= 0.70
     Davidson diagonalization with overlap
     ethr =  1.00E-02,  avg # of iterations =  4.8

     Threshold (ethr) on eigenvalues was too large:
     Diagonalizing with lowered threshold

     Davidson diagonalization with overlap
     ethr =  1.89E-04,  avg # of iterations =  1.5

     total cpu time spent up to now is        2.1 secs

     total energy              =      -6.70087056 Ry
     Harris-Foulkes estimate   =      -6.70291479 Ry
     estimated scf accuracy    <       0.00566311 Ry

     iteration #  2     ecut=    35.00 Ry     beta= 0.70
     Davidson diagonalization with overlap
     ethr =  1.89E-04,  avg # of iterations =  1.0

     total cpu time spent up to now is        2.6 secs

     total energy              =      -6.70091040 Ry
     Harris-Foulkes estimate   =      -6.70101392 Ry
     estimated scf accuracy    <       0.00030112 Ry

     iteration #  3     ecut=    35.00 Ry     beta= 0.70
     Davidson diagonalization with overlap
     ethr =  1.00E-05,  avg # of iterations =  1.6

     total cpu time spent up to now is        3.2 secs

     End of self-consistent calculation

          k = 0.0000 0.0000 0.0000 (   381 PWs)   bands (ev):

    -3.2975  20.9701  20.9704  22.0567  22.0567  22.0567

     occupation numbers 
     1.0000   0.0000   0.0000   0.0000   0.0000   0.0000

          k = 0.0000 0.0619-0.0619 (   380 PWs)   bands (ev):

    -3.1517  19.1879  19.9058  20.4007  21.5638  22.6849

     occupation numbers 
     1.0000   0.0000   0.0000   0.0000   0.0000   0.0000

          k = 0.0000 0.1237-0.1237 (   388 PWs)   bands (ev):

    -2.7151  16.3524  18.6663  19.2858  20.5537  21.7289

     occupation numbers 
     1.0000   0.0000   0.0000   0.0000   0.0000   0.0000

          k = 0.0000 0.1856-0.1856 (   390 PWs)   bands (ev):

    -1.9898  13.4520  17.6349  18.1841  19.5487  20.8226

     occupation numbers 
     1.0000   0.0000   0.0000   0.0000   0.0000   0.0000

          k = 0.0000 0.2474-0.2474 (   392 PWs)   bands (ev):

    -0.9797  10.6930  16.8306  17.2699  18.7173  20.0621

     occupation numbers 
     1.0000   0.0000   0.0000   0.0000   0.0000   0.0000

          k = 0.0000 0.3093-0.3093 (   394 PWs)   bands (ev):

     0.3096   8.1367  16.2562  16.5983  18.1084  19.4837

     occupation numbers 
     1.0000   0.0001   0.0000   0.0000   0.0000   0.0000

          k = 0.0000 0.3712-0.3712 (   394 PWs)   bands (ev):

     1.8681   5.8128  15.9117  16.1900  17.7391  19.1226

     occupation numbers 
     1.0000   1.0000   0.0000   0.0000   0.0000   0.0000

          k = 0.0000-0.4330 0.4330 (   392 PWs)   bands (ev):

     3.4822   3.9428  15.7970  16.0532  17.6154  18.9999

     occupation numbers 
     1.0000   1.0000   0.0000   0.0000   0.0000   0.0000

          k = 0.0619 0.0619-0.1237 (   385 PWs)   bands (ev):

    -2.8605  17.8242  17.8771  19.4326  21.6420  22.1562

     occupation numbers 
     1.0000   0.0000   0.0000   0.0000   0.0000   0.0000

          k = 0.0619 0.1237-0.1856 (   391 PWs)   bands (ev):

    -2.2795  14.9730  16.6473  18.3356  20.8704  21.9067

     occupation numbers 
     1.0000   0.0000   0.0000   0.0000   0.0000   0.0000

          k = 0.0619 0.1856-0.2474 (   389 PWs)   bands (ev):

    -1.4118  12.1424  15.6504  17.3873  19.9536  21.5092

     occupation numbers 
     1.0000   0.0000   0.0000   0.0000   0.0000   0.0000

          k = 0.0619 0.2474-0.3093 (   390 PWs)   bands (ev):

    -0.2620   9.4856  14.8898  16.6567  19.2233  20.9897

     occupation numbers 
     1.0000   0.0000   0.0000   0.0000   0.0000   0.0000

          k = 0.0619 0.3093-0.3712 (   393 PWs)   bands (ev):

     1.1626   7.0456  14.3775  16.1643  18.7232  20.5820

     occupation numbers 
     1.0000   1.0000   0.0000   0.0000   0.0000   0.0000

          k = 0.0619 0.3712-0.4330 (   394 PWs)   bands (ev):

     2.8426   4.8554  14.1199  15.9168  18.4697  20.3651

     occupation numbers 
     1.0000   1.0000   0.0000   0.0000   0.0000   0.0000

          k = 0.1237 0.1237-0.2474 (   391 PWs)   bands (ev):

    -1.5561  13.6328  14.0241  17.3622  21.3586  21.4409

     occupation numbers 
     1.0000   0.0000   0.0000   0.0000   0.0000   0.0000

          k = 0.1237 0.1856-0.3093 (   387 PWs)   bands (ev):

    -0.5487  11.0643  12.9522  16.5382  20.6376  22.0763

     occupation numbers 
     1.0000   0.0000   0.0000   0.0000   0.0000   0.0000

          k = 0.1237 0.2474-0.3712 (   385 PWs)   bands (ev):

     0.7370   8.5333  12.2856  15.9298  20.0460  22.6164

     occupation numbers 
     1.0000   0.0000   0.0000   0.0000   0.0000   0.0000

          k = 0.1237 0.3093-0.4330 (   399 PWs)   bands (ev):

     2.2906   6.2226  11.8866  15.5592  19.6789  22.7431

     occupation numbers 
     1.0000   1.0000   0.0000   0.0000   0.0000   0.0000

          k = 0.1237 0.3712-0.4949 (   397 PWs)   bands (ev):

     3.8930   4.3665  11.7535  15.4349  19.5550  22.7304

     occupation numbers 
     1.0000   1.0000   0.0000   0.0000   0.0000   0.0000

          k = 0.1856 0.1856-0.3712 (   390 PWs)   bands (ev):

     0.5948  10.0191  10.5799  15.8337  21.4559  21.7141

     occupation numbers 
     1.0000   0.0000   0.0000   0.0000   0.0000   0.0000

          k = 0.1856 0.2474-0.4330 (   393 PWs)   bands (ev):

     2.0108   7.8331   9.8117  15.3460  21.1344  22.7428

     occupation numbers 
     1.0000   0.3428   0.0000   0.0000   0.0000   0.0000

          k = 0.1856 0.3093-0.4949 (   396 PWs)   bands (ev):

     3.6779   5.6783   9.5254  15.0983  20.9064  23.9418

     occupation numbers 
     1.0000   1.0000   0.0000   0.0000   0.0000   0.0000

          k = 0.2474 0.2474-0.4949 (   393 PWs)   bands (ev):

     3.5469   7.1702   7.7827  14.9814  22.3638  22.5982

     occupation numbers 
     1.0000   1.0000   0.6076   0.0000   0.0000   0.0000

          k = 0.2474 0.3093-0.5567 (   394 PWs)   bands (ev):

     5.1241   5.5750   7.4134  14.8581  22.3733  24.0210

     occupation numbers 
     1.0000   1.0000   1.0015   0.0000   0.0000   0.0000

          k = 0.1237 0.1237-0.1237 (   387 PWs)   bands (ev):

    -2.4246  16.5302  16.5302  16.7644  23.1306  23.1306

     occupation numbers 
     1.0000   0.0000   0.0000   0.0000   0.0000   0.0000

          k = 0.1237 0.1856-0.1856 (   393 PWs)   bands (ev):

    -1.7006  13.6946  15.3762  15.6660  22.5679  22.9906

     occupation numbers 
     1.0000   0.0000   0.0000   0.0000   0.0000   0.0000

          k = 0.1237 0.2474-0.2474 (   386 PWs)   bands (ev):

    -0.6922  10.9502  14.4534  14.8228  21.8977  22.3508

     occupation numbers 
     1.0000   0.0000   0.0000   0.0000   0.0000   0.0000

          k = 0.1237 0.3093-0.3093 (   390 PWs)   bands (ev):

     0.5947   8.4038  13.7862  14.2111  21.3447  21.8474

     occupation numbers 
     1.0000   0.0000   0.0000   0.0000   0.0000   0.0000

          k = 0.1237 0.3712-0.3712 (   398 PWs)   bands (ev):

     2.1499   6.0869  13.3835  13.8406  20.9944  21.5291

     occupation numbers 
     1.0000   1.0000   0.0000   0.0000   0.0000   0.0000

          k = 0.1237 0.4330-0.4330 (   394 PWs)   bands (ev):

     3.7562   4.2260  13.2489  13.7166  20.8751  21.4207

     occupation numbers 
     1.0000   1.0000   0.0000   0.0000   0.0000   0.0000

          k = 0.1237 0.0000-0.0000 (   381 PWs)   bands (ev):

    -3.0060  18.6655  18.6655  20.6635  21.1758  21.2534

     occupation numbers 
     1.0000   0.0000   0.0000   0.0000   0.0000   0.0000

          k = 0.1856 0.1856-0.2474 (   387 PWs)   bands (ev):

    -0.8359  12.4486  12.8867  14.5805  23.3801  23.5824

     occupation numbers 
     1.0000   0.0000   0.0000   0.0000   0.0000   0.0000

          k = 0.1856 0.2474-0.3093 (   393 PWs)   bands (ev):

     0.3097   9.9953  11.9152  13.8206  22.9810  23.9362

     occupation numbers 
     1.0000   0.0000   0.0000   0.0000   0.0000   0.0000

          k = 0.1856 0.3093-0.3712 (   393 PWs)   bands (ev):

     1.7288   7.5823  11.3714  13.3084  22.5653  23.9451

     occupation numbers 
     1.0000   1.0638   0.0000   0.0000   0.0000   0.0000

          k = 0.1856 0.3712-0.4330 (   394 PWs)   bands (ev):

     3.4004   5.4075  11.1014  13.0507  22.3448  23.8529

     occupation numbers 
     1.0000   1.0000   0.0000   0.0000   0.0000   0.0000

          k = 0.1856-0.0619 0.0000 (   392 PWs)   bands (ev):

    -2.5698  16.3805  17.3516  19.6280  20.4871  20.7498

     occupation numbers 
     1.0000   0.0000   0.0000   0.0000   0.0000   0.0000

          k = 0.2474 0.2474-0.3712 (   388 PWs)   bands (ev):

     1.5878   9.0751   9.6508  13.1777  24.0056  24.0567

     occupation numbers 
     1.0000   0.0000   0.0000   0.0000   0.0000   0.0000

          k = 0.2474 0.3093-0.4330 (   390 PWs)   bands (ev):

     3.1309   7.0178   9.0084  12.7891  23.7874  25.1300

     occupation numbers 
     1.0000   1.0000   0.0000   0.0000   0.0000   0.0000

          k = 0.2474 0.3712-0.4949 (   386 PWs)   bands (ev):

     4.7142   5.1966   8.8590  12.6590  23.6917  25.7742

     occupation numbers 
     1.0000   1.0000   0.0000   0.0000   0.0000   0.0000

          k = 0.2474-0.1237 0.0000 (   391 PWs)   bands (ev):

    -1.8451  13.5569  16.2470  18.5313  19.8003  20.6950

     occupation numbers 
     1.0000   0.0000   0.0000   0.0000   0.0000   0.0000

          k = 0.2474-0.0619-0.0619 (   389 PWs)   bands (ev):

    -1.9898  15.0032  15.2370  19.2839  19.2866  20.5664

     occupation numbers 
     1.0000   0.0000   0.0000   0.0000   0.0000   0.0000

          k = 0.3093 0.3093-0.4949 (   392 PWs)   bands (ev):

     4.7727   6.4899   7.1234  12.5287  25.1137  25.2332

     occupation numbers 
     1.0000   1.0000   1.0000   0.0000   0.0000   0.0000

          k = 0.3093-0.1856 0.0000 (   385 PWs)   bands (ev):

    -0.8359  10.8175  15.3767  17.6517  18.9715  20.7526

     occupation numbers 
     1.0000   0.0000   0.0000   0.0000   0.0000   0.0000

          k = 0.3093-0.1237-0.0619 (   389 PWs)   bands (ev):

    -1.1236  12.3660  14.1181  18.3026  19.3471  20.2786

     occupation numbers 
     1.0000   0.0000   0.0000   0.0000   0.0000   0.0000

          k = 0.3712-0.2474-0.0000 (   393 PWs)   bands (ev):

     0.4522   8.2691  14.7502  17.0120  18.3584  20.5204

     occupation numbers 
     1.0000   0.0000   0.0000   0.0000   0.0000   0.0000

          k = 0.3712-0.1856-0.0619 (   391 PWs)   bands (ev):

     0.0241   9.7407  13.3398  17.5566  18.8353  20.8790

     occupation numbers 
     1.0000   0.0000   0.0000   0.0000   0.0000   0.0000

          k = 0.3712-0.1237-0.1237 (   389 PWs)   bands (ev):

    -0.1188  11.2191  11.7140  18.3397  18.9978  19.8747

     occupation numbers 
     1.0000   0.0000   0.0000   0.0000   0.0000   0.0000

          k = 0.4330-0.3093 0.0000 (   396 PWs)   bands (ev):

     2.0091   5.9496  14.3725  16.6239  17.9856  20.2834

     occupation numbers 
     1.0000   1.0000   0.0000   0.0000   0.0000   0.0000

          k = 0.4330-0.2474-0.0619 (   396 PWs)   bands (ev):

     1.4460   7.3139  12.8194  17.0551  18.3794  21.5394

     occupation numbers 
     1.0000   1.0000   0.0000   0.0000   0.0000   0.0000

          k = 0.4330-0.1856-0.1237 (   393 PWs)   bands (ev):

     1.1631   8.9112  10.8466  17.8244  18.8010  20.4714

     occupation numbers 
     1.0000   0.0000   0.0000   0.0000   0.0000   0.0000

          k =-0.3712-0.3712 0.8660 (   394 PWs)   bands (ev):

     3.6191   4.0844  14.2463  16.4939  17.8607  20.1929

     occupation numbers 
     1.0000   1.0000   0.0000   0.0000   0.0000   0.0000

          k =-0.3712-0.3093 0.8042 (   396 PWs)   bands (ev):

     3.1217   5.1318  12.5584  16.8030  18.1386  21.7924

     occupation numbers 
     1.0000   1.0000   0.0000   0.0000   0.0000   0.0000

          k =-0.3712-0.2474 0.7423 (   399 PWs)   bands (ev):

     2.7115   6.6263  10.4317  17.4775  18.4878  21.6734

     occupation numbers 
     1.0000   1.0000   0.0000   0.0000   0.0000   0.0000

          k =-0.3712-0.1856 0.6804 (   400 PWs)   bands (ev):

     2.5727   8.1190   8.7112  17.5152  19.6208  20.2780

     occupation numbers 
     1.0000   0.0001   0.0000   0.0000   0.0000   0.0000

          k =-0.3093-0.3093 0.7423 (   398 PWs)   bands (ev):

     4.3034   4.7852  10.2952  17.3600  18.3719  22.8623

     occupation numbers 
     1.0000   1.0000   0.0000   0.0000   0.0000   0.0000

          k =-0.3093-0.2474 0.6804 (   396 PWs)   bands (ev):

     4.2299   6.2053   8.1991  17.3035  19.6605  21.4245

     occupation numbers 
     1.0000   1.0000   0.0000   0.0000   0.0000   0.0000

          k =-0.2474-0.2474 0.6186 (   394 PWs)   bands (ev):

     5.8061   5.8061   6.6392  17.2087  21.0687  21.7249

     occupation numbers 
     1.0000   1.0000   1.0000   0.0000   0.0000   0.0000

          k = 0.2474 0.2474-0.2474 (   396 PWs)   bands (ev):

     0.1670  11.5123  11.5123  12.3544  25.2249  25.2249

     occupation numbers 
     1.0000   0.0000   0.0000   0.0000   0.0000   0.0000

          k = 0.2474 0.3093-0.3093 (   394 PWs)   bands (ev):

     1.4465   9.1717  10.8388  11.5243  25.2612  25.3595

     occupation numbers 
     1.0000   0.0000   0.0000   0.0000   0.0000   0.0000

          k = 0.2474 0.3712-0.3712 (   396 PWs)   bands (ev):

     2.9916   6.8969  10.4332  11.1079  25.1145  25.1977

     occupation numbers 
     1.0000   1.0000   0.0000   0.0000   0.0000   0.0000

          k = 0.2474 0.4330-0.4330 (   390 PWs)   bands (ev):

     4.5775   5.0635  10.2978  10.9717  25.0472  25.1325

     occupation numbers 
     1.0000   1.0000   0.0000   0.0000   0.0000   0.0000

          k = 0.2474-0.0000 0.0000 (   390 PWs)   bands (ev):

    -2.1346  15.9906  15.9906  18.0567  18.5536  22.1003

     occupation numbers 
     1.0000   0.0000   0.0000   0.0000   0.0000   0.0000

          k = 0.3093 0.3093-0.3712 (   395 PWs)   bands (ev):

     2.8532   8.3975   8.9255  10.7391  26.3435  26.5316

     occupation numbers 
     1.0000   0.0000   0.0000   0.0000   0.0000   0.0000

          k = 0.3093 0.3712-0.4330 (   390 PWs)   bands (ev):

     4.5065   6.4773   8.4421  10.4500  26.4477  27.2018

     occupation numbers 
     1.0000   1.0000   0.0000   0.0000   0.0000   0.0000

          k = 0.3093-0.0619 0.0000 (   392 PWs)   bands (ev):

    -1.4118  13.8226  14.8604  17.0913  18.2219  21.8250

     occupation numbers 
     1.0000   0.0000   0.0000   0.0000   0.0000   0.0000

          k = 0.3712 0.3712-0.4949 (   393 PWs)   bands (ev):

     6.0810   6.0810   6.8949  10.2988  27.4305  27.9372

     occupation numbers 
     1.0000   1.0000   1.0000   0.0000   0.0000   0.0000

          k = 0.3712-0.1237 0.0000 (   393 PWs)   bands (ev):

    -0.4052  11.1809  13.9754  16.2421  18.8698  21.1078

     occupation numbers 
     1.0000   0.0000   0.0000   0.0000   0.0000   0.0000

          k = 0.3712-0.0619-0.0619 (   394 PWs)   bands (ev):

    -0.5486  12.6298  12.9530  16.8130  17.4577  21.7153

     occupation numbers 
     1.0000   0.0000   0.0000   0.0000   0.0000   0.0000

          k = 0.4330-0.1856-0.0000 (   397 PWs)   bands (ev):

     0.8792   8.6629  13.3408  15.5957  19.8233  20.5274

     occupation numbers 
     1.0000   0.0000   0.0000   0.0000   0.0000   0.0000

          k = 0.4330-0.1237-0.0619 (   398 PWs)   bands (ev):

     0.5948  10.2328  12.0398  16.3124  18.0373  21.1537

     occupation numbers 
     1.0000   0.0000   0.0000   0.0000   0.0000   0.0000

          k = 0.4949-0.2474 0.0000 (   400 PWs)   bands (ev):

     2.4311   6.3581  12.9591  15.1995  20.1667  20.8116

     occupation numbers 
     1.0000   1.0000   0.0000   0.0000   0.0000   0.0000

          k = 0.4949-0.1856-0.0619 (   398 PWs)   bands (ev):

     2.0109   7.8444  11.5083  15.8203  19.1250  20.7632

     occupation numbers 
     1.0000   0.2920   0.0000   0.0000   0.0000   0.0000

          k = 0.4949-0.1237-0.1237 (   398 PWs)   bands (ev):

     1.8703   9.3286   9.8652  17.1004  17.6087  20.7128

     occupation numbers 
     1.0000   0.0000   0.0000   0.0000   0.0000   0.0000

          k =-0.3093-0.3093 0.8660 (   398 PWs)   bands (ev):

     4.0297   4.5071  12.8318  15.0664  20.0457  21.2956

     occupation numbers 
     1.0000   1.0000   0.0000   0.0000   0.0000   0.0000

          k =-0.3093-0.2474 0.8042 (   398 PWs)   bands (ev):

     3.6781   5.6808  11.2436  15.5650  19.9925  21.0193

     occupation numbers 
     1.0000   1.0000   0.0000   0.0000   0.0000   0.0000

          k =-0.3093-0.1856 0.7423 (   398 PWs)   bands (ev):

     3.4096   7.2822   9.2422  16.9464  18.6353  20.3855

     occupation numbers 
     1.0000   1.0000   0.0000   0.0000   0.0000   0.0000

          k =-0.2474-0.2474 0.7423 (   398 PWs)   bands (ev):

     4.9864   5.4714   9.0951  16.8310  19.5508  20.2753

     occupation numbers 
     1.0000   1.0000   0.0000   0.0000   0.0000   0.0000

          k =-0.2474-0.1856 0.6804 (   394 PWs)   bands (ev):

     5.0464   6.7579   7.3804  18.2780  18.4550  19.7188

     occupation numbers 
     1.0000   1.0000   1.0005   0.0000   0.0000   0.0000

          k = 0.3712 0.3712-0.3712 (   387 PWs)   bands (ev):

     4.3770   7.9899   7.9899   8.9986  28.2721  28.2721

     occupation numbers 
     1.0000   0.0120   0.0120   0.0000   0.0000   0.0000

          k = 0.3712 0.4330-0.4330 (   398 PWs)   bands (ev):

     5.9446   6.3641   7.8539   8.6708  28.6389  28.8045

     occupation numbers 
     1.0000   1.0000   0.2527   0.0000   0.0000   0.0000

          k = 0.3712-0.0000 0.0000 (   398 PWs)   bands (ev):

    -0.6922  13.7167  13.7167  15.4656  16.5188  23.5080

     occupation numbers 
     1.0000   0.0000   0.0000   0.0000   0.0000   0.0000

          k = 0.4330-0.0619 0.0000 (   402 PWs)   bands (ev):

     0.3098  11.7256  12.8240  14.8870  16.2965  23.4343

     occupation numbers 
     1.0000   0.0000   0.0000   0.0000   0.0000   0.0000

          k = 0.4949-0.1237-0.0000 (   396 PWs)   bands (ev):

     1.5880   9.3032  12.1850  14.3409  17.1829  22.9389

     occupation numbers 
     1.0000   0.0000   0.0000   0.0000   0.0000   0.0000

          k = 0.4949-0.0619-0.0619 (   403 PWs)   bands (ev):

     1.4467  10.7639  11.1360  14.8702  15.7723  23.1976

     occupation numbers 
     1.0000   0.0000   0.0000   0.0000   0.0000   0.0000

          k = 0.5567-0.1856 0.0000 (   400 PWs)   bands (ev):

     3.1313   7.0318  11.8012  13.9589  18.4850  21.7358

     occupation numbers 
     1.0000   1.0000   0.0000   0.0000   0.0000   0.0000

          k = 0.5567-0.1237-0.0619 (   401 PWs)   bands (ev):

     2.8537   8.6157  10.4597  14.6969  16.5636  21.5322

     occupation numbers 
     1.0000   0.0000   0.0000   0.0000   0.0000   0.0000

          k =-0.2474-0.2474 0.8660 (   392 PWs)   bands (ev):

     4.7130   5.2036  11.6732  13.8274  20.0090  20.0525

     occupation numbers 
     1.0000   1.0000   0.0000   0.0000   0.0000   0.0000

          k =-0.2474-0.1856 0.8042 (   401 PWs)   bands (ev):

     4.5078   6.4931  10.1871  14.4739  17.9767  19.6998

     occupation numbers 
     1.0000   1.0000   0.0000   0.0000   0.0000   0.0000

          k =-0.2474-0.1237 0.7423 (   400 PWs)   bands (ev):

     4.3786   7.9733   8.5296  15.7327  16.4127  19.5809

     occupation numbers 
     1.0000   0.0192   0.0000   0.0000   0.0000   0.0000

          k =-0.1856-0.1856 0.7423 (   404 PWs)   bands (ev):

     5.9400   6.3907   8.1840  15.8700  17.4656  18.0381

     occupation numbers 
     1.0000   1.0000   0.0000   0.0000   0.0000   0.0000

          k = 0.4949 0.0000 0.0000 (   410 PWs)   bands (ev):

     1.3051  11.9268  11.9268  13.4413  14.7708  23.5547

     occupation numbers 
     1.0000   0.0000   0.0000   0.0000   0.0000   0.0000

          k = 0.5567-0.0619-0.0000 (   402 PWs)   bands (ev):

     2.5742  10.1344  11.2853  13.1974  14.7550  21.4092

     occupation numbers 
     1.0000   0.0000   0.0000   0.0000   0.0000   0.0000

          k = 0.6186-0.1237 0.0000 (   402 PWs)   bands (ev):

     4.1047   7.9536  10.9001  12.9374  15.8870  19.3763

     occupation numbers 
     1.0000   0.0325   0.0000   0.0000   0.0000   0.0000

          k = 0.6186-0.0619-0.0619 (   404 PWs)   bands (ev):

     3.9680   9.4239   9.8225  13.4793  14.4637  19.2591

     occupation numbers 
     1.0000   0.0000   0.0000   0.0000   0.0000   0.0000

          k =-0.1856-0.1856 0.8660 (   398 PWs)   bands (ev):

     5.6671   6.1595  10.7717  12.8221  17.1941  17.8064

     occupation numbers 
     1.0000   1.0000   0.0000   0.0000   0.0000   0.0000

          k =-0.1856-0.1237 0.8042 (   401 PWs)   bands (ev):

     5.6028   7.5432   9.4005  13.5863  15.4540  17.3395

     occupation numbers 
     1.0000   1.0375   0.0000   0.0000   0.0000   0.0000

          k =-0.1237-0.1237 0.7423 (   400 PWs)   bands (ev):

     7.1585   7.1585   7.9209  14.9095  14.9095  16.1191

     occupation numbers 
     1.0000   1.0000   0.0710   0.0000   0.0000   0.0000

          k = 0.6186 0.0000-0.0000 (   402 PWs)   bands (ev):

     3.8303  10.6422  10.6422  11.9927  13.4212  19.1422

     occupation numbers 
     1.0000   0.0000   0.0000   0.0000   0.0000   0.0000

          k = 0.6804-0.0619 0.0000 (   394 PWs)   bands (ev):

     5.3423   9.0682  10.2563  12.0548  13.6347  17.0625

     occupation numbers 
     1.0000   0.0000   0.0000   0.0000   0.0000   0.0000

          k =-0.1237-0.1237 0.8660 (   394 PWs)   bands (ev):

     6.8866   7.3445  10.1276  12.0434  14.6348  15.6266

     occupation numbers 
     1.0000   1.0001   0.0000   0.0000   0.0000   0.0000

          k =-0.1237-0.0619 0.8042 (   392 PWs)   bands (ev):

     6.9441   8.6174   9.0412  12.6445  13.4299  15.2275

     occupation numbers 
     1.0000   0.0000   0.0000   0.0000   0.0000   0.0000

          k = 0.7423-0.0000 0.0000 (   394 PWs)   bands (ev):

     6.8247   9.8699   9.8699  11.1227  12.4307  15.0252

     occupation numbers 
     1.0000   0.0000   0.0000   0.0000   0.0000   0.0000

          k =-0.0619-0.0619 0.8660 (   390 PWs)   bands (ev):

     8.3482   8.6736   9.7411  11.3938  12.3662  13.8579

     occupation numbers 
     0.0000   0.0000   0.0000   0.0000   0.0000   0.0000

          k =-0.8660-0.8660 0.8660 (   370 PWs)   bands (ev):

     9.6123   9.6123   9.6123  10.8327  10.8327  13.1142

     occupation numbers 
     0.0000   0.0000   0.0000   0.0000   0.0000   0.0000

     the Fermi energy is     7.8212 ev

!    total energy              =      -6.70092472 Ry
     Harris-Foulkes estimate   =      -6.70092468 Ry
     estimated scf accuracy    <       0.00000080 Ry

     The total energy is the sum of the following terms:

     one-electron contribution =       2.96226563 Ry
     hartree contribution      =       0.00559323 Ry
     xc contribution           =      -4.28685960 Ry
     ewald contribution        =      -5.38183349 Ry
     smearing contrib. (-TS)   =      -0.00009048 Ry

     convergence has been achieved in   3 iterations
 
     init_run     :      4.91s CPU      0.34s WALL (       1 calls)
     electrons    :     38.74s CPU      2.77s WALL (       1 calls)

     Called by init_run:
     wfcinit      :      4.70s CPU      0.25s WALL (       1 calls)
     wfcinit:atom :      0.13s CPU      0.01s WALL (     104 calls)
     wfcinit:wfcr :      4.28s CPU      0.23s WALL (     104 calls)
     potinit      :      0.01s CPU      0.00s WALL (       1 calls)

     Called by electrons:
     c_bands      :     34.89s CPU      2.43s WALL (       4 calls)
     sum_band     :      3.57s CPU      0.32s WALL (       4 calls)
     v_of_rho     :      0.07s CPU      0.01s WALL (       4 calls)
     v_h          :      0.00s CPU      0.00s WALL (       4 calls)
     v_xc         :      0.06s CPU      0.01s WALL (       4 calls)
     newd         :      0.18s CPU      0.01s WALL (       4 calls)
     mix_rho      :      0.01s CPU      0.00s WALL (       4 calls)

     Called by c_bands:
     init_us_2    :      0.91s CPU      0.07s WALL (     936 calls)
     cegterg      :     31.86s CPU      2.18s WALL (     416 calls)

     Called by sum_band:
     sum_band:bec :      0.08s CPU      0.01s WALL (     416 calls)
     addusdens    :      0.08s CPU      0.01s WALL (       4 calls)

     Called by *egterg:
     h_psi        :     30.23s CPU      2.03s WALL (    1444 calls)
     s_psi        :      0.33s CPU      0.02s WALL (    1444 calls)
     g_psi        :      0.16s CPU      0.01s WALL (     924 calls)
     cdiaghg      :      1.83s CPU      0.12s WALL (    1236 calls)
     cegterg:over :      0.47s CPU      0.03s WALL (     924 calls)
     cegterg:upda :      0.38s CPU      0.03s WALL (     924 calls)
     cegterg:last :      0.29s CPU      0.02s WALL (     474 calls)

     Called by h_psi:
     h_psi:pot    :     29.85s CPU      2.01s WALL (    1444 calls)
     h_psi:calbec :      0.57s CPU      0.04s WALL (    1444 calls)
     vloc_psi     :     28.30s CPU      1.91s WALL (    1444 calls)
     add_vuspsi   :      0.41s CPU      0.03s WALL (    1444 calls)

     General routines
     calbec       :      0.36s CPU      0.03s WALL (    1860 calls)
     fft          :      0.03s CPU      0.02s WALL (      54 calls)
     fftw         :     25.57s CPU      1.81s WALL (   16754 calls)
 
     Parallel routines
 
     PWSCF        :    43.82s CPU         3.18s WALL

 
   This run was terminated on:  19: 9:23  30Jan2019            

=------------------------------------------------------------------------------=
   JOB DONE.
=------------------------------------------------------------------------------=
