
     Program PWSCF v.6.2 (svn rev. 14038) starts on 24Jan2019 at 12:26:39 

     This program is part of the open-source Quantum ESPRESSO suite
     for quantum simulation of materials; please cite
         "P. Giannozzi et al., J. Phys.:Condens. Matter 21 395502 (2009);
         "P. Giannozzi et al., J. Phys.:Condens. Matter 29 465901 (2017);
          URL http://www.quantum-espresso.org", 
     in publications or presentations arising from this work. More details at
     http://www.quantum-espresso.org/quote

     Parallel version (MPI), running on     1 processors

     MPI processes distributed on     1 nodes
     Reading input from ./Al18.in
Warning: card &IONS ignored
Warning: card / ignored
Warning: card &CELL ignored
Warning: card / ignored

     Current dimensions of program PWSCF are:
     Max number of different atomic species (ntypx) = 10
     Max number of k-points (npk) =  40000
     Max angular momentum in pseudopotentials (lmaxx) =  3
     Message from routine iosys:
     minimal I/O required, wf_collect reset to FALSE

     Subspace diagonalization in iterative solution of the eigenvalue problem:
     a serial algorithm will be used

 
     G-vector sticks info
     --------------------
     sticks:   dense  smooth     PW     G-vecs:    dense   smooth      PW
     Sum         283     283     97                 3119     3119     645
 


     bravais-lattice index     =            0
     lattice parameter (alat)  =       5.3970  a.u.
     unit-cell volume          =     111.1567 (a.u.)^3
     number of atoms/cell      =            1
     number of atomic types    =            1
     number of electrons       =         3.00
     number of Kohn-Sham states=            6
     kinetic-energy cutoff     =      35.0000  Ry
     charge density cutoff     =     140.0000  Ry
     convergence threshold     =      1.0E-05
     mixing beta               =       0.7000
     number of iterations used =            8  plain     mixing
     Exchange-correlation      = SLA  PZ   NOGX NOGC ( 1  1  0  0 0 0)

     celldm(1)=   5.396971  celldm(2)=   0.000000  celldm(3)=   0.000000
     celldm(4)=   0.000000  celldm(5)=   0.000000  celldm(6)=   0.000000

     crystal axes: (cart. coord. in units of alat)
               a(1) = (   0.866025   0.000000   0.500000 )  
               a(2) = (   0.288675   0.816497   0.500000 )  
               a(3) = (   0.000000   0.000000   1.000000 )  

     reciprocal axes: (cart. coord. in units 2 pi/alat)
               b(1) = (  1.154701 -0.408248  0.000000 )  
               b(2) = (  0.000000  1.224745  0.000000 )  
               b(3) = ( -0.577350 -0.408248  1.000000 )  


     PseudoPot. # 1 for Al read from file:
     ./al_lda_v1.uspp.F.UPF
     MD5 check sum: 51a9e5980debfdd3404790b200e14add
     Pseudo is Ultrasoft + core correction, Zval =  3.0
     Generated by new atomic code, or converted to UPF format
     Using radial grid of  893 points,  3 beta functions with: 
                l(1) =   0
                l(2) =   1
                l(3) =   2
     Q(r) pseudized with  8 coefficients,  rinner =    0.900   0.900   0.900
                                                       0.900   0.900

     atomic species   valence    mass     pseudopotential
        Al             3.00    26.98150     Al( 1.00)

      4 Sym. Ops., with inversion, found


                                    s                        frac. trans.

      isym =  1     identity                                     

 cryst.   s( 1) = (     1          0          0      )
                  (     0          1          0      )
                  (     0          0          1      )

 cart.    s( 1) = (  1.0000000  0.0000000  0.0000000 )
                  (  0.0000000  1.0000000  0.0000000 )
                  (  0.0000000 -0.0000000  1.0000000 )


      isym =  2     180 deg rotation - cart. axis [0,0,1]        

 cryst.   s( 2) = (    -1          0          1      )
                  (     0         -1          1      )
                  (     0          0          1      )

 cart.    s( 2) = ( -1.0000000  0.0000000  0.0000000 )
                  (  0.0000000 -1.0000000  0.0000000 )
                  (  0.0000004  0.0000003  1.0000000 )


      isym =  3     inversion                                    

 cryst.   s( 3) = (    -1          0          0      )
                  (     0         -1          0      )
                  (     0          0         -1      )

 cart.    s( 3) = ( -1.0000000  0.0000000  0.0000000 )
                  (  0.0000000 -1.0000000  0.0000000 )
                  ( -0.0000000  0.0000000 -1.0000000 )


      isym =  4     inv. 180 deg rotation - cart. axis [0,0,1]   

 cryst.   s( 4) = (     1          0         -1      )
                  (     0          1         -1      )
                  (     0          0         -1      )

 cart.    s( 4) = (  1.0000000  0.0000000  0.0000000 )
                  (  0.0000000  1.0000000  0.0000000 )
                  ( -0.0000004 -0.0000003 -1.0000000 )


   Cartesian axes

     site n.     atom                  positions (alat units)
         1           Al  tau(   1) = (   0.0000000   0.0000000   0.0000000  )

   Crystallographic axes

     site n.     atom                  positions (cryst. coord.)
         1           Al  tau(   1) = (  0.0000000  0.0000000  0.0000000  )

     number of k points=  1550  Marzari-Vanderbilt smearing, width (Ry)=  0.0100
                       cart. coord. in units 2pi/alat
        k(    1) = (   0.0000000   0.0000000   0.0000000), wk =   0.0003429
        k(    2) = (  -0.0320750  -0.0226805   0.0555555), wk =   0.0013717
        k(    3) = (  -0.0641500  -0.0453609   0.1111111), wk =   0.0013717
        k(    4) = (  -0.0962250  -0.0680414   0.1666666), wk =   0.0013717
        k(    5) = (  -0.1283000  -0.0907218   0.2222222), wk =   0.0013717
        k(    6) = (  -0.1603750  -0.1134023   0.2777777), wk =   0.0013717
        k(    7) = (  -0.1924500  -0.1360827   0.3333332), wk =   0.0013717
        k(    8) = (  -0.2245250  -0.1587632   0.3888888), wk =   0.0013717
        k(    9) = (  -0.2566000  -0.1814436   0.4444443), wk =   0.0013717
        k(   10) = (   0.2886750   0.2041241  -0.4999999), wk =   0.0006859
        k(   11) = (   0.0000000   0.0680414   0.0000000), wk =   0.0006859
        k(   12) = (  -0.0320750   0.0453609   0.0555555), wk =   0.0013717
        k(   13) = (  -0.0641500   0.0226805   0.1111111), wk =   0.0013717
        k(   14) = (  -0.0962250   0.0000000   0.1666666), wk =   0.0013717
        k(   15) = (  -0.1283000  -0.0226804   0.2222222), wk =   0.0013717
        k(   16) = (  -0.1603750  -0.0453609   0.2777777), wk =   0.0013717
        k(   17) = (  -0.1924500  -0.0680413   0.3333332), wk =   0.0013717
        k(   18) = (  -0.2245250  -0.0907218   0.3888888), wk =   0.0013717
        k(   19) = (  -0.2566000  -0.1134022   0.4444443), wk =   0.0013717
        k(   20) = (   0.2886750   0.2721654  -0.4999999), wk =   0.0013717
        k(   21) = (   0.2566000   0.2494850  -0.4444443), wk =   0.0013717
        k(   22) = (   0.2245250   0.2268045  -0.3888888), wk =   0.0013717
        k(   23) = (   0.1924500   0.2041241  -0.3333332), wk =   0.0013717
        k(   24) = (   0.1603750   0.1814436  -0.2777777), wk =   0.0013717
        k(   25) = (   0.1283000   0.1587632  -0.2222222), wk =   0.0013717
        k(   26) = (   0.0962250   0.1360827  -0.1666666), wk =   0.0013717
        k(   27) = (   0.0641500   0.1134023  -0.1111111), wk =   0.0013717
        k(   28) = (   0.0320750   0.0907218  -0.0555555), wk =   0.0013717
        k(   29) = (   0.0000000   0.1360828   0.0000000), wk =   0.0006859
        k(   30) = (  -0.0320750   0.1134023   0.0555555), wk =   0.0013717
        k(   31) = (  -0.0641500   0.0907219   0.1111111), wk =   0.0013717
        k(   32) = (  -0.0962250   0.0680414   0.1666666), wk =   0.0013717
        k(   33) = (  -0.1283000   0.0453610   0.2222222), wk =   0.0013717
        k(   34) = (  -0.1603750   0.0226805   0.2777777), wk =   0.0013717
        k(   35) = (  -0.1924500   0.0000000   0.3333332), wk =   0.0013717
        k(   36) = (  -0.2245250  -0.0226804   0.3888888), wk =   0.0013717
        k(   37) = (  -0.2566000  -0.0453609   0.4444443), wk =   0.0013717
        k(   38) = (   0.2886750   0.3402068  -0.4999999), wk =   0.0013717
        k(   39) = (   0.2566000   0.3175264  -0.4444443), wk =   0.0013717
        k(   40) = (   0.2245250   0.2948459  -0.3888888), wk =   0.0013717
        k(   41) = (   0.1924500   0.2721655  -0.3333332), wk =   0.0013717
        k(   42) = (   0.1603750   0.2494850  -0.2777777), wk =   0.0013717
        k(   43) = (   0.1283000   0.2268046  -0.2222222), wk =   0.0013717
        k(   44) = (   0.0962250   0.2041241  -0.1666666), wk =   0.0013717
        k(   45) = (   0.0641500   0.1814437  -0.1111111), wk =   0.0013717
        k(   46) = (   0.0320750   0.1587632  -0.0555555), wk =   0.0013717
        k(   47) = (   0.0000000   0.2041241   0.0000000), wk =   0.0006859
        k(   48) = (  -0.0320750   0.1814437   0.0555555), wk =   0.0013717
        k(   49) = (  -0.0641500   0.1587632   0.1111111), wk =   0.0013717
        k(   50) = (  -0.0962250   0.1360828   0.1666666), wk =   0.0013717
        k(   51) = (  -0.1283000   0.1134023   0.2222222), wk =   0.0013717
        k(   52) = (  -0.1603750   0.0907219   0.2777777), wk =   0.0013717
        k(   53) = (  -0.1924500   0.0680414   0.3333332), wk =   0.0013717
        k(   54) = (  -0.2245250   0.0453610   0.3888888), wk =   0.0013717
        k(   55) = (  -0.2566000   0.0226805   0.4444443), wk =   0.0013717
        k(   56) = (   0.2886750   0.4082482  -0.4999999), wk =   0.0013717
        k(   57) = (   0.2566000   0.3855677  -0.4444443), wk =   0.0013717
        k(   58) = (   0.2245250   0.3628873  -0.3888888), wk =   0.0013717
        k(   59) = (   0.1924500   0.3402068  -0.3333332), wk =   0.0013717
        k(   60) = (   0.1603750   0.3175264  -0.2777777), wk =   0.0013717
        k(   61) = (   0.1283000   0.2948459  -0.2222222), wk =   0.0013717
        k(   62) = (   0.0962250   0.2721655  -0.1666666), wk =   0.0013717
        k(   63) = (   0.0641500   0.2494850  -0.1111111), wk =   0.0013717
        k(   64) = (   0.0320750   0.2268046  -0.0555555), wk =   0.0013717
        k(   65) = (   0.0000000   0.2721655   0.0000000), wk =   0.0006859
        k(   66) = (  -0.0320750   0.2494851   0.0555555), wk =   0.0013717
        k(   67) = (  -0.0641500   0.2268046   0.1111111), wk =   0.0013717
        k(   68) = (  -0.0962250   0.2041242   0.1666666), wk =   0.0013717
        k(   69) = (  -0.1283000   0.1814437   0.2222222), wk =   0.0013717
        k(   70) = (  -0.1603750   0.1587633   0.2777777), wk =   0.0013717
        k(   71) = (  -0.1924500   0.1360828   0.3333332), wk =   0.0013717
        k(   72) = (  -0.2245250   0.1134024   0.3888888), wk =   0.0013717
        k(   73) = (  -0.2566000   0.0907219   0.4444443), wk =   0.0013717
        k(   74) = (   0.2886750   0.4762896  -0.4999999), wk =   0.0013717
        k(   75) = (   0.2566000   0.4536091  -0.4444443), wk =   0.0013717
        k(   76) = (   0.2245250   0.4309287  -0.3888888), wk =   0.0013717
        k(   77) = (   0.1924500   0.4082482  -0.3333332), wk =   0.0013717
        k(   78) = (   0.1603750   0.3855678  -0.2777777), wk =   0.0013717
        k(   79) = (   0.1283000   0.3628873  -0.2222222), wk =   0.0013717
        k(   80) = (   0.0962250   0.3402069  -0.1666666), wk =   0.0013717
        k(   81) = (   0.0641500   0.3175264  -0.1111111), wk =   0.0013717
        k(   82) = (   0.0320750   0.2948460  -0.0555555), wk =   0.0013717
        k(   83) = (   0.0000000   0.3402069   0.0000000), wk =   0.0006859
        k(   84) = (  -0.0320750   0.3175264   0.0555555), wk =   0.0013717
        k(   85) = (  -0.0641500   0.2948460   0.1111111), wk =   0.0013717
        k(   86) = (  -0.0962250   0.2721655   0.1666666), wk =   0.0013717
        k(   87) = (  -0.1283000   0.2494851   0.2222222), wk =   0.0013717
        k(   88) = (  -0.1603750   0.2268046   0.2777777), wk =   0.0013717
        k(   89) = (  -0.1924500   0.2041242   0.3333332), wk =   0.0013717
        k(   90) = (  -0.2245250   0.1814437   0.3888888), wk =   0.0013717
        k(   91) = (  -0.2566000   0.1587633   0.4444443), wk =   0.0013717
        k(   92) = (   0.2886750   0.5443310  -0.4999999), wk =   0.0013717
        k(   93) = (   0.2566000   0.5216505  -0.4444443), wk =   0.0013717
        k(   94) = (   0.2245250   0.4989701  -0.3888888), wk =   0.0013717
        k(   95) = (   0.1924500   0.4762896  -0.3333332), wk =   0.0013717
        k(   96) = (   0.1603750   0.4536091  -0.2777777), wk =   0.0013717
        k(   97) = (   0.1283000   0.4309287  -0.2222222), wk =   0.0013717
        k(   98) = (   0.0962250   0.4082482  -0.1666666), wk =   0.0013717
        k(   99) = (   0.0641500   0.3855678  -0.1111111), wk =   0.0013717
        k(  100) = (   0.0320750   0.3628873  -0.0555555), wk =   0.0013717
        k(  101) = (   0.0000000   0.4082483   0.0000000), wk =   0.0006859
        k(  102) = (  -0.0320750   0.3855678   0.0555555), wk =   0.0013717
        k(  103) = (  -0.0641500   0.3628874   0.1111111), wk =   0.0013717
        k(  104) = (  -0.0962250   0.3402069   0.1666666), wk =   0.0013717
        k(  105) = (  -0.1283000   0.3175265   0.2222222), wk =   0.0013717
        k(  106) = (  -0.1603750   0.2948460   0.2777777), wk =   0.0013717
        k(  107) = (  -0.1924500   0.2721656   0.3333332), wk =   0.0013717
        k(  108) = (  -0.2245250   0.2494851   0.3888888), wk =   0.0013717
        k(  109) = (  -0.2566000   0.2268047   0.4444443), wk =   0.0013717
        k(  110) = (   0.2886750   0.6123723  -0.4999999), wk =   0.0013717
        k(  111) = (   0.2566000   0.5896919  -0.4444443), wk =   0.0013717
        k(  112) = (   0.2245250   0.5670114  -0.3888888), wk =   0.0013717
        k(  113) = (   0.1924500   0.5443310  -0.3333332), wk =   0.0013717
        k(  114) = (   0.1603750   0.5216505  -0.2777777), wk =   0.0013717
        k(  115) = (   0.1283000   0.4989701  -0.2222222), wk =   0.0013717
        k(  116) = (   0.0962250   0.4762896  -0.1666666), wk =   0.0013717
        k(  117) = (   0.0641500   0.4536092  -0.1111111), wk =   0.0013717
        k(  118) = (   0.0320750   0.4309287  -0.0555555), wk =   0.0013717
        k(  119) = (   0.0000000   0.4762896   0.0000000), wk =   0.0006859
        k(  120) = (  -0.0320750   0.4536092   0.0555555), wk =   0.0013717
        k(  121) = (  -0.0641500   0.4309287   0.1111111), wk =   0.0013717
        k(  122) = (  -0.0962250   0.4082483   0.1666666), wk =   0.0013717
        k(  123) = (  -0.1283000   0.3855678   0.2222222), wk =   0.0013717
        k(  124) = (  -0.1603750   0.3628874   0.2777777), wk =   0.0013717
        k(  125) = (  -0.1924500   0.3402069   0.3333332), wk =   0.0013717
        k(  126) = (  -0.2245250   0.3175265   0.3888888), wk =   0.0013717
        k(  127) = (  -0.2566000   0.2948460   0.4444443), wk =   0.0013717
        k(  128) = (   0.2886750   0.6804137  -0.4999999), wk =   0.0013717
        k(  129) = (   0.2566000   0.6577333  -0.4444443), wk =   0.0013717
        k(  130) = (   0.2245250   0.6350528  -0.3888888), wk =   0.0013717
        k(  131) = (   0.1924500   0.6123724  -0.3333332), wk =   0.0013717
        k(  132) = (   0.1603750   0.5896919  -0.2777777), wk =   0.0013717
        k(  133) = (   0.1283000   0.5670115  -0.2222222), wk =   0.0013717
        k(  134) = (   0.0962250   0.5443310  -0.1666666), wk =   0.0013717
        k(  135) = (   0.0641500   0.5216505  -0.1111111), wk =   0.0013717
        k(  136) = (   0.0320750   0.4989701  -0.0555555), wk =   0.0013717
        k(  137) = (   0.0000000   0.5443310   0.0000000), wk =   0.0006859
        k(  138) = (  -0.0320750   0.5216506   0.0555555), wk =   0.0013717
        k(  139) = (  -0.0641500   0.4989701   0.1111111), wk =   0.0013717
        k(  140) = (  -0.0962250   0.4762897   0.1666666), wk =   0.0013717
        k(  141) = (  -0.1283000   0.4536092   0.2222222), wk =   0.0013717
        k(  142) = (  -0.1603750   0.4309288   0.2777777), wk =   0.0013717
        k(  143) = (  -0.1924500   0.4082483   0.3333332), wk =   0.0013717
        k(  144) = (  -0.2245250   0.3855679   0.3888888), wk =   0.0013717
        k(  145) = (  -0.2566000   0.3628874   0.4444443), wk =   0.0013717
        k(  146) = (   0.2886750   0.7484551  -0.4999999), wk =   0.0013717
        k(  147) = (   0.2566000   0.7257746  -0.4444443), wk =   0.0013717
        k(  148) = (   0.2245250   0.7030942  -0.3888888), wk =   0.0013717
        k(  149) = (   0.1924500   0.6804137  -0.3333332), wk =   0.0013717
        k(  150) = (   0.1603750   0.6577333  -0.2777777), wk =   0.0013717
        k(  151) = (   0.1283000   0.6350528  -0.2222222), wk =   0.0013717
        k(  152) = (   0.0962250   0.6123724  -0.1666666), wk =   0.0013717
        k(  153) = (   0.0641500   0.5896919  -0.1111111), wk =   0.0013717
        k(  154) = (   0.0320750   0.5670115  -0.0555555), wk =   0.0013717
        k(  155) = (   0.0000000  -0.6123724   0.0000000), wk =   0.0003429
        k(  156) = (  -0.0320750  -0.6350529   0.0555555), wk =   0.0013717
        k(  157) = (  -0.0641500  -0.6577333   0.1111111), wk =   0.0013717
        k(  158) = (  -0.0962250  -0.6804138   0.1666666), wk =   0.0013717
        k(  159) = (  -0.1283000  -0.7030942   0.2222222), wk =   0.0013717
        k(  160) = (  -0.1603750  -0.7257747   0.2777777), wk =   0.0013717
        k(  161) = (  -0.1924500  -0.7484551   0.3333332), wk =   0.0013717
        k(  162) = (  -0.2245250  -0.7711356   0.3888888), wk =   0.0013717
        k(  163) = (  -0.2566000  -0.7938160   0.4444443), wk =   0.0013717
        k(  164) = (   0.2886750  -0.4082483  -0.4999999), wk =   0.0006859
        k(  165) = (   0.0641500  -0.0226805   0.0000000), wk =   0.0006859
        k(  166) = (   0.0000000  -0.0680414   0.1111111), wk =   0.0013717
        k(  167) = (  -0.0320750  -0.0907218   0.1666666), wk =   0.0013717
        k(  168) = (  -0.0641500  -0.1134023   0.2222222), wk =   0.0013717
        k(  169) = (  -0.0962250  -0.1360827   0.2777777), wk =   0.0013717
        k(  170) = (  -0.1283000  -0.1587632   0.3333332), wk =   0.0013717
        k(  171) = (  -0.1603750  -0.1814436   0.3888888), wk =   0.0013717
        k(  172) = (  -0.1924500  -0.2041241   0.4444443), wk =   0.0013717
        k(  173) = (   0.3528251   0.1814436  -0.4999999), wk =   0.0013717
        k(  174) = (   0.3207501   0.1587632  -0.4444443), wk =   0.0013717
        k(  175) = (   0.2886750   0.1360827  -0.3888888), wk =   0.0013717
        k(  176) = (   0.2566000   0.1134022  -0.3333332), wk =   0.0013717
        k(  177) = (   0.2245250   0.0907218  -0.2777777), wk =   0.0013717
        k(  178) = (   0.1924500   0.0680413  -0.2222222), wk =   0.0013717
        k(  179) = (   0.1603750   0.0453609  -0.1666666), wk =   0.0013717
        k(  180) = (   0.1283000   0.0226804  -0.1111111), wk =   0.0013717
        k(  181) = (   0.0962250  -0.0000000  -0.0555555), wk =   0.0013717
        k(  182) = (   0.0641500   0.0453609   0.0000000), wk =   0.0006859
        k(  183) = (   0.0000000   0.0000000   0.1111111), wk =   0.0006859
        k(  184) = (  -0.0320750  -0.0226804   0.1666666), wk =   0.0013717
        k(  185) = (  -0.0641500  -0.0453609   0.2222222), wk =   0.0013717
        k(  186) = (  -0.0962250  -0.0680413   0.2777777), wk =   0.0013717
        k(  187) = (  -0.1283000  -0.0907218   0.3333332), wk =   0.0013717
        k(  188) = (  -0.1603750  -0.1134022   0.3888888), wk =   0.0013717
        k(  189) = (  -0.1924500  -0.1360827   0.4444443), wk =   0.0013717
        k(  190) = (   0.3528251   0.2494850  -0.4999999), wk =   0.0013717
        k(  191) = (   0.3207501   0.2268045  -0.4444443), wk =   0.0013717
        k(  192) = (   0.2886750   0.2041241  -0.3888888), wk =   0.0013717
        k(  193) = (   0.2566000   0.1814436  -0.3333332), wk =   0.0013717
        k(  194) = (   0.2245250   0.1587632  -0.2777777), wk =   0.0013717
        k(  195) = (   0.1924500   0.1360827  -0.2222222), wk =   0.0013717
        k(  196) = (   0.1603750   0.1134023  -0.1666666), wk =   0.0013717
        k(  197) = (   0.1283000   0.0907218  -0.1111111), wk =   0.0013717
        k(  198) = (   0.0962250   0.0680414  -0.0555555), wk =   0.0013717
        k(  199) = (   0.0641500   0.1134023   0.0000000), wk =   0.0006859
        k(  200) = (  -0.0320750   0.0453609   0.1666666), wk =   0.0013717
        k(  201) = (  -0.0641500   0.0226805   0.2222222), wk =   0.0013717
        k(  202) = (  -0.0962250   0.0000000   0.2777777), wk =   0.0013717
        k(  203) = (  -0.1283000  -0.0226804   0.3333332), wk =   0.0013717
        k(  204) = (  -0.1603750  -0.0453609   0.3888888), wk =   0.0013717
        k(  205) = (  -0.1924500  -0.0680413   0.4444443), wk =   0.0013717
        k(  206) = (   0.3528251   0.3175264  -0.4999999), wk =   0.0013717
        k(  207) = (   0.3207501   0.2948459  -0.4444443), wk =   0.0013717
        k(  208) = (   0.2886750   0.2721655  -0.3888888), wk =   0.0013717
        k(  209) = (   0.2566000   0.2494850  -0.3333332), wk =   0.0013717
        k(  210) = (   0.2245250   0.2268046  -0.2777777), wk =   0.0013717
        k(  211) = (   0.1924500   0.2041241  -0.2222222), wk =   0.0013717
        k(  212) = (   0.1603750   0.1814437  -0.1666666), wk =   0.0013717
        k(  213) = (   0.1283000   0.1587632  -0.1111111), wk =   0.0013717
        k(  214) = (   0.0962250   0.1360827  -0.0555555), wk =   0.0013717
        k(  215) = (   0.0641500   0.1814437   0.0000000), wk =   0.0006859
        k(  216) = (   0.0000000   0.1360828   0.1111111), wk =   0.0013717
        k(  217) = (  -0.0320750   0.1134023   0.1666666), wk =   0.0013717
        k(  218) = (  -0.0641500   0.0907219   0.2222222), wk =   0.0013717
        k(  219) = (  -0.0962250   0.0680414   0.2777777), wk =   0.0013717
        k(  220) = (  -0.1283000   0.0453610   0.3333332), wk =   0.0013717
        k(  221) = (  -0.1603750   0.0226805   0.3888888), wk =   0.0013717
        k(  222) = (  -0.1924500   0.0000001   0.4444443), wk =   0.0013717
        k(  223) = (   0.3528251   0.3855677  -0.4999999), wk =   0.0013717
        k(  224) = (   0.3207501   0.3628873  -0.4444443), wk =   0.0013717
        k(  225) = (   0.2886750   0.3402068  -0.3888888), wk =   0.0013717
        k(  226) = (   0.2566000   0.3175264  -0.3333332), wk =   0.0013717
        k(  227) = (   0.2245250   0.2948459  -0.2777777), wk =   0.0013717
        k(  228) = (   0.1924500   0.2721655  -0.2222222), wk =   0.0013717
        k(  229) = (   0.1603750   0.2494850  -0.1666666), wk =   0.0013717
        k(  230) = (   0.1283000   0.2268046  -0.1111111), wk =   0.0013717
        k(  231) = (   0.0962250   0.2041241  -0.0555555), wk =   0.0013717
        k(  232) = (   0.0641500   0.2494851   0.0000000), wk =   0.0006859
        k(  233) = (   0.0000000   0.2041242   0.1111111), wk =   0.0013717
        k(  234) = (  -0.0320750   0.1814437   0.1666666), wk =   0.0013717
        k(  235) = (  -0.0641500   0.1587632   0.2222222), wk =   0.0013717
        k(  236) = (  -0.0962250   0.1360828   0.2777777), wk =   0.0013717
        k(  237) = (  -0.1283000   0.1134023   0.3333332), wk =   0.0013717
        k(  238) = (  -0.1603750   0.0907219   0.3888888), wk =   0.0013717
        k(  239) = (  -0.1924500   0.0680414   0.4444443), wk =   0.0013717
        k(  240) = (   0.3528251   0.4536091  -0.4999999), wk =   0.0013717
        k(  241) = (   0.3207501   0.4309287  -0.4444443), wk =   0.0013717
        k(  242) = (   0.2886750   0.4082482  -0.3888888), wk =   0.0013717
        k(  243) = (   0.2566000   0.3855678  -0.3333332), wk =   0.0013717
        k(  244) = (   0.2245250   0.3628873  -0.2777777), wk =   0.0013717
        k(  245) = (   0.1924500   0.3402069  -0.2222222), wk =   0.0013717
        k(  246) = (   0.1603750   0.3175264  -0.1666666), wk =   0.0013717
        k(  247) = (   0.1283000   0.2948460  -0.1111111), wk =   0.0013717
        k(  248) = (   0.0962250   0.2721655  -0.0555555), wk =   0.0013717
        k(  249) = (   0.0641500   0.3175264   0.0000000), wk =   0.0006859
        k(  250) = (   0.0000000   0.2721655   0.1111111), wk =   0.0013717
        k(  251) = (  -0.0320750   0.2494851   0.1666666), wk =   0.0013717
        k(  252) = (  -0.0641500   0.2268046   0.2222222), wk =   0.0013717
        k(  253) = (  -0.0962250   0.2041242   0.2777777), wk =   0.0013717
        k(  254) = (  -0.1283000   0.1814437   0.3333332), wk =   0.0013717
        k(  255) = (  -0.1603750   0.1587633   0.3888888), wk =   0.0013717
        k(  256) = (  -0.1924500   0.1360828   0.4444443), wk =   0.0013717
        k(  257) = (   0.3528251   0.5216505  -0.4999999), wk =   0.0013717
        k(  258) = (   0.3207501   0.4989700  -0.4444443), wk =   0.0013717
        k(  259) = (   0.2886750   0.4762896  -0.3888888), wk =   0.0013717
        k(  260) = (   0.2566000   0.4536091  -0.3333332), wk =   0.0013717
        k(  261) = (   0.2245250   0.4309287  -0.2777777), wk =   0.0013717
        k(  262) = (   0.1924500   0.4082482  -0.2222222), wk =   0.0013717
        k(  263) = (   0.1603750   0.3855678  -0.1666666), wk =   0.0013717
        k(  264) = (   0.1283000   0.3628873  -0.1111111), wk =   0.0013717
        k(  265) = (   0.0962250   0.3402069  -0.0555555), wk =   0.0013717
        k(  266) = (   0.0641500   0.3855678   0.0000000), wk =   0.0006859
        k(  267) = (   0.0000000   0.3402069   0.1111111), wk =   0.0013717
        k(  268) = (  -0.0320750   0.3175265   0.1666666), wk =   0.0013717
        k(  269) = (  -0.0641500   0.2948460   0.2222222), wk =   0.0013717
        k(  270) = (  -0.0962250   0.2721656   0.2777777), wk =   0.0013717
        k(  271) = (  -0.1283000   0.2494851   0.3333332), wk =   0.0013717
        k(  272) = (  -0.1603750   0.2268046   0.3888888), wk =   0.0013717
        k(  273) = (  -0.1924500   0.2041242   0.4444443), wk =   0.0013717
        k(  274) = (   0.3528251   0.5896919  -0.4999999), wk =   0.0013717
        k(  275) = (   0.3207501   0.5670114  -0.4444443), wk =   0.0013717
        k(  276) = (   0.2886750   0.5443310  -0.3888888), wk =   0.0013717
        k(  277) = (   0.2566000   0.5216505  -0.3333332), wk =   0.0013717
        k(  278) = (   0.2245250   0.4989701  -0.2777777), wk =   0.0013717
        k(  279) = (   0.1924500   0.4762896  -0.2222222), wk =   0.0013717
        k(  280) = (   0.1603750   0.4536092  -0.1666666), wk =   0.0013717
        k(  281) = (   0.1283000   0.4309287  -0.1111111), wk =   0.0013717
        k(  282) = (   0.0962250   0.4082483  -0.0555555), wk =   0.0013717
        k(  283) = (   0.0641500   0.4536092   0.0000000), wk =   0.0006859
        k(  284) = (   0.0000000   0.4082483   0.1111111), wk =   0.0013717
        k(  285) = (  -0.0320750   0.3855678   0.1666666), wk =   0.0013717
        k(  286) = (  -0.0641500   0.3628874   0.2222222), wk =   0.0013717
        k(  287) = (  -0.0962250   0.3402069   0.2777777), wk =   0.0013717
        k(  288) = (  -0.1283000   0.3175265   0.3333332), wk =   0.0013717
        k(  289) = (  -0.1603750   0.2948460   0.3888888), wk =   0.0013717
        k(  290) = (  -0.1924500   0.2721656   0.4444443), wk =   0.0013717
        k(  291) = (   0.3528251   0.6577333  -0.4999999), wk =   0.0013717
        k(  292) = (   0.3207501   0.6350528  -0.4444443), wk =   0.0013717
        k(  293) = (   0.2886750   0.6123723  -0.3888888), wk =   0.0013717
        k(  294) = (   0.2566000   0.5896919  -0.3333332), wk =   0.0013717
        k(  295) = (   0.2245250   0.5670114  -0.2777777), wk =   0.0013717
        k(  296) = (   0.1924500   0.5443310  -0.2222222), wk =   0.0013717
        k(  297) = (   0.1603750   0.5216505  -0.1666666), wk =   0.0013717
        k(  298) = (   0.1283000   0.4989701  -0.1111111), wk =   0.0013717
        k(  299) = (   0.0962250   0.4762896  -0.0555555), wk =   0.0013717
        k(  300) = (   0.0641500   0.5216506   0.0000000), wk =   0.0006859
        k(  301) = (   0.0000000   0.4762897   0.1111111), wk =   0.0013717
        k(  302) = (  -0.0320750   0.4536092   0.1666666), wk =   0.0013717
        k(  303) = (  -0.0641500   0.4309288   0.2222222), wk =   0.0013717
        k(  304) = (  -0.0962250   0.4082483   0.2777777), wk =   0.0013717
        k(  305) = (  -0.1283000   0.3855679   0.3333332), wk =   0.0013717
        k(  306) = (  -0.1603750   0.3628874   0.3888888), wk =   0.0013717
        k(  307) = (  -0.1924500   0.3402070   0.4444443), wk =   0.0013717
        k(  308) = (   0.3528251   0.7257746  -0.4999999), wk =   0.0013717
        k(  309) = (   0.3207501   0.7030942  -0.4444443), wk =   0.0013717
        k(  310) = (   0.2886750   0.6804137  -0.3888888), wk =   0.0013717
        k(  311) = (   0.2566000   0.6577333  -0.3333332), wk =   0.0013717
        k(  312) = (   0.2245250   0.6350528  -0.2777777), wk =   0.0013717
        k(  313) = (   0.1924500   0.6123724  -0.2222222), wk =   0.0013717
        k(  314) = (   0.1603750   0.5896919  -0.1666666), wk =   0.0013717
        k(  315) = (   0.1283000   0.5670115  -0.1111111), wk =   0.0013717
        k(  316) = (   0.0962250   0.5443310  -0.0555555), wk =   0.0013717
        k(  317) = (   0.0641500  -0.6350529   0.0000000), wk =   0.0006859
        k(  318) = (   0.0000000  -0.6804138   0.1111111), wk =   0.0013717
        k(  319) = (  -0.0320750  -0.7030942   0.1666666), wk =   0.0013717
        k(  320) = (  -0.0641500  -0.7257747   0.2222222), wk =   0.0013717
        k(  321) = (  -0.0962250  -0.7484551   0.2777777), wk =   0.0013717
        k(  322) = (  -0.1283000  -0.7711356   0.3333332), wk =   0.0013717
        k(  323) = (  -0.1603750  -0.7938160   0.3888888), wk =   0.0013717
        k(  324) = (  -0.1924500  -0.8164965   0.4444443), wk =   0.0013717
        k(  325) = (   0.3528251  -0.4309288  -0.4999999), wk =   0.0013717
        k(  326) = (   0.3207501  -0.4536093  -0.4444443), wk =   0.0013717
        k(  327) = (   0.2886750  -0.4762897  -0.3888888), wk =   0.0013717
        k(  328) = (   0.2566000  -0.4989702  -0.3333332), wk =   0.0013717
        k(  329) = (   0.2245250  -0.5216506  -0.2777777), wk =   0.0013717
        k(  330) = (   0.1924500  -0.5443311  -0.2222222), wk =   0.0013717
        k(  331) = (   0.1603750  -0.5670115  -0.1666666), wk =   0.0013717
        k(  332) = (   0.1283000  -0.5896920  -0.1111111), wk =   0.0013717
        k(  333) = (   0.0962250  -0.6123724  -0.0555555), wk =   0.0013717
        k(  334) = (   0.0641500  -0.5670115   0.0000000), wk =   0.0006859
        k(  335) = (   0.0000000  -0.6123724   0.1111111), wk =   0.0006859
        k(  336) = (  -0.0320750  -0.6350528   0.1666666), wk =   0.0013717
        k(  337) = (  -0.0641500  -0.6577333   0.2222222), wk =   0.0013717
        k(  338) = (  -0.0962250  -0.6804137   0.2777777), wk =   0.0013717
        k(  339) = (  -0.1283000  -0.7030942   0.3333332), wk =   0.0013717
        k(  340) = (  -0.1603750  -0.7257746   0.3888888), wk =   0.0013717
        k(  341) = (  -0.1924500  -0.7484551   0.4444443), wk =   0.0013717
        k(  342) = (   0.3528251  -0.3628874  -0.4999999), wk =   0.0013717
        k(  343) = (   0.3207501  -0.3855679  -0.4444443), wk =   0.0013717
        k(  344) = (   0.2886750  -0.4082483  -0.3888888), wk =   0.0013717
        k(  345) = (   0.2566000  -0.4309288  -0.3333332), wk =   0.0013717
        k(  346) = (   0.2245250  -0.4536092  -0.2777777), wk =   0.0013717
        k(  347) = (   0.1924500  -0.4762897  -0.2222222), wk =   0.0013717
        k(  348) = (   0.1603750  -0.4989701  -0.1666666), wk =   0.0013717
        k(  349) = (   0.1283000  -0.5216506  -0.1111111), wk =   0.0013717
        k(  350) = (   0.0962250  -0.5443310  -0.0555555), wk =   0.0013717
        k(  351) = (   0.0641500  -0.4989701   0.0000000), wk =   0.0006859
        k(  352) = (  -0.0320750  -0.5670115   0.1666666), wk =   0.0013717
        k(  353) = (  -0.0641500  -0.5896919   0.2222222), wk =   0.0013717
        k(  354) = (  -0.0962250  -0.6123724   0.2777777), wk =   0.0013717
        k(  355) = (  -0.1283000  -0.6350528   0.3333332), wk =   0.0013717
        k(  356) = (  -0.1603750  -0.6577333   0.3888888), wk =   0.0013717
        k(  357) = (  -0.1924500  -0.6804137   0.4444443), wk =   0.0013717
        k(  358) = (   0.3528251  -0.2948460  -0.4999999), wk =   0.0013717
        k(  359) = (   0.3207501  -0.3175265  -0.4444443), wk =   0.0013717
        k(  360) = (   0.2886750  -0.3402069  -0.3888888), wk =   0.0013717
        k(  361) = (   0.2566000  -0.3628874  -0.3333332), wk =   0.0013717
        k(  362) = (   0.2245250  -0.3855678  -0.2777777), wk =   0.0013717
        k(  363) = (   0.1924500  -0.4082483  -0.2222222), wk =   0.0013717
        k(  364) = (   0.1603750  -0.4309288  -0.1666666), wk =   0.0013717
        k(  365) = (   0.1283000  -0.4536092  -0.1111111), wk =   0.0013717
        k(  366) = (   0.0962250  -0.4762897  -0.0555555), wk =   0.0013717
        k(  367) = (   0.0641500  -0.4309287   0.0000000), wk =   0.0006859
        k(  368) = (  -0.0320750  -0.4989701   0.1666666), wk =   0.0013717
        k(  369) = (  -0.0641500  -0.5216505   0.2222222), wk =   0.0013717
        k(  370) = (  -0.0962250  -0.5443310   0.2777777), wk =   0.0013717
        k(  371) = (  -0.1283000  -0.5670114   0.3333332), wk =   0.0013717
        k(  372) = (  -0.1603750  -0.5896919   0.3888888), wk =   0.0013717
        k(  373) = (  -0.1924500  -0.6123723   0.4444443), wk =   0.0013717
        k(  374) = (   0.3528251  -0.2268047  -0.4999999), wk =   0.0013717
        k(  375) = (   0.3207501  -0.2494851  -0.4444443), wk =   0.0013717
        k(  376) = (   0.2886750  -0.2721656  -0.3888888), wk =   0.0013717
        k(  377) = (   0.2566000  -0.2948460  -0.3333332), wk =   0.0013717
        k(  378) = (   0.2245250  -0.3175265  -0.2777777), wk =   0.0013717
        k(  379) = (   0.1924500  -0.3402069  -0.2222222), wk =   0.0013717
        k(  380) = (   0.1603750  -0.3628874  -0.1666666), wk =   0.0013717
        k(  381) = (   0.1283000  -0.3855678  -0.1111111), wk =   0.0013717
        k(  382) = (   0.0962250  -0.4082483  -0.0555555), wk =   0.0013717
        k(  383) = (   0.0641500  -0.3628874   0.0000000), wk =   0.0006859
        k(  384) = (  -0.0320750  -0.4309287   0.1666666), wk =   0.0013717
        k(  385) = (  -0.0641500  -0.4536092   0.2222222), wk =   0.0013717
        k(  386) = (  -0.0962250  -0.4762896   0.2777777), wk =   0.0013717
        k(  387) = (  -0.1283000  -0.4989701   0.3333332), wk =   0.0013717
        k(  388) = (  -0.1603750  -0.5216505   0.3888888), wk =   0.0013717
        k(  389) = (  -0.1924500  -0.5443310   0.4444443), wk =   0.0013717
        k(  390) = (   0.3528251  -0.1587633  -0.4999999), wk =   0.0013717
        k(  391) = (   0.3207501  -0.1814437  -0.4444443), wk =   0.0013717
        k(  392) = (   0.2886750  -0.2041242  -0.3888888), wk =   0.0013717
        k(  393) = (   0.2566000  -0.2268046  -0.3333332), wk =   0.0013717
        k(  394) = (   0.2245250  -0.2494851  -0.2777777), wk =   0.0013717
        k(  395) = (   0.1924500  -0.2721655  -0.2222222), wk =   0.0013717
        k(  396) = (   0.1603750  -0.2948460  -0.1666666), wk =   0.0013717
        k(  397) = (   0.1283000  -0.3175264  -0.1111111), wk =   0.0013717
        k(  398) = (   0.0962250  -0.3402069  -0.0555555), wk =   0.0013717
        k(  399) = (   0.0641500  -0.2948460   0.0000000), wk =   0.0006859
        k(  400) = (  -0.0320750  -0.3628873   0.1666666), wk =   0.0013717
        k(  401) = (  -0.0641500  -0.3855678   0.2222222), wk =   0.0013717
        k(  402) = (  -0.0962250  -0.4082482   0.2777777), wk =   0.0013717
        k(  403) = (  -0.1283000  -0.4309287   0.3333332), wk =   0.0013717
        k(  404) = (  -0.1603750  -0.4536091   0.3888888), wk =   0.0013717
        k(  405) = (  -0.1924500  -0.4762896   0.4444443), wk =   0.0013717
        k(  406) = (   0.3528251  -0.0907219  -0.4999999), wk =   0.0013717
        k(  407) = (   0.3207501  -0.1134024  -0.4444443), wk =   0.0013717
        k(  408) = (   0.2886750  -0.1360828  -0.3888888), wk =   0.0013717
        k(  409) = (   0.2566000  -0.1587633  -0.3333332), wk =   0.0013717
        k(  410) = (   0.2245250  -0.1814437  -0.2777777), wk =   0.0013717
        k(  411) = (   0.1924500  -0.2041242  -0.2222222), wk =   0.0013717
        k(  412) = (   0.1603750  -0.2268046  -0.1666666), wk =   0.0013717
        k(  413) = (   0.1283000  -0.2494851  -0.1111111), wk =   0.0013717
        k(  414) = (   0.0962250  -0.2721655  -0.0555555), wk =   0.0013717
        k(  415) = (   0.0641500  -0.2268046   0.0000000), wk =   0.0006859
        k(  416) = (  -0.0320750  -0.2948459   0.1666666), wk =   0.0013717
        k(  417) = (  -0.0641500  -0.3175264   0.2222222), wk =   0.0013717
        k(  418) = (  -0.0962250  -0.3402069   0.2777777), wk =   0.0013717
        k(  419) = (  -0.1283000  -0.3628873   0.3333332), wk =   0.0013717
        k(  420) = (  -0.1603750  -0.3855678   0.3888888), wk =   0.0013717
        k(  421) = (  -0.1924500  -0.4082482   0.4444443), wk =   0.0013717
        k(  422) = (   0.3528251  -0.0226805  -0.4999999), wk =   0.0013717
        k(  423) = (   0.3207501  -0.0453610  -0.4444443), wk =   0.0013717
        k(  424) = (   0.2886750  -0.0680414  -0.3888888), wk =   0.0013717
        k(  425) = (   0.2566000  -0.0907219  -0.3333332), wk =   0.0013717
        k(  426) = (   0.2245250  -0.1134023  -0.2777777), wk =   0.0013717
        k(  427) = (   0.1924500  -0.1360828  -0.2222222), wk =   0.0013717
        k(  428) = (   0.1603750  -0.1587632  -0.1666666), wk =   0.0013717
        k(  429) = (   0.1283000  -0.1814437  -0.1111111), wk =   0.0013717
        k(  430) = (   0.0962250  -0.2041241  -0.0555555), wk =   0.0013717
        k(  431) = (   0.0641500  -0.1587632   0.0000000), wk =   0.0006859
        k(  432) = (  -0.0320750  -0.2268046   0.1666666), wk =   0.0013717
        k(  433) = (  -0.0641500  -0.2494850   0.2222222), wk =   0.0013717
        k(  434) = (  -0.0962250  -0.2721655   0.2777777), wk =   0.0013717
        k(  435) = (  -0.1283000  -0.2948459   0.3333332), wk =   0.0013717
        k(  436) = (  -0.1603750  -0.3175264   0.3888888), wk =   0.0013717
        k(  437) = (  -0.1924500  -0.3402068   0.4444443), wk =   0.0013717
        k(  438) = (   0.3528251   0.0453608  -0.4999999), wk =   0.0013717
        k(  439) = (   0.3207501   0.0226804  -0.4444443), wk =   0.0013717
        k(  440) = (   0.2886750  -0.0000001  -0.3888888), wk =   0.0013717
        k(  441) = (   0.2566000  -0.0226805  -0.3333332), wk =   0.0013717
        k(  442) = (   0.2245250  -0.0453610  -0.2777777), wk =   0.0013717
        k(  443) = (   0.1924500  -0.0680414  -0.2222222), wk =   0.0013717
        k(  444) = (   0.1603750  -0.0907219  -0.1666666), wk =   0.0013717
        k(  445) = (   0.1283000  -0.1134023  -0.1111111), wk =   0.0013717
        k(  446) = (   0.0962250  -0.1360828  -0.0555555), wk =   0.0013717
        k(  447) = (   0.0641500  -0.0907218   0.0000000), wk =   0.0006859
        k(  448) = (  -0.0320750  -0.1587632   0.1666666), wk =   0.0013717
        k(  449) = (  -0.0641500  -0.1814436   0.2222222), wk =   0.0013717
        k(  450) = (  -0.0962250  -0.2041241   0.2777777), wk =   0.0013717
        k(  451) = (  -0.1283000  -0.2268045   0.3333332), wk =   0.0013717
        k(  452) = (  -0.1603750  -0.2494850   0.3888888), wk =   0.0013717
        k(  453) = (  -0.1924500  -0.2721654   0.4444443), wk =   0.0013717
        k(  454) = (   0.3528251   0.1134022  -0.4999999), wk =   0.0013717
        k(  455) = (   0.3207501   0.0907218  -0.4444443), wk =   0.0013717
        k(  456) = (   0.2886750   0.0680413  -0.3888888), wk =   0.0013717
        k(  457) = (   0.2566000   0.0453609  -0.3333332), wk =   0.0013717
        k(  458) = (   0.2245250   0.0226804  -0.2777777), wk =   0.0013717
        k(  459) = (   0.1924500  -0.0000000  -0.2222222), wk =   0.0013717
        k(  460) = (   0.1603750  -0.0226805  -0.1666666), wk =   0.0013717
        k(  461) = (   0.1283000  -0.0453609  -0.1111111), wk =   0.0013717
        k(  462) = (   0.0962250  -0.0680414  -0.0555555), wk =   0.0013717
        k(  463) = (   0.1283001  -0.0453609   0.0000000), wk =   0.0006859
        k(  464) = (   0.0000000  -0.1360827   0.2222222), wk =   0.0013717
        k(  465) = (  -0.0320750  -0.1587632   0.2777777), wk =   0.0013717
        k(  466) = (  -0.0641500  -0.1814436   0.3333332), wk =   0.0013717
        k(  467) = (  -0.0962250  -0.2041241   0.3888888), wk =   0.0013717
        k(  468) = (  -0.1283000  -0.2268045   0.4444443), wk =   0.0013717
        k(  469) = (   0.4169751   0.1587631  -0.4999999), wk =   0.0013717
        k(  470) = (   0.3849001   0.1360827  -0.4444443), wk =   0.0013717
        k(  471) = (   0.3528251   0.1134022  -0.3888888), wk =   0.0013717
        k(  472) = (   0.3207501   0.0907218  -0.3333332), wk =   0.0013717
        k(  473) = (   0.2886751   0.0680413  -0.2777777), wk =   0.0013717
        k(  474) = (   0.2566001   0.0453609  -0.2222222), wk =   0.0013717
        k(  475) = (   0.2245251   0.0226804  -0.1666666), wk =   0.0013717
        k(  476) = (   0.1924501  -0.0000000  -0.1111111), wk =   0.0013717
        k(  477) = (   0.1603751  -0.0226805  -0.0555555), wk =   0.0013717
        k(  478) = (   0.1283001   0.0226805   0.0000000), wk =   0.0006859
        k(  479) = (   0.0000000  -0.0680413   0.2222222), wk =   0.0013717
        k(  480) = (  -0.0320750  -0.0907218   0.2777777), wk =   0.0013717
        k(  481) = (  -0.0641500  -0.1134022   0.3333332), wk =   0.0013717
        k(  482) = (  -0.0962250  -0.1360827   0.3888888), wk =   0.0013717
        k(  483) = (  -0.1283000  -0.1587632   0.4444443), wk =   0.0013717
        k(  484) = (   0.4169751   0.2268045  -0.4999999), wk =   0.0013717
        k(  485) = (   0.3849001   0.2041241  -0.4444443), wk =   0.0013717
        k(  486) = (   0.3528251   0.1814436  -0.3888888), wk =   0.0013717
        k(  487) = (   0.3207501   0.1587632  -0.3333332), wk =   0.0013717
        k(  488) = (   0.2886751   0.1360827  -0.2777777), wk =   0.0013717
        k(  489) = (   0.2566001   0.1134023  -0.2222222), wk =   0.0013717
        k(  490) = (   0.2245251   0.0907218  -0.1666666), wk =   0.0013717
        k(  491) = (   0.1924501   0.0680414  -0.1111111), wk =   0.0013717
        k(  492) = (   0.1603751   0.0453609  -0.0555555), wk =   0.0013717
        k(  493) = (   0.1283001   0.0907218   0.0000000), wk =   0.0006859
        k(  494) = (   0.0000000   0.0000000   0.2222222), wk =   0.0006859
        k(  495) = (  -0.0320750  -0.0226804   0.2777777), wk =   0.0013717
        k(  496) = (  -0.0641500  -0.0453609   0.3333332), wk =   0.0013717
        k(  497) = (  -0.0962250  -0.0680413   0.3888888), wk =   0.0013717
        k(  498) = (  -0.1283000  -0.0907218   0.4444443), wk =   0.0013717
        k(  499) = (   0.4169751   0.2948459  -0.4999999), wk =   0.0013717
        k(  500) = (   0.3849001   0.2721654  -0.4444443), wk =   0.0013717
        k(  501) = (   0.3528251   0.2494850  -0.3888888), wk =   0.0013717
        k(  502) = (   0.3207501   0.2268045  -0.3333332), wk =   0.0013717
        k(  503) = (   0.2886751   0.2041241  -0.2777777), wk =   0.0013717
        k(  504) = (   0.2566001   0.1814436  -0.2222222), wk =   0.0013717
        k(  505) = (   0.2245251   0.1587632  -0.1666666), wk =   0.0013717
        k(  506) = (   0.1924501   0.1360827  -0.1111111), wk =   0.0013717
        k(  507) = (   0.1603751   0.1134023  -0.0555555), wk =   0.0013717
        k(  508) = (   0.1283001   0.1587632   0.0000000), wk =   0.0006859
        k(  509) = (  -0.0320750   0.0453610   0.2777777), wk =   0.0013717
        k(  510) = (  -0.0641500   0.0226805   0.3333332), wk =   0.0013717
        k(  511) = (  -0.0962250   0.0000001   0.3888888), wk =   0.0013717
        k(  512) = (  -0.1283000  -0.0226804   0.4444443), wk =   0.0013717
        k(  513) = (   0.4169751   0.3628873  -0.4999999), wk =   0.0013717
        k(  514) = (   0.3849001   0.3402068  -0.4444443), wk =   0.0013717
        k(  515) = (   0.3528251   0.3175264  -0.3888888), wk =   0.0013717
        k(  516) = (   0.3207501   0.2948459  -0.3333332), wk =   0.0013717
        k(  517) = (   0.2886751   0.2721655  -0.2777777), wk =   0.0013717
        k(  518) = (   0.2566001   0.2494850  -0.2222222), wk =   0.0013717
        k(  519) = (   0.2245251   0.2268046  -0.1666666), wk =   0.0013717
        k(  520) = (   0.1924501   0.2041241  -0.1111111), wk =   0.0013717
        k(  521) = (   0.1603751   0.1814437  -0.0555555), wk =   0.0013717
        k(  522) = (   0.1283001   0.2268046   0.0000000), wk =   0.0006859
        k(  523) = (  -0.0320750   0.1134023   0.2777777), wk =   0.0013717
        k(  524) = (  -0.0641500   0.0907219   0.3333332), wk =   0.0013717
        k(  525) = (  -0.0962250   0.0680414   0.3888888), wk =   0.0013717
        k(  526) = (  -0.1283000   0.0453610   0.4444443), wk =   0.0013717
        k(  527) = (   0.4169751   0.4309287  -0.4999999), wk =   0.0013717
        k(  528) = (   0.3849001   0.4082482  -0.4444443), wk =   0.0013717
        k(  529) = (   0.3528251   0.3855678  -0.3888888), wk =   0.0013717
        k(  530) = (   0.3207501   0.3628873  -0.3333332), wk =   0.0013717
        k(  531) = (   0.2886751   0.3402069  -0.2777777), wk =   0.0013717
        k(  532) = (   0.2566001   0.3175264  -0.2222222), wk =   0.0013717
        k(  533) = (   0.2245251   0.2948459  -0.1666666), wk =   0.0013717
        k(  534) = (   0.1924501   0.2721655  -0.1111111), wk =   0.0013717
        k(  535) = (   0.1603751   0.2494850  -0.0555555), wk =   0.0013717
        k(  536) = (   0.1283001   0.2948460   0.0000000), wk =   0.0006859
        k(  537) = (   0.0000000   0.2041242   0.2222222), wk =   0.0013717
        k(  538) = (  -0.0320750   0.1814437   0.2777777), wk =   0.0013717
        k(  539) = (  -0.0641500   0.1587633   0.3333332), wk =   0.0013717
        k(  540) = (  -0.0962250   0.1360828   0.3888888), wk =   0.0013717
        k(  541) = (  -0.1283000   0.1134024   0.4444443), wk =   0.0013717
        k(  542) = (   0.4169751   0.4989700  -0.4999999), wk =   0.0013717
        k(  543) = (   0.3849001   0.4762896  -0.4444443), wk =   0.0013717
        k(  544) = (   0.3528251   0.4536091  -0.3888888), wk =   0.0013717
        k(  545) = (   0.3207501   0.4309287  -0.3333332), wk =   0.0013717
        k(  546) = (   0.2886751   0.4082482  -0.2777777), wk =   0.0013717
        k(  547) = (   0.2566001   0.3855678  -0.2222222), wk =   0.0013717
        k(  548) = (   0.2245251   0.3628873  -0.1666666), wk =   0.0013717
        k(  549) = (   0.1924501   0.3402069  -0.1111111), wk =   0.0013717
        k(  550) = (   0.1603751   0.3175264  -0.0555555), wk =   0.0013717
        k(  551) = (   0.1283001   0.3628874   0.0000000), wk =   0.0006859
        k(  552) = (   0.0000000   0.2721655   0.2222222), wk =   0.0013717
        k(  553) = (  -0.0320750   0.2494851   0.2777777), wk =   0.0013717
        k(  554) = (  -0.0641500   0.2268046   0.3333332), wk =   0.0013717
        k(  555) = (  -0.0962250   0.2041242   0.3888888), wk =   0.0013717
        k(  556) = (  -0.1283000   0.1814437   0.4444443), wk =   0.0013717
        k(  557) = (   0.4169751   0.5670114  -0.4999999), wk =   0.0013717
        k(  558) = (   0.3849001   0.5443310  -0.4444443), wk =   0.0013717
        k(  559) = (   0.3528251   0.5216505  -0.3888888), wk =   0.0013717
        k(  560) = (   0.3207501   0.4989701  -0.3333332), wk =   0.0013717
        k(  561) = (   0.2886751   0.4762896  -0.2777777), wk =   0.0013717
        k(  562) = (   0.2566001   0.4536092  -0.2222222), wk =   0.0013717
        k(  563) = (   0.2245251   0.4309287  -0.1666666), wk =   0.0013717
        k(  564) = (   0.1924501   0.4082483  -0.1111111), wk =   0.0013717
        k(  565) = (   0.1603751   0.3855678  -0.0555555), wk =   0.0013717
        k(  566) = (   0.1283001   0.4309287   0.0000000), wk =   0.0006859
        k(  567) = (   0.0000000   0.3402069   0.2222222), wk =   0.0013717
        k(  568) = (  -0.0320750   0.3175265   0.2777777), wk =   0.0013717
        k(  569) = (  -0.0641500   0.2948460   0.3333332), wk =   0.0013717
        k(  570) = (  -0.0962250   0.2721656   0.3888888), wk =   0.0013717
        k(  571) = (  -0.1283000   0.2494851   0.4444443), wk =   0.0013717
        k(  572) = (   0.4169751   0.6350528  -0.4999999), wk =   0.0013717
        k(  573) = (   0.3849001   0.6123723  -0.4444443), wk =   0.0013717
        k(  574) = (   0.3528251   0.5896919  -0.3888888), wk =   0.0013717
        k(  575) = (   0.3207501   0.5670114  -0.3333332), wk =   0.0013717
        k(  576) = (   0.2886751   0.5443310  -0.2777777), wk =   0.0013717
        k(  577) = (   0.2566001   0.5216505  -0.2222222), wk =   0.0013717
        k(  578) = (   0.2245251   0.4989701  -0.1666666), wk =   0.0013717
        k(  579) = (   0.1924501   0.4762896  -0.1111111), wk =   0.0013717
        k(  580) = (   0.1603751   0.4536092  -0.0555555), wk =   0.0013717
        k(  581) = (   0.1283001   0.4989701   0.0000000), wk =   0.0006859
        k(  582) = (   0.0000000   0.4082483   0.2222222), wk =   0.0013717
        k(  583) = (  -0.0320750   0.3855678   0.2777777), wk =   0.0013717
        k(  584) = (  -0.0641500   0.3628874   0.3333332), wk =   0.0013717
        k(  585) = (  -0.0962250   0.3402069   0.3888888), wk =   0.0013717
        k(  586) = (  -0.1283000   0.3175265   0.4444443), wk =   0.0013717
        k(  587) = (   0.4169751   0.7030942  -0.4999999), wk =   0.0013717
        k(  588) = (   0.3849001   0.6804137  -0.4444443), wk =   0.0013717
        k(  589) = (   0.3528251   0.6577333  -0.3888888), wk =   0.0013717
        k(  590) = (   0.3207501   0.6350528  -0.3333332), wk =   0.0013717
        k(  591) = (   0.2886751   0.6123724  -0.2777777), wk =   0.0013717
        k(  592) = (   0.2566001   0.5896919  -0.2222222), wk =   0.0013717
        k(  593) = (   0.2245251   0.5670115  -0.1666666), wk =   0.0013717
        k(  594) = (   0.1924501   0.5443310  -0.1111111), wk =   0.0013717
        k(  595) = (   0.1603751   0.5216506  -0.0555555), wk =   0.0013717
        k(  596) = (   0.1283001  -0.6577333   0.0000000), wk =   0.0006859
        k(  597) = (   0.0000000  -0.7484551   0.2222222), wk =   0.0013717
        k(  598) = (  -0.0320750  -0.7711356   0.2777777), wk =   0.0013717
        k(  599) = (  -0.0641500  -0.7938160   0.3333332), wk =   0.0013717
        k(  600) = (  -0.0962250  -0.8164965   0.3888888), wk =   0.0013717
        k(  601) = (  -0.1283000  -0.8391769   0.4444443), wk =   0.0013717
        k(  602) = (   0.4169751  -0.4536093  -0.4999999), wk =   0.0013717
        k(  603) = (   0.3849001  -0.4762897  -0.4444443), wk =   0.0013717
        k(  604) = (   0.3528251  -0.4989702  -0.3888888), wk =   0.0013717
        k(  605) = (   0.3207501  -0.5216506  -0.3333332), wk =   0.0013717
        k(  606) = (   0.2886751  -0.5443311  -0.2777777), wk =   0.0013717
        k(  607) = (   0.2566001  -0.5670115  -0.2222222), wk =   0.0013717
        k(  608) = (   0.2245251  -0.5896920  -0.1666666), wk =   0.0013717
        k(  609) = (   0.1924501  -0.6123724  -0.1111111), wk =   0.0013717
        k(  610) = (   0.1603751  -0.6350529  -0.0555555), wk =   0.0013717
        k(  611) = (   0.1283001  -0.5896919   0.0000000), wk =   0.0006859
        k(  612) = (   0.0000000  -0.6804137   0.2222222), wk =   0.0013717
        k(  613) = (  -0.0320750  -0.7030942   0.2777777), wk =   0.0013717
        k(  614) = (  -0.0641500  -0.7257747   0.3333332), wk =   0.0013717
        k(  615) = (  -0.0962250  -0.7484551   0.3888888), wk =   0.0013717
        k(  616) = (  -0.1283000  -0.7711356   0.4444443), wk =   0.0013717
        k(  617) = (   0.4169751  -0.3855679  -0.4999999), wk =   0.0013717
        k(  618) = (   0.3849001  -0.4082483  -0.4444443), wk =   0.0013717
        k(  619) = (   0.3528251  -0.4309288  -0.3888888), wk =   0.0013717
        k(  620) = (   0.3207501  -0.4536092  -0.3333332), wk =   0.0013717
        k(  621) = (   0.2886751  -0.4762897  -0.2777777), wk =   0.0013717
        k(  622) = (   0.2566001  -0.4989701  -0.2222222), wk =   0.0013717
        k(  623) = (   0.2245251  -0.5216506  -0.1666666), wk =   0.0013717
        k(  624) = (   0.1924501  -0.5443310  -0.1111111), wk =   0.0013717
        k(  625) = (   0.1603751  -0.5670115  -0.0555555), wk =   0.0013717
        k(  626) = (   0.1283001  -0.5216506   0.0000000), wk =   0.0006859
        k(  627) = (   0.0000000  -0.6123724   0.2222222), wk =   0.0006859
        k(  628) = (  -0.0320750  -0.6350528   0.2777777), wk =   0.0013717
        k(  629) = (  -0.0641500  -0.6577333   0.3333332), wk =   0.0013717
        k(  630) = (  -0.0962250  -0.6804137   0.3888888), wk =   0.0013717
        k(  631) = (  -0.1283000  -0.7030942   0.4444443), wk =   0.0013717
        k(  632) = (   0.4169751  -0.3175265  -0.4999999), wk =   0.0013717
        k(  633) = (   0.3849001  -0.3402070  -0.4444443), wk =   0.0013717
        k(  634) = (   0.3528251  -0.3628874  -0.3888888), wk =   0.0013717
        k(  635) = (   0.3207501  -0.3855679  -0.3333332), wk =   0.0013717
        k(  636) = (   0.2886751  -0.4082483  -0.2777777), wk =   0.0013717
        k(  637) = (   0.2566001  -0.4309288  -0.2222222), wk =   0.0013717
        k(  638) = (   0.2245251  -0.4536092  -0.1666666), wk =   0.0013717
        k(  639) = (   0.1924501  -0.4762897  -0.1111111), wk =   0.0013717
        k(  640) = (   0.1603751  -0.4989701  -0.0555555), wk =   0.0013717
        k(  641) = (   0.1283001  -0.4536092   0.0000000), wk =   0.0006859
        k(  642) = (  -0.0320750  -0.5670114   0.2777777), wk =   0.0013717
        k(  643) = (  -0.0641500  -0.5896919   0.3333332), wk =   0.0013717
        k(  644) = (  -0.0962250  -0.6123723   0.3888888), wk =   0.0013717
        k(  645) = (  -0.1283000  -0.6350528   0.4444443), wk =   0.0013717
        k(  646) = (   0.4169751  -0.2494851  -0.4999999), wk =   0.0013717
        k(  647) = (   0.3849001  -0.2721656  -0.4444443), wk =   0.0013717
        k(  648) = (   0.3528251  -0.2948460  -0.3888888), wk =   0.0013717
        k(  649) = (   0.3207501  -0.3175265  -0.3333332), wk =   0.0013717
        k(  650) = (   0.2886751  -0.3402069  -0.2777777), wk =   0.0013717
        k(  651) = (   0.2566001  -0.3628874  -0.2222222), wk =   0.0013717
        k(  652) = (   0.2245251  -0.3855678  -0.1666666), wk =   0.0013717
        k(  653) = (   0.1924501  -0.4082483  -0.1111111), wk =   0.0013717
        k(  654) = (   0.1603751  -0.4309287  -0.0555555), wk =   0.0013717
        k(  655) = (   0.1283001  -0.3855678   0.0000000), wk =   0.0006859
        k(  656) = (  -0.0320750  -0.4989701   0.2777777), wk =   0.0013717
        k(  657) = (  -0.0641500  -0.5216505   0.3333332), wk =   0.0013717
        k(  658) = (  -0.0962250  -0.5443310   0.3888888), wk =   0.0013717
        k(  659) = (  -0.1283000  -0.5670114   0.4444443), wk =   0.0013717
        k(  660) = (   0.4169751  -0.1814437  -0.4999999), wk =   0.0013717
        k(  661) = (   0.3849001  -0.2041242  -0.4444443), wk =   0.0013717
        k(  662) = (   0.3528251  -0.2268046  -0.3888888), wk =   0.0013717
        k(  663) = (   0.3207501  -0.2494851  -0.3333332), wk =   0.0013717
        k(  664) = (   0.2886751  -0.2721656  -0.2777777), wk =   0.0013717
        k(  665) = (   0.2566001  -0.2948460  -0.2222222), wk =   0.0013717
        k(  666) = (   0.2245251  -0.3175265  -0.1666666), wk =   0.0013717
        k(  667) = (   0.1924501  -0.3402069  -0.1111111), wk =   0.0013717
        k(  668) = (   0.1603751  -0.3628874  -0.0555555), wk =   0.0013717
        k(  669) = (   0.1283001  -0.3175264   0.0000000), wk =   0.0006859
        k(  670) = (  -0.0320750  -0.4309287   0.2777777), wk =   0.0013717
        k(  671) = (  -0.0641500  -0.4536091   0.3333332), wk =   0.0013717
        k(  672) = (  -0.0962250  -0.4762896   0.3888888), wk =   0.0013717
        k(  673) = (  -0.1283000  -0.4989700   0.4444443), wk =   0.0013717
        k(  674) = (   0.4169751  -0.1134024  -0.4999999), wk =   0.0013717
        k(  675) = (   0.3849001  -0.1360828  -0.4444443), wk =   0.0013717
        k(  676) = (   0.3528251  -0.1587633  -0.3888888), wk =   0.0013717
        k(  677) = (   0.3207501  -0.1814437  -0.3333332), wk =   0.0013717
        k(  678) = (   0.2886751  -0.2041242  -0.2777777), wk =   0.0013717
        k(  679) = (   0.2566001  -0.2268046  -0.2222222), wk =   0.0013717
        k(  680) = (   0.2245251  -0.2494851  -0.1666666), wk =   0.0013717
        k(  681) = (   0.1924501  -0.2721655  -0.1111111), wk =   0.0013717
        k(  682) = (   0.1603751  -0.2948460  -0.0555555), wk =   0.0013717
        k(  683) = (   0.1283001  -0.2494851   0.0000000), wk =   0.0006859
        k(  684) = (  -0.0320750  -0.3628873   0.2777777), wk =   0.0013717
        k(  685) = (  -0.0641500  -0.3855678   0.3333332), wk =   0.0013717
        k(  686) = (  -0.0962250  -0.4082482   0.3888888), wk =   0.0013717
        k(  687) = (  -0.1283000  -0.4309287   0.4444443), wk =   0.0013717
        k(  688) = (   0.4169751  -0.0453610  -0.4999999), wk =   0.0013717
        k(  689) = (   0.3849001  -0.0680414  -0.4444443), wk =   0.0013717
        k(  690) = (   0.3528251  -0.0907219  -0.3888888), wk =   0.0013717
        k(  691) = (   0.3207501  -0.1134023  -0.3333332), wk =   0.0013717
        k(  692) = (   0.2886751  -0.1360828  -0.2777777), wk =   0.0013717
        k(  693) = (   0.2566001  -0.1587632  -0.2222222), wk =   0.0013717
        k(  694) = (   0.2245251  -0.1814437  -0.1666666), wk =   0.0013717
        k(  695) = (   0.1924501  -0.2041242  -0.1111111), wk =   0.0013717
        k(  696) = (   0.1603751  -0.2268046  -0.0555555), wk =   0.0013717
        k(  697) = (   0.1283001  -0.1814437   0.0000000), wk =   0.0006859
        k(  698) = (  -0.0320750  -0.2948459   0.2777777), wk =   0.0013717
        k(  699) = (  -0.0641500  -0.3175264   0.3333332), wk =   0.0013717
        k(  700) = (  -0.0962250  -0.3402068   0.3888888), wk =   0.0013717
        k(  701) = (  -0.1283000  -0.3628873   0.4444443), wk =   0.0013717
        k(  702) = (   0.4169751   0.0226804  -0.4999999), wk =   0.0013717
        k(  703) = (   0.3849001  -0.0000001  -0.4444443), wk =   0.0013717
        k(  704) = (   0.3528251  -0.0226805  -0.3888888), wk =   0.0013717
        k(  705) = (   0.3207501  -0.0453610  -0.3333332), wk =   0.0013717
        k(  706) = (   0.2886751  -0.0680414  -0.2777777), wk =   0.0013717
        k(  707) = (   0.2566001  -0.0907219  -0.2222222), wk =   0.0013717
        k(  708) = (   0.2245251  -0.1134023  -0.1666666), wk =   0.0013717
        k(  709) = (   0.1924501  -0.1360828  -0.1111111), wk =   0.0013717
        k(  710) = (   0.1603751  -0.1587632  -0.0555555), wk =   0.0013717
        k(  711) = (   0.1283001  -0.1134023   0.0000000), wk =   0.0006859
        k(  712) = (  -0.0320750  -0.2268046   0.2777777), wk =   0.0013717
        k(  713) = (  -0.0641500  -0.2494850   0.3333332), wk =   0.0013717
        k(  714) = (  -0.0962250  -0.2721655   0.3888888), wk =   0.0013717
        k(  715) = (  -0.1283000  -0.2948459   0.4444443), wk =   0.0013717
        k(  716) = (   0.4169751   0.0907218  -0.4999999), wk =   0.0013717
        k(  717) = (   0.3849001   0.0680413  -0.4444443), wk =   0.0013717
        k(  718) = (   0.3528251   0.0453609  -0.3888888), wk =   0.0013717
        k(  719) = (   0.3207501   0.0226804  -0.3333332), wk =   0.0013717
        k(  720) = (   0.2886751  -0.0000000  -0.2777777), wk =   0.0013717
        k(  721) = (   0.2566001  -0.0226805  -0.2222222), wk =   0.0013717
        k(  722) = (   0.2245251  -0.0453609  -0.1666666), wk =   0.0013717
        k(  723) = (   0.1924501  -0.0680414  -0.1111111), wk =   0.0013717
        k(  724) = (   0.1603751  -0.0907218  -0.0555555), wk =   0.0013717
        k(  725) = (   0.1924501  -0.0680414   0.0000000), wk =   0.0006859
        k(  726) = (   0.0000001  -0.2041241   0.3333332), wk =   0.0013717
        k(  727) = (  -0.0320749  -0.2268045   0.3888888), wk =   0.0013717
        k(  728) = (  -0.0641499  -0.2494850   0.4444443), wk =   0.0013717
        k(  729) = (   0.4811251   0.1360827  -0.4999999), wk =   0.0013717
        k(  730) = (   0.4490501   0.1134022  -0.4444443), wk =   0.0013717
        k(  731) = (   0.4169751   0.0907218  -0.3888888), wk =   0.0013717
        k(  732) = (   0.3849001   0.0680413  -0.3333332), wk =   0.0013717
        k(  733) = (   0.3528251   0.0453609  -0.2777777), wk =   0.0013717
        k(  734) = (   0.3207501   0.0226804  -0.2222222), wk =   0.0013717
        k(  735) = (   0.2886751  -0.0000000  -0.1666666), wk =   0.0013717
        k(  736) = (   0.2566001  -0.0226805  -0.1111111), wk =   0.0013717
        k(  737) = (   0.2245251  -0.0453609  -0.0555555), wk =   0.0013717
        k(  738) = (   0.1924501   0.0000000   0.0000000), wk =   0.0006859
        k(  739) = (   0.0000001  -0.1360827   0.3333332), wk =   0.0013717
        k(  740) = (  -0.0320749  -0.1587632   0.3888888), wk =   0.0013717
        k(  741) = (  -0.0641499  -0.1814436   0.4444443), wk =   0.0013717
        k(  742) = (   0.4811251   0.2041241  -0.4999999), wk =   0.0013717
        k(  743) = (   0.4490501   0.1814436  -0.4444443), wk =   0.0013717
        k(  744) = (   0.4169751   0.1587632  -0.3888888), wk =   0.0013717
        k(  745) = (   0.3849001   0.1360827  -0.3333332), wk =   0.0013717
        k(  746) = (   0.3528251   0.1134023  -0.2777777), wk =   0.0013717
        k(  747) = (   0.3207501   0.0907218  -0.2222222), wk =   0.0013717
        k(  748) = (   0.2886751   0.0680414  -0.1666666), wk =   0.0013717
        k(  749) = (   0.2566001   0.0453609  -0.1111111), wk =   0.0013717
        k(  750) = (   0.2245251   0.0226805  -0.0555555), wk =   0.0013717
        k(  751) = (   0.1924501   0.0680414   0.0000000), wk =   0.0006859
        k(  752) = (   0.0000001  -0.0680413   0.3333332), wk =   0.0013717
        k(  753) = (  -0.0320749  -0.0907218   0.3888888), wk =   0.0013717
        k(  754) = (  -0.0641499  -0.1134022   0.4444443), wk =   0.0013717
        k(  755) = (   0.4811251   0.2721654  -0.4999999), wk =   0.0013717
        k(  756) = (   0.4490501   0.2494850  -0.4444443), wk =   0.0013717
        k(  757) = (   0.4169751   0.2268045  -0.3888888), wk =   0.0013717
        k(  758) = (   0.3849001   0.2041241  -0.3333332), wk =   0.0013717
        k(  759) = (   0.3528251   0.1814436  -0.2777777), wk =   0.0013717
        k(  760) = (   0.3207501   0.1587632  -0.2222222), wk =   0.0013717
        k(  761) = (   0.2886751   0.1360827  -0.1666666), wk =   0.0013717
        k(  762) = (   0.2566001   0.1134023  -0.1111111), wk =   0.0013717
        k(  763) = (   0.2245251   0.0907218  -0.0555555), wk =   0.0013717
        k(  764) = (   0.1924501   0.1360828   0.0000000), wk =   0.0006859
        k(  765) = (   0.0000001   0.0000000   0.3333332), wk =   0.0006859
        k(  766) = (  -0.0320749  -0.0226804   0.3888888), wk =   0.0013717
        k(  767) = (  -0.0641499  -0.0453609   0.4444443), wk =   0.0013717
        k(  768) = (   0.4811251   0.3402068  -0.4999999), wk =   0.0013717
        k(  769) = (   0.4490501   0.3175264  -0.4444443), wk =   0.0013717
        k(  770) = (   0.4169751   0.2948459  -0.3888888), wk =   0.0013717
        k(  771) = (   0.3849001   0.2721655  -0.3333332), wk =   0.0013717
        k(  772) = (   0.3528251   0.2494850  -0.2777777), wk =   0.0013717
        k(  773) = (   0.3207501   0.2268046  -0.2222222), wk =   0.0013717
        k(  774) = (   0.2886751   0.2041241  -0.1666666), wk =   0.0013717
        k(  775) = (   0.2566001   0.1814437  -0.1111111), wk =   0.0013717
        k(  776) = (   0.2245251   0.1587632  -0.0555555), wk =   0.0013717
        k(  777) = (   0.1924501   0.2041241   0.0000000), wk =   0.0006859
        k(  778) = (  -0.0320749   0.0453610   0.3888888), wk =   0.0013717
        k(  779) = (  -0.0641499   0.0226805   0.4444443), wk =   0.0013717
        k(  780) = (   0.4811251   0.4082482  -0.4999999), wk =   0.0013717
        k(  781) = (   0.4490501   0.3855677  -0.4444443), wk =   0.0013717
        k(  782) = (   0.4169751   0.3628873  -0.3888888), wk =   0.0013717
        k(  783) = (   0.3849001   0.3402068  -0.3333332), wk =   0.0013717
        k(  784) = (   0.3528251   0.3175264  -0.2777777), wk =   0.0013717
        k(  785) = (   0.3207501   0.2948459  -0.2222222), wk =   0.0013717
        k(  786) = (   0.2886751   0.2721655  -0.1666666), wk =   0.0013717
        k(  787) = (   0.2566001   0.2494850  -0.1111111), wk =   0.0013717
        k(  788) = (   0.2245251   0.2268046  -0.0555555), wk =   0.0013717
        k(  789) = (   0.1924501   0.2721655   0.0000000), wk =   0.0006859
        k(  790) = (  -0.0320749   0.1134024   0.3888888), wk =   0.0013717
        k(  791) = (  -0.0641499   0.0907219   0.4444443), wk =   0.0013717
        k(  792) = (   0.4811251   0.4762896  -0.4999999), wk =   0.0013717
        k(  793) = (   0.4490501   0.4536091  -0.4444443), wk =   0.0013717
        k(  794) = (   0.4169751   0.4309287  -0.3888888), wk =   0.0013717
        k(  795) = (   0.3849001   0.4082482  -0.3333332), wk =   0.0013717
        k(  796) = (   0.3528251   0.3855678  -0.2777777), wk =   0.0013717
        k(  797) = (   0.3207501   0.3628873  -0.2222222), wk =   0.0013717
        k(  798) = (   0.2886751   0.3402069  -0.1666666), wk =   0.0013717
        k(  799) = (   0.2566001   0.3175264  -0.1111111), wk =   0.0013717
        k(  800) = (   0.2245251   0.2948460  -0.0555555), wk =   0.0013717
        k(  801) = (   0.1924501   0.3402069   0.0000000), wk =   0.0006859
        k(  802) = (  -0.0320749   0.1814437   0.3888888), wk =   0.0013717
        k(  803) = (  -0.0641499   0.1587633   0.4444443), wk =   0.0013717
        k(  804) = (   0.4811251   0.5443310  -0.4999999), wk =   0.0013717
        k(  805) = (   0.4490501   0.5216505  -0.4444443), wk =   0.0013717
        k(  806) = (   0.4169751   0.4989701  -0.3888888), wk =   0.0013717
        k(  807) = (   0.3849001   0.4762896  -0.3333332), wk =   0.0013717
        k(  808) = (   0.3528251   0.4536091  -0.2777777), wk =   0.0013717
        k(  809) = (   0.3207501   0.4309287  -0.2222222), wk =   0.0013717
        k(  810) = (   0.2886751   0.4082482  -0.1666666), wk =   0.0013717
        k(  811) = (   0.2566001   0.3855678  -0.1111111), wk =   0.0013717
        k(  812) = (   0.2245251   0.3628873  -0.0555555), wk =   0.0013717
        k(  813) = (   0.1924501   0.4082483   0.0000000), wk =   0.0006859
        k(  814) = (   0.0000001   0.2721656   0.3333332), wk =   0.0013717
        k(  815) = (  -0.0320749   0.2494851   0.3888888), wk =   0.0013717
        k(  816) = (  -0.0641499   0.2268047   0.4444443), wk =   0.0013717
        k(  817) = (   0.4811251   0.6123723  -0.4999999), wk =   0.0013717
        k(  818) = (   0.4490501   0.5896919  -0.4444443), wk =   0.0013717
        k(  819) = (   0.4169751   0.5670114  -0.3888888), wk =   0.0013717
        k(  820) = (   0.3849001   0.5443310  -0.3333332), wk =   0.0013717
        k(  821) = (   0.3528251   0.5216505  -0.2777777), wk =   0.0013717
        k(  822) = (   0.3207501   0.4989701  -0.2222222), wk =   0.0013717
        k(  823) = (   0.2886751   0.4762896  -0.1666666), wk =   0.0013717
        k(  824) = (   0.2566001   0.4536092  -0.1111111), wk =   0.0013717
        k(  825) = (   0.2245251   0.4309287  -0.0555555), wk =   0.0013717
        k(  826) = (   0.1924501   0.4762896   0.0000000), wk =   0.0006859
        k(  827) = (   0.0000001   0.3402069   0.3333332), wk =   0.0013717
        k(  828) = (  -0.0320749   0.3175265   0.3888888), wk =   0.0013717
        k(  829) = (  -0.0641499   0.2948460   0.4444443), wk =   0.0013717
        k(  830) = (   0.4811251   0.6804137  -0.4999999), wk =   0.0013717
        k(  831) = (   0.4490501   0.6577333  -0.4444443), wk =   0.0013717
        k(  832) = (   0.4169751   0.6350528  -0.3888888), wk =   0.0013717
        k(  833) = (   0.3849001   0.6123724  -0.3333332), wk =   0.0013717
        k(  834) = (   0.3528251   0.5896919  -0.2777777), wk =   0.0013717
        k(  835) = (   0.3207501   0.5670115  -0.2222222), wk =   0.0013717
        k(  836) = (   0.2886751   0.5443310  -0.1666666), wk =   0.0013717
        k(  837) = (   0.2566001   0.5216505  -0.1111111), wk =   0.0013717
        k(  838) = (   0.2245251   0.4989701  -0.0555555), wk =   0.0013717
        k(  839) = (   0.1924501  -0.6804138   0.0000000), wk =   0.0006859
        k(  840) = (   0.0000001  -0.8164965   0.3333332), wk =   0.0013717
        k(  841) = (  -0.0320749  -0.8391769   0.3888888), wk =   0.0013717
        k(  842) = (  -0.0641499  -0.8618574   0.4444443), wk =   0.0013717
        k(  843) = (   0.4811251  -0.4762897  -0.4999999), wk =   0.0013717
        k(  844) = (   0.4490501  -0.4989702  -0.4444443), wk =   0.0013717
        k(  845) = (   0.4169751  -0.5216506  -0.3888888), wk =   0.0013717
        k(  846) = (   0.3849001  -0.5443311  -0.3333332), wk =   0.0013717
        k(  847) = (   0.3528251  -0.5670115  -0.2777777), wk =   0.0013717
        k(  848) = (   0.3207501  -0.5896920  -0.2222222), wk =   0.0013717
        k(  849) = (   0.2886751  -0.6123724  -0.1666666), wk =   0.0013717
        k(  850) = (   0.2566001  -0.6350529  -0.1111111), wk =   0.0013717
        k(  851) = (   0.2245251  -0.6577333  -0.0555555), wk =   0.0013717
        k(  852) = (   0.1924501  -0.6123724   0.0000000), wk =   0.0006859
        k(  853) = (   0.0000001  -0.7484551   0.3333332), wk =   0.0013717
        k(  854) = (  -0.0320749  -0.7711356   0.3888888), wk =   0.0013717
        k(  855) = (  -0.0641499  -0.7938160   0.4444443), wk =   0.0013717
        k(  856) = (   0.4811251  -0.4082483  -0.4999999), wk =   0.0013717
        k(  857) = (   0.4490501  -0.4309288  -0.4444443), wk =   0.0013717
        k(  858) = (   0.4169751  -0.4536092  -0.3888888), wk =   0.0013717
        k(  859) = (   0.3849001  -0.4762897  -0.3333332), wk =   0.0013717
        k(  860) = (   0.3528251  -0.4989701  -0.2777777), wk =   0.0013717
        k(  861) = (   0.3207501  -0.5216506  -0.2222222), wk =   0.0013717
        k(  862) = (   0.2886751  -0.5443310  -0.1666666), wk =   0.0013717
        k(  863) = (   0.2566001  -0.5670115  -0.1111111), wk =   0.0013717
        k(  864) = (   0.2245251  -0.5896920  -0.0555555), wk =   0.0013717
        k(  865) = (   0.1924501  -0.5443310   0.0000000), wk =   0.0006859
        k(  866) = (   0.0000001  -0.6804137   0.3333332), wk =   0.0013717
        k(  867) = (  -0.0320749  -0.7030942   0.3888888), wk =   0.0013717
        k(  868) = (  -0.0641499  -0.7257746   0.4444443), wk =   0.0013717
        k(  869) = (   0.4811251  -0.3402070  -0.4999999), wk =   0.0013717
        k(  870) = (   0.4490501  -0.3628874  -0.4444443), wk =   0.0013717
        k(  871) = (   0.4169751  -0.3855679  -0.3888888), wk =   0.0013717
        k(  872) = (   0.3849001  -0.4082483  -0.3333332), wk =   0.0013717
        k(  873) = (   0.3528251  -0.4309288  -0.2777777), wk =   0.0013717
        k(  874) = (   0.3207501  -0.4536092  -0.2222222), wk =   0.0013717
        k(  875) = (   0.2886751  -0.4762897  -0.1666666), wk =   0.0013717
        k(  876) = (   0.2566001  -0.4989701  -0.1111111), wk =   0.0013717
        k(  877) = (   0.2245251  -0.5216506  -0.0555555), wk =   0.0013717
        k(  878) = (   0.1924501  -0.4762896   0.0000000), wk =   0.0006859
        k(  879) = (   0.0000001  -0.6123724   0.3333332), wk =   0.0006859
        k(  880) = (  -0.0320749  -0.6350528   0.3888888), wk =   0.0013717
        k(  881) = (  -0.0641499  -0.6577333   0.4444443), wk =   0.0013717
        k(  882) = (   0.4811251  -0.2721656  -0.4999999), wk =   0.0013717
        k(  883) = (   0.4490501  -0.2948460  -0.4444443), wk =   0.0013717
        k(  884) = (   0.4169751  -0.3175265  -0.3888888), wk =   0.0013717
        k(  885) = (   0.3849001  -0.3402069  -0.3333332), wk =   0.0013717
        k(  886) = (   0.3528251  -0.3628874  -0.2777777), wk =   0.0013717
        k(  887) = (   0.3207501  -0.3855678  -0.2222222), wk =   0.0013717
        k(  888) = (   0.2886751  -0.4082483  -0.1666666), wk =   0.0013717
        k(  889) = (   0.2566001  -0.4309287  -0.1111111), wk =   0.0013717
        k(  890) = (   0.2245251  -0.4536092  -0.0555555), wk =   0.0013717
        k(  891) = (   0.1924501  -0.4082483   0.0000000), wk =   0.0006859
        k(  892) = (  -0.0320749  -0.5670114   0.3888888), wk =   0.0013717
        k(  893) = (  -0.0641499  -0.5896919   0.4444443), wk =   0.0013717
        k(  894) = (   0.4811251  -0.2041242  -0.4999999), wk =   0.0013717
        k(  895) = (   0.4490501  -0.2268047  -0.4444443), wk =   0.0013717
        k(  896) = (   0.4169751  -0.2494851  -0.3888888), wk =   0.0013717
        k(  897) = (   0.3849001  -0.2721656  -0.3333332), wk =   0.0013717
        k(  898) = (   0.3528251  -0.2948460  -0.2777777), wk =   0.0013717
        k(  899) = (   0.3207501  -0.3175265  -0.2222222), wk =   0.0013717
        k(  900) = (   0.2886751  -0.3402069  -0.1666666), wk =   0.0013717
        k(  901) = (   0.2566001  -0.3628874  -0.1111111), wk =   0.0013717
        k(  902) = (   0.2245251  -0.3855678  -0.0555555), wk =   0.0013717
        k(  903) = (   0.1924501  -0.3402069   0.0000000), wk =   0.0006859
        k(  904) = (  -0.0320749  -0.4989701   0.3888888), wk =   0.0013717
        k(  905) = (  -0.0641499  -0.5216505   0.4444443), wk =   0.0013717
        k(  906) = (   0.4811251  -0.1360828  -0.4999999), wk =   0.0013717
        k(  907) = (   0.4490501  -0.1587633  -0.4444443), wk =   0.0013717
        k(  908) = (   0.4169751  -0.1814437  -0.3888888), wk =   0.0013717
        k(  909) = (   0.3849001  -0.2041242  -0.3333332), wk =   0.0013717
        k(  910) = (   0.3528251  -0.2268046  -0.2777777), wk =   0.0013717
        k(  911) = (   0.3207501  -0.2494851  -0.2222222), wk =   0.0013717
        k(  912) = (   0.2886751  -0.2721655  -0.1666666), wk =   0.0013717
        k(  913) = (   0.2566001  -0.2948460  -0.1111111), wk =   0.0013717
        k(  914) = (   0.2245251  -0.3175264  -0.0555555), wk =   0.0013717
        k(  915) = (   0.1924501  -0.2721655   0.0000000), wk =   0.0006859
        k(  916) = (  -0.0320749  -0.4309287   0.3888888), wk =   0.0013717
        k(  917) = (  -0.0641499  -0.4536091   0.4444443), wk =   0.0013717
        k(  918) = (   0.4811251  -0.0680414  -0.4999999), wk =   0.0013717
        k(  919) = (   0.4490501  -0.0907219  -0.4444443), wk =   0.0013717
        k(  920) = (   0.4169751  -0.1134024  -0.3888888), wk =   0.0013717
        k(  921) = (   0.3849001  -0.1360828  -0.3333332), wk =   0.0013717
        k(  922) = (   0.3528251  -0.1587633  -0.2777777), wk =   0.0013717
        k(  923) = (   0.3207501  -0.1814437  -0.2222222), wk =   0.0013717
        k(  924) = (   0.2886751  -0.2041242  -0.1666666), wk =   0.0013717
        k(  925) = (   0.2566001  -0.2268046  -0.1111111), wk =   0.0013717
        k(  926) = (   0.2245251  -0.2494851  -0.0555555), wk =   0.0013717
        k(  927) = (   0.1924501  -0.2041241   0.0000000), wk =   0.0006859
        k(  928) = (  -0.0320749  -0.3628873   0.3888888), wk =   0.0013717
        k(  929) = (  -0.0641499  -0.3855677   0.4444443), wk =   0.0013717
        k(  930) = (   0.4811251  -0.0000001  -0.4999999), wk =   0.0013717
        k(  931) = (   0.4490501  -0.0226805  -0.4444443), wk =   0.0013717
        k(  932) = (   0.4169751  -0.0453610  -0.3888888), wk =   0.0013717
        k(  933) = (   0.3849001  -0.0680414  -0.3333332), wk =   0.0013717
        k(  934) = (   0.3528251  -0.0907219  -0.2777777), wk =   0.0013717
        k(  935) = (   0.3207501  -0.1134023  -0.2222222), wk =   0.0013717
        k(  936) = (   0.2886751  -0.1360828  -0.1666666), wk =   0.0013717
        k(  937) = (   0.2566001  -0.1587632  -0.1111111), wk =   0.0013717
        k(  938) = (   0.2245251  -0.1814437  -0.0555555), wk =   0.0013717
        k(  939) = (   0.1924501  -0.1360828   0.0000000), wk =   0.0006859
        k(  940) = (  -0.0320749  -0.2948459   0.3888888), wk =   0.0013717
        k(  941) = (  -0.0641499  -0.3175264   0.4444443), wk =   0.0013717
        k(  942) = (   0.4811251   0.0680413  -0.4999999), wk =   0.0013717
        k(  943) = (   0.4490501   0.0453609  -0.4444443), wk =   0.0013717
        k(  944) = (   0.4169751   0.0226804  -0.3888888), wk =   0.0013717
        k(  945) = (   0.3849001  -0.0000000  -0.3333332), wk =   0.0013717
        k(  946) = (   0.3528251  -0.0226805  -0.2777777), wk =   0.0013717
        k(  947) = (   0.3207501  -0.0453610  -0.2222222), wk =   0.0013717
        k(  948) = (   0.2886751  -0.0680414  -0.1666666), wk =   0.0013717
        k(  949) = (   0.2566001  -0.0907219  -0.1111111), wk =   0.0013717
        k(  950) = (   0.2245251  -0.1134023  -0.0555555), wk =   0.0013717
        k(  951) = (   0.2566001  -0.0907218   0.0000000), wk =   0.0006859
        k(  952) = (   0.0000001  -0.2721654   0.4444443), wk =   0.0013717
        k(  953) = (   0.5452751   0.1134022  -0.4999999), wk =   0.0013717
        k(  954) = (   0.5132001   0.0907218  -0.4444443), wk =   0.0013717
        k(  955) = (   0.4811251   0.0680413  -0.3888888), wk =   0.0013717
        k(  956) = (   0.4490501   0.0453609  -0.3333332), wk =   0.0013717
        k(  957) = (   0.4169751   0.0226804  -0.2777777), wk =   0.0013717
        k(  958) = (   0.3849001  -0.0000000  -0.2222222), wk =   0.0013717
        k(  959) = (   0.3528251  -0.0226805  -0.1666666), wk =   0.0013717
        k(  960) = (   0.3207501  -0.0453609  -0.1111111), wk =   0.0013717
        k(  961) = (   0.2886751  -0.0680414  -0.0555555), wk =   0.0013717
        k(  962) = (   0.2566001  -0.0226805   0.0000000), wk =   0.0006859
        k(  963) = (   0.0000001  -0.2041241   0.4444443), wk =   0.0013717
        k(  964) = (   0.5452751   0.1814436  -0.4999999), wk =   0.0013717
        k(  965) = (   0.5132001   0.1587632  -0.4444443), wk =   0.0013717
        k(  966) = (   0.4811251   0.1360827  -0.3888888), wk =   0.0013717
        k(  967) = (   0.4490501   0.1134022  -0.3333332), wk =   0.0013717
        k(  968) = (   0.4169751   0.0907218  -0.2777777), wk =   0.0013717
        k(  969) = (   0.3849001   0.0680413  -0.2222222), wk =   0.0013717
        k(  970) = (   0.3528251   0.0453609  -0.1666666), wk =   0.0013717
        k(  971) = (   0.3207501   0.0226804  -0.1111111), wk =   0.0013717
        k(  972) = (   0.2886751  -0.0000000  -0.0555555), wk =   0.0013717
        k(  973) = (   0.2566001   0.0453609   0.0000000), wk =   0.0006859
        k(  974) = (   0.0000001  -0.1360827   0.4444443), wk =   0.0013717
        k(  975) = (   0.5452751   0.2494850  -0.4999999), wk =   0.0013717
        k(  976) = (   0.5132001   0.2268045  -0.4444443), wk =   0.0013717
        k(  977) = (   0.4811251   0.2041241  -0.3888888), wk =   0.0013717
        k(  978) = (   0.4490501   0.1814436  -0.3333332), wk =   0.0013717
        k(  979) = (   0.4169751   0.1587632  -0.2777777), wk =   0.0013717
        k(  980) = (   0.3849001   0.1360827  -0.2222222), wk =   0.0013717
[...]

     occupation numbers 
     1.0000   1.0000   0.7880   0.0000   0.0000   0.0000

          k = 0.4491-0.5670 0.0000 (   389 PWs)   bands (ev):

     5.5655   5.7869   7.9867  14.4302  16.1419  24.1333

     occupation numbers 
     1.0000   1.0000   0.0002   0.0000   0.0000   0.0000

          k = 0.5453-0.4990-0.1667 (   391 PWs)   bands (ev):

     3.7564   6.5736  10.5544  11.5297  21.3215  22.3579

     occupation numbers 
     1.0000   1.0000   0.0000   0.0000   0.0000   0.0000

          k = 0.5132-0.5217-0.1111 (   389 PWs)   bands (ev):

     4.2476   6.1611  10.1148  11.9800  19.3046  24.0315

     occupation numbers 
     1.0000   1.0000   0.0000   0.0000   0.0000   0.0000

          k = 0.4811-0.5443-0.0556 (   392 PWs)   bands (ev):

     4.8750   5.8870   8.9499  13.4132  17.3854  24.2108

     occupation numbers 
     1.0000   1.0000   0.0000   0.0000   0.0000   0.0000

          k = 0.4491-0.4990 0.0000 (   392 PWs)   bands (ev):

     4.5003   5.4281   9.4697  15.0247  16.8124  26.1003

     occupation numbers 
     1.0000   1.0000   0.0000   0.0000   0.0000   0.0000

          k = 0.5453-0.4309-0.1667 (   387 PWs)   bands (ev):

     3.6280   5.5332  11.3431  13.1662  20.4793  22.1710

     occupation numbers 
     1.0000   1.0000   0.0000   0.0000   0.0000   0.0000

          k = 0.5132-0.4536-0.1111 (   390 PWs)   bands (ev):

     4.0693   5.0506  11.7441  12.7107  20.0148  22.5706

     occupation numbers 
     1.0000   1.0000   0.0000   0.0000   0.0000   0.0000

          k = 0.4811-0.4763-0.0556 (   391 PWs)   bands (ev):

     4.5782   4.8004  10.5389  14.0776  18.0776  24.5518

     occupation numbers 
     1.0000   1.0000   0.0000   0.0000   0.0000   0.0000

          k = 0.4491-0.4309 0.0000 (   390 PWs)   bands (ev):

     3.4183   5.3224  11.1549  15.7610  17.6128  24.3127

     occupation numbers 
     1.0000   1.0000   0.0000   0.0000   0.0000   0.0000

          k = 0.5453-0.3629-0.1667 (   389 PWs)   bands (ev):

     3.6530   4.6269  12.2760  14.8864  18.8848  22.8490

     occupation numbers 
     1.0000   1.0000   0.0000   0.0000   0.0000   0.0000

          k = 0.5132-0.3856-0.1111 (   388 PWs)   bands (ev):

     3.9567   4.1687  13.3937  13.6935  20.6086  21.0811

     occupation numbers 
     1.0000   1.0000   0.0000   0.0000   0.0000   0.0000

          k = 0.4811-0.4082-0.0556 (   389 PWs)   bands (ev):

     3.6530   4.6269  12.2760  14.8864  18.8848  22.8490

     occupation numbers 
     1.0000   1.0000   0.0000   0.0000   0.0000   0.0000

          k = 0.4491-0.3629 0.0000 (   387 PWs)   bands (ev):

     2.4827   5.3618  12.9793  16.6381  18.5222  22.6406

     occupation numbers 
     1.0000   1.0000   0.0000   0.0000   0.0000   0.0000

          k = 0.5774-0.2722-0.2222 (   389 PWs)   bands (ev):

     3.6530   4.6269  12.2760  14.8864  18.8848  22.8492

     occupation numbers 
     1.0000   1.0000   0.0000   0.0000   0.0000   0.0000

          k = 0.5453-0.2948-0.1667 (   391 PWs)   bands (ev):

     3.7484   3.9548  13.3506  16.1409  17.9752  22.9842

     occupation numbers 
     1.0000   1.0000   0.0000   0.0000   0.0000   0.0000

          k = 0.5132-0.3175-0.1111 (   390 PWs)   bands (ev):

     3.2270   4.2103  14.5434  15.3736  19.2989  21.6451

     occupation numbers 
     1.0000   1.0000   0.0000   0.0000   0.0000   0.0000

          k = 0.4811-0.3402-0.0556 (   389 PWs)   bands (ev):

     2.7770   4.7078  14.1271  15.8334  19.7656  21.2463

     occupation numbers 
     1.0000   1.0000   0.0000   0.0000   0.0000   0.0000

          k = 0.4491-0.2948 0.0000 (   389 PWs)   bands (ev):

     1.7012   5.5535  14.9024  17.6534  19.4814  21.1036

     occupation numbers 
     1.0000   1.0000   0.0000   0.0000   0.0000   0.0000

          k = 0.5774-0.2041-0.2222 (   388 PWs)   bands (ev):

     3.9567   4.1687  13.3937  13.6935  20.6086  21.0811

     occupation numbers 
     1.0000   1.0000   0.0000   0.0000   0.0000   0.0000

          k = 0.5453-0.2268-0.1667 (   390 PWs)   bands (ev):

     3.2270   4.2103  14.5434  15.3736  19.2989  21.6450

     occupation numbers 
     1.0000   1.0000   0.0000   0.0000   0.0000   0.0000

          k = 0.5132-0.2495-0.1111 (   389 PWs)   bands (ev):

     2.5625   4.4992  15.6930  16.7104  18.4616  21.8424

     occupation numbers 
     1.0000   1.0000   0.0000   0.0000   0.0000   0.0000

          k = 0.4811-0.2722-0.0556 (   389 PWs)   bands (ev):

     2.0522   4.9486  16.0240  16.9066  19.7420  20.6736

     occupation numbers 
     1.0000   1.0000   0.0000   0.0000   0.0000   0.0000

          k = 0.4491-0.2268 0.0000 (   388 PWs)   bands (ev):

     1.0779   5.8997  16.8341  18.7825  19.7305  20.2723

     occupation numbers 
     1.0000   1.0000   0.0000   0.0000   0.0000   0.0000

          k = 0.5453-0.1588-0.1667 (   389 PWs)   bands (ev):

     2.7770   4.7078  14.1271  15.8334  19.7656  21.2462

     occupation numbers 
     1.0000   1.0000   0.0000   0.0000   0.0000   0.0000

          k = 0.5132-0.1814-0.1111 (   389 PWs)   bands (ev):

     2.0522   4.9486  16.0240  16.9066  19.7420  20.6733

     occupation numbers 
     1.0000   1.0000   0.0000   0.0000   0.0000   0.0000

          k = 0.4811-0.2041-0.0556 (   387 PWs)   bands (ev):

     1.4849   5.3465  17.4679  18.0608  18.8873  20.8926

     occupation numbers 
     1.0000   1.0000   0.0000   0.0000   0.0000   0.0000

          k = 0.5132-0.1814 0.0000 (   392 PWs)   bands (ev):

     1.8368   4.7385  18.6093  18.6093  19.5239  19.5239

     occupation numbers 
     1.0000   1.0000   0.0000   0.0000   0.0000   0.0000

          k = 0.5774-0.1361-0.1111 (   391 PWs)   bands (ev):

     3.0153   3.9971  15.2238  17.1128  18.9001  21.4043

     occupation numbers 
     1.0000   1.0000   0.0000   0.0000   0.0000   0.0000

          k = 0.5453-0.1588-0.0556 (   388 PWs)   bands (ev):

     2.3484   4.2873  17.1028  18.2183  19.6694  19.9672

     occupation numbers 
     1.0000   1.0000   0.0000   0.0000   0.0000   0.0000

          k = 0.5132-0.1134 0.0000 (   387 PWs)   bands (ev):

     1.4849   5.3465  17.4679  18.0608  18.8875  20.8927

     occupation numbers 
     1.0000   1.0000   0.0000   0.0000   0.0000   0.0000

          k = 0.5774-0.0680-0.1111 (   389 PWs)   bands (ev):

     2.7770   4.7078  14.1271  15.8334  19.7656  21.2463

     occupation numbers 
     1.0000   1.0000   0.0000   0.0000   0.0000   0.0000

          k = 0.5453-0.0907-0.0556 (   389 PWs)   bands (ev):

     2.0522   4.9486  16.0240  16.9067  19.7421  20.6735

     occupation numbers 
     1.0000   1.0000   0.0000   0.0000   0.0000   0.0000

          k = 0.5132-0.0454 0.0000 (   385 PWs)   bands (ev):

     1.2946   6.1079  16.3079  16.4479  18.1680  22.4144

     occupation numbers 
     1.0000   1.0000   0.0000   0.0000   0.0000   0.0000

          k = 0.5774-0.0000-0.1111 (   385 PWs)   bands (ev):

     2.6957   5.5724  13.1478  14.0913  20.4061  21.4144

     occupation numbers 
     1.0000   1.0000   0.0000   0.0000   0.0000   0.0000

          k = 0.5453-0.0227-0.0556 (   387 PWs)   bands (ev):

     1.9164   5.7633  14.9812  15.1867  18.9663  22.1808

     occupation numbers 
     1.0000   1.0000   0.0000   0.0000   0.0000   0.0000

          k = 0.5132 0.0227 0.0000 (   389 PWs)   bands (ev):

     1.2664   7.0183  14.5486  15.5684  17.3184  24.0657

     occupation numbers 
     1.0000   1.0000   0.0000   0.0000   0.0000   0.0000

          k = 0.5774 0.0680-0.1111 (   392 PWs)   bands (ev):

     2.7733   6.5808  12.1749  12.5408  19.6701  23.0566

     occupation numbers 
     1.0000   1.0000   0.0000   0.0000   0.0000   0.0000

          k = 0.5453 0.0454-0.0556 (   387 PWs)   bands (ev):

     1.9417   6.7258  13.3650  14.2101  18.1477  23.7884

     occupation numbers 
     1.0000   1.0000   0.0000   0.0000   0.0000   0.0000

          k = 0.5132 0.0907 0.0000 (   389 PWs)   bands (ev):

     1.4003   8.0708  12.8815  14.8313  16.5236  22.8835

     occupation numbers 
     1.0000   0.0000   0.0000   0.0000   0.0000   0.0000

          k = 0.5774 0.1361-0.1111 (   395 PWs)   bands (ev):

     3.0088   7.7159  10.7213  11.7510  18.9654  22.6450

     occupation numbers 
     1.0000   0.3228   0.0000   0.0000   0.0000   0.0000

          k = 0.5453 0.1134-0.0556 (   393 PWs)   bands (ev):

     2.1275   7.8272  11.7381  13.4958  17.4053  22.6993

     occupation numbers 
     1.0000   0.0367   0.0000   0.0000   0.0000   0.0000

          k = 0.5132 0.1588 0.0000 (   388 PWs)   bands (ev):

     1.6952   9.2519  11.3408  14.2369  15.8191  20.7689

     occupation numbers 
     1.0000   0.0000   0.0000   0.0000   0.0000   0.0000

          k = 0.5774 0.2041-0.1111 (   394 PWs)   bands (ev):

     3.3981   8.8990   9.3127  11.2924  18.2742  20.7317

     occupation numbers 
     1.0000   0.0000   0.0000   0.0000   0.0000   0.0000

          k = 0.5453 0.1814-0.0556 (   390 PWs)   bands (ev):

     2.4718   9.0430  10.2472  12.9399  16.7467  20.6389

     occupation numbers 
     1.0000   0.0000   0.0000   0.0000   0.0000   0.0000

          k = 0.5132 0.2268 0.0000 (   392 PWs)   bands (ev):

     2.1486   9.8935  10.5898  13.7852  15.1709  18.8191

     occupation numbers 
     1.0000   0.0000   0.0000   0.0000   0.0000   0.0000

          k = 0.5774 0.2722-0.1111 (   397 PWs)   bands (ev):

     3.9299   7.9787   9.9446  11.3273  17.3302  19.2707

     occupation numbers 
     1.0000   0.0002   0.0000   0.0000   0.0000   0.0000

          k = 0.5453 0.2495-0.0556 (   393 PWs)   bands (ev):

     2.9703   8.8584  10.3785  12.5687  16.0936  18.7964

     occupation numbers 
     1.0000   0.0000   0.0000   0.0000   0.0000   0.0000

          k = 0.5132 0.2948 0.0000 (   393 PWs)   bands (ev):

     2.7559   8.6574  11.9316  13.4764  14.4114  17.3002

     occupation numbers 
     1.0000   0.0000   0.0000   0.0000   0.0000   0.0000

          k = 0.5774 0.3402-0.1111 (   392 PWs)   bands (ev):

     4.5605   6.8922  10.1690  12.3696  15.8915  18.6103

     occupation numbers 
     1.0000   1.0000   0.0000   0.0000   0.0000   0.0000

          k = 0.5453 0.3175-0.0556 (   391 PWs)   bands (ev):

     3.6112   7.6690  11.4888  12.5969  15.1868  17.5295

     occupation numbers 
     1.0000   0.5641   0.0000   0.0000   0.0000   0.0000

          k = 0.5132 0.3629 0.0000 (   392 PWs)   bands (ev):

     3.5048   7.5648  13.1652  13.3103  13.3103  16.6576

     occupation numbers 
     1.0000   1.0240   0.0000   0.0000   0.0000   0.0000

          k = 0.5774 0.4082-0.1111 (   385 PWs)   bands (ev):

     4.9863   6.3137  10.1590  13.4062  14.7522  18.4449

     occupation numbers 
     1.0000   1.0000   0.0000   0.0000   0.0000   0.0000

          k = 0.5453 0.3856-0.0556 (   388 PWs)   bands (ev):

     4.3504   6.6813  11.7267  13.2869  14.2045  17.1061

     occupation numbers 
     1.0000   1.0000   0.0000   0.0000   0.0000   0.0000

          k = 0.5132-0.7938 0.0000 (   388 PWs)   bands (ev):

     4.3504   6.6813  11.7267  13.2869  14.2045  17.1061

     occupation numbers 
     1.0000   1.0000   0.0000   0.0000   0.0000   0.0000

          k = 0.5453-0.7711-0.0556 (   388 PWs)   bands (ev):

     4.8828   6.2068  11.3860  12.4989  15.0858  17.4334

     occupation numbers 
     1.0000   1.0000   0.0000   0.0000   0.0000   0.0000

          k = 0.5132-0.7258 0.0000 (   385 PWs)   bands (ev):

     4.9863   6.3137  10.1590  13.4062  14.7522  18.4449

     occupation numbers 
     1.0000   1.0000   0.0000   0.0000   0.0000   0.0000

          k = 0.5453-0.7031-0.0556 (   392 PWs)   bands (ev):

     4.5605   6.8922  10.1690  12.3696  15.8915  18.6104

     occupation numbers 
     1.0000   1.0000   0.0000   0.0000   0.0000   0.0000

          k = 0.5132-0.6577 0.0000 (   390 PWs)   bands (ev):

     4.7702   7.0950   8.6638  13.6682  15.1955  20.2300

     occupation numbers 
     1.0000   1.0000   0.0000   0.0000   0.0000   0.0000

          k = 0.5453-0.6351-0.0556 (   393 PWs)   bands (ev):

     4.0359   8.0587   8.7900  12.6406  16.4465  20.3708

     occupation numbers 
     1.0000   0.0000   0.0000   0.0000   0.0000   0.0000

          k = 0.5132-0.5897 0.0000 (   388 PWs)   bands (ev):

     4.3530   7.2172   8.4425  14.0728  15.7104  22.2178

     occupation numbers 
     1.0000   1.0001   0.0000   0.0000   0.0000   0.0000

          k = 0.5453-0.5670-0.0556 (   392 PWs)   bands (ev):

     3.6112   7.4039   9.5117  13.0972  17.0130  22.3726

     occupation numbers 
     1.0000   1.0274   0.0000   0.0000   0.0000   0.0000

          k = 0.5132-0.5217 0.0000 (   389 PWs)   bands (ev):

     4.0352   5.9673   9.9245  14.6200  16.3448  24.2781

     occupation numbers 
     1.0000   1.0000   0.0000   0.0000   0.0000   0.0000

          k = 0.5453-0.4990-0.0556 (   391 PWs)   bands (ev):

     3.3294   6.2001  11.0597  13.7102  17.6757  24.3324

     occupation numbers 
     1.0000   1.0000   0.0000   0.0000   0.0000   0.0000

          k = 0.5132-0.4536 0.0000 (   397 PWs)   bands (ev):

     3.8569   4.8462  11.5728  15.3095  17.1051  24.6939

     occupation numbers 
     1.0000   1.0000   0.0000   0.0000   0.0000   0.0000

          k = 0.5453-0.4309-0.0556 (   390 PWs)   bands (ev):

     3.2008   5.1306  12.7470  14.4711  18.4472  23.2844

     occupation numbers 
     1.0000   1.0000   0.0000   0.0000   0.0000   0.0000

          k = 0.5132-0.3856 0.0000 (   391 PWs)   bands (ev):

     3.7484   3.9548  13.3506  16.1409  17.9752  22.9843

     occupation numbers 
     1.0000   1.0000   0.0000   0.0000   0.0000   0.0000

          k = 0.5453-0.3629-0.0556 (   390 PWs)   bands (ev):

     3.2270   4.2103  14.5434  15.3736  19.2988  21.6449

     occupation numbers 
     1.0000   1.0000   0.0000   0.0000   0.0000   0.0000

          k = 0.5132-0.3175 0.0000 (   391 PWs)   bands (ev):

     3.0153   3.9971  15.2238  17.1128  18.9001  21.4043

     occupation numbers 
     1.0000   1.0000   0.0000   0.0000   0.0000   0.0000

          k = 0.5453-0.2948-0.0556 (   386 PWs)   bands (ev):

     3.3310   3.5236  16.3451  16.4420  19.9810  20.2954

     occupation numbers 
     1.0000   1.0000   0.0000   0.0000   0.0000   0.0000

          k = 0.5132-0.2495 0.0000 (   388 PWs)   bands (ev):

     2.3484   4.2873  17.1028  18.2183  19.6694  19.9671

     occupation numbers 
     1.0000   1.0000   0.0000   0.0000   0.0000   0.0000

          k = 0.5774-0.2041-0.1111 (   386 PWs)   bands (ev):

     3.3310   3.5236  16.3451  16.4420  19.9810  20.2957

     occupation numbers 
     1.0000   1.0000   0.0000   0.0000   0.0000   0.0000

          k = 0.5453-0.2268-0.0556 (   389 PWs)   bands (ev):

     2.8018   3.7851  17.5132  17.7754  19.2056  20.3592

     occupation numbers 
     1.0000   1.0000   0.0000   0.0000   0.0000   0.0000

          k =-0.5774 0.2041 0.0000 (   392 PWs)   bands (ev):

     3.1219   3.3064  18.8334  18.8334  19.1614  19.1615

     occupation numbers 
     1.0000   1.0000   0.0000   0.0000   0.0000   0.0000

          k =-0.5774 0.2722 0.0000 (   389 PWs)   bands (ev):

     2.8018   3.7851  17.5132  17.7754  19.2056  20.3592

     occupation numbers 
     1.0000   1.0000   0.0000   0.0000   0.0000   0.0000

          k =-0.5774 0.3402 0.0000 (   389 PWs)   bands (ev):

     2.5625   4.4992  15.6930  16.7104  18.4616  21.8425

     occupation numbers 
     1.0000   1.0000   0.0000   0.0000   0.0000   0.0000

          k =-0.5774 0.4082 0.0000 (   385 PWs)   bands (ev):

     2.4807   5.3692  13.8748  15.7841  17.5739  23.4614

     occupation numbers 
     1.0000   1.0000   0.0000   0.0000   0.0000   0.0000

          k =-0.5774 0.4763 0.0000 (   391 PWs)   bands (ev):

     2.5584   6.3879  12.1504  14.9995  16.7434  24.5437

     occupation numbers 
     1.0000   1.0000   0.0000   0.0000   0.0000   0.0000

          k =-0.5774 0.5443 0.0000 (   392 PWs)   bands (ev):

     2.7942   7.5462  10.5529  14.3573  16.0190  22.4724

     occupation numbers 
     1.0000   1.0582   0.0000   0.0000   0.0000   0.0000

          k =-0.5774 0.6124 0.0000 (   392 PWs)   bands (ev):

     3.1843   8.7663   9.1659  13.8578  15.4047  20.4113

     occupation numbers 
     1.0000   0.0000   0.0000   0.0000   0.0000   0.0000

          k =-0.5774 0.6804 0.0000 (   391 PWs)   bands (ev):

     3.7175   7.7715  10.2636  13.5010  14.8572  18.5391

     occupation numbers 
     1.0000   0.1271   0.0000   0.0000   0.0000   0.0000

          k =-0.5774 0.7485 0.0000 (   388 PWs)   bands (ev):

     4.3504   6.6813  11.7267  13.2869  14.2045  17.1061

     occupation numbers 
     1.0000   1.0000   0.0000   0.0000   0.0000   0.0000

          k =-0.5774-0.4082 0.0000 (   388 PWs)   bands (ev):

     4.7792   6.0991  13.0558  13.2155  13.2155  16.5581

     occupation numbers 
     1.0000   1.0000   0.0000   0.0000   0.0000   0.0000

     the Fermi energy is     7.6997 ev

!    total energy              =      -6.64358141 Ry
     Harris-Foulkes estimate   =      -6.64358173 Ry
     estimated scf accuracy    <       0.00000131 Ry

     The total energy is the sum of the following terms:

     one-electron contribution =       2.98360984 Ry
     hartree contribution      =       0.00850124 Ry
     xc contribution           =      -4.22930924 Ry
     ewald contribution        =      -5.40634338 Ry
     smearing contrib. (-TS)   =      -0.00003987 Ry

     convergence has been achieved in   3 iterations
 
     init_run     :     26.10s CPU      3.51s WALL (       1 calls)
     electrons    :    462.57s CPU     42.82s WALL (       1 calls)

     Called by init_run:
     wfcinit      :     25.74s CPU      3.34s WALL (       1 calls)
     wfcinit:atom :      0.55s CPU      0.07s WALL (    1550 calls)
     wfcinit:wfcr :     23.85s CPU      3.09s WALL (    1550 calls)
     potinit      :      0.01s CPU      0.01s WALL (       1 calls)

     Called by electrons:
     c_bands      :    450.80s CPU     38.43s WALL (       4 calls)
     sum_band     :     10.67s CPU      4.33s WALL (       4 calls)
     v_of_rho     :      0.02s CPU      0.00s WALL (       4 calls)
     v_h          :      0.01s CPU      0.00s WALL (       4 calls)
     v_xc         :      0.01s CPU      0.00s WALL (       4 calls)
     newd         :      0.32s CPU      0.02s WALL (       4 calls)
     mix_rho      :      0.01s CPU      0.00s WALL (       4 calls)

     Called by c_bands:
     init_us_2    :      6.62s CPU      0.91s WALL (   13950 calls)
     cegterg      :    416.57s CPU     34.82s WALL (    6200 calls)

     Called by sum_band:
     sum_band:bec :      0.11s CPU      0.02s WALL (    6200 calls)
     addusdens    :      0.01s CPU      0.01s WALL (       4 calls)

     Called by *egterg:
     h_psi        :    383.52s CPU     33.42s WALL (   21245 calls)
     s_psi        :      3.19s CPU      0.29s WALL (   21245 calls)
     g_psi        :      1.61s CPU      0.13s WALL (   13495 calls)
     cdiaghg      :     19.89s CPU      1.61s WALL (   18145 calls)
     cegterg:over :      4.89s CPU      0.40s WALL (   13495 calls)
     cegterg:upda :      4.36s CPU      0.36s WALL (   13495 calls)
     cegterg:last :      3.12s CPU      0.25s WALL (    7021 calls)

     Called by h_psi:
     h_psi:pot    :    380.53s CPU     33.16s WALL (   21245 calls)
     h_psi:calbec :      4.55s CPU      0.37s WALL (   21245 calls)
     vloc_psi     :    368.63s CPU     32.21s WALL (   21245 calls)
     add_vuspsi   :      3.28s CPU      0.29s WALL (   21245 calls)

     General routines
     calbec       :      2.84s CPU      0.29s WALL (   27445 calls)
     fft          :      0.02s CPU      0.03s WALL (      26 calls)
     fftw         :    301.33s CPU     29.30s WALL (  249082 calls)
 
     Parallel routines
 
     PWSCF        :  8m 8.87s CPU     0m46.39s WALL

 
   This run was terminated on:  12:27:25  24Jan2019            

=------------------------------------------------------------------------------=
   JOB DONE.
=------------------------------------------------------------------------------=
