
     Program PWSCF v.6.2 (svn rev. 14038) starts on 24Jan2019 at 17: 2: 8 

     This program is part of the open-source Quantum ESPRESSO suite
     for quantum simulation of materials; please cite
         "P. Giannozzi et al., J. Phys.:Condens. Matter 21 395502 (2009);
         "P. Giannozzi et al., J. Phys.:Condens. Matter 29 465901 (2017);
          URL http://www.quantum-espresso.org", 
     in publications or presentations arising from this work. More details at
     http://www.quantum-espresso.org/quote

     Parallel version (MPI), running on     1 processors

     MPI processes distributed on     1 nodes
     Reading input from ./AlfccSEPNEG0DOT1695697582604199.in
Warning: card &IONS ignored
Warning: card / ignored
Warning: card &CELL ignored
Warning: card / ignored

     Current dimensions of program PWSCF are:
     Max number of different atomic species (ntypx) = 10
     Max number of k-points (npk) =  40000
     Max angular momentum in pseudopotentials (lmaxx) =  3
     Message from routine iosys:
     minimal I/O required, wf_collect reset to FALSE

     Subspace diagonalization in iterative solution of the eigenvalue problem:
     a serial algorithm will be used

     Found symmetry operation: I + ( -0.5000 -0.5000  0.0000)
     This is a supercell, fractional translations are disabled
 
     G-vector sticks info
     --------------------
     sticks:   dense  smooth     PW     G-vecs:    dense   smooth      PW
     Sum         465     465    145                 6213     6213    1163
 


     bravais-lattice index     =            0
     lattice parameter (alat)  =       7.6325  a.u.
     unit-cell volume          =     369.2314 (a.u.)^3
     number of atoms/cell      =            4
     number of atomic types    =            1
     number of electrons       =        12.00
     number of Kohn-Sham states=           10
     kinetic-energy cutoff     =      25.0000  Ry
     charge density cutoff     =     100.0000  Ry
     convergence threshold     =      1.0E-07
     mixing beta               =       0.7000
     number of iterations used =            8  plain     mixing
     Exchange-correlation      = SLA  PW   PBE  PBE ( 1  4  3  4 0 0)

     celldm(1)=   7.632472  celldm(2)=   0.000000  celldm(3)=   0.000000
     celldm(4)=   0.000000  celldm(5)=   0.000000  celldm(6)=   0.000000

     crystal axes: (cart. coord. in units of alat)
               a(1) = (   1.000000   0.000000   0.000000 )  
               a(2) = (   0.000000   1.000000   0.000000 )  
               a(3) = (   0.000000   0.000000   0.830430 )  

     reciprocal axes: (cart. coord. in units 2 pi/alat)
               b(1) = (  1.000000  0.000000  0.000000 )  
               b(2) = (  0.000000  1.000000  0.000000 )  
               b(3) = (  0.000000  0.000000  1.204195 )  


     PseudoPot. # 1 for Al read from file:
     ./al_pbe_v1.uspp.F.UPF
     MD5 check sum: 0a6289f5291fc8f409219462bc851e1f
     Pseudo is Ultrasoft + core correction, Zval =  3.0
     Generated by new atomic code, or converted to UPF format
     Using radial grid of  893 points,  3 beta functions with: 
                l(1) =   0
                l(2) =   1
                l(3) =   2
     Q(r) pseudized with  8 coefficients,  rinner =    0.900   0.900   0.900
                                                       0.900   0.900

     atomic species   valence    mass     pseudopotential
        Al             3.00    26.98150     Al( 1.00)

     16 Sym. Ops., with inversion, found


                                    s                        frac. trans.

      isym =  1     identity                                     

 cryst.   s( 1) = (     1          0          0      )
                  (     0          1          0      )
                  (     0          0          1      )

 cart.    s( 1) = (  1.0000000  0.0000000  0.0000000 )
                  (  0.0000000  1.0000000  0.0000000 )
                  (  0.0000000  0.0000000  1.0000000 )


      isym =  2     180 deg rotation - cart. axis [0,0,1]        

 cryst.   s( 2) = (    -1          0          0      )
                  (     0         -1          0      )
                  (     0          0          1      )

 cart.    s( 2) = ( -1.0000000  0.0000000  0.0000000 )
                  (  0.0000000 -1.0000000  0.0000000 )
                  (  0.0000000  0.0000000  1.0000000 )


      isym =  3     180 deg rotation - cart. axis [0,1,0]        

 cryst.   s( 3) = (    -1          0          0      )
                  (     0          1          0      )
                  (     0          0         -1      )

 cart.    s( 3) = ( -1.0000000  0.0000000  0.0000000 )
                  (  0.0000000  1.0000000  0.0000000 )
                  (  0.0000000  0.0000000 -1.0000000 )


      isym =  4     180 deg rotation - cart. axis [1,0,0]        

 cryst.   s( 4) = (     1          0          0      )
                  (     0         -1          0      )
                  (     0          0         -1      )

 cart.    s( 4) = (  1.0000000  0.0000000  0.0000000 )
                  (  0.0000000 -1.0000000  0.0000000 )
                  (  0.0000000  0.0000000 -1.0000000 )


      isym =  5     180 deg rotation - cart. axis [1,1,0]        

 cryst.   s( 5) = (     0          1          0      )
                  (     1          0          0      )
                  (     0          0         -1      )

 cart.    s( 5) = (  0.0000000  1.0000000  0.0000000 )
                  (  1.0000000  0.0000000  0.0000000 )
                  (  0.0000000  0.0000000 -1.0000000 )


      isym =  6     180 deg rotation - cart. axis [1,-1,0]       

 cryst.   s( 6) = (     0         -1          0      )
                  (    -1          0          0      )
                  (     0          0         -1      )

 cart.    s( 6) = (  0.0000000 -1.0000000  0.0000000 )
                  ( -1.0000000  0.0000000  0.0000000 )
                  (  0.0000000  0.0000000 -1.0000000 )


      isym =  7      90 deg rotation - cart. axis [0,0,-1]       

 cryst.   s( 7) = (     0         -1          0      )
                  (     1          0          0      )
                  (     0          0          1      )

 cart.    s( 7) = (  0.0000000  1.0000000  0.0000000 )
                  ( -1.0000000  0.0000000  0.0000000 )
                  (  0.0000000  0.0000000  1.0000000 )


      isym =  8      90 deg rotation - cart. axis [0,0,1]        

 cryst.   s( 8) = (     0          1          0      )
                  (    -1          0          0      )
                  (     0          0          1      )

 cart.    s( 8) = (  0.0000000 -1.0000000  0.0000000 )
                  (  1.0000000  0.0000000  0.0000000 )
                  (  0.0000000  0.0000000  1.0000000 )


      isym =  9     inversion                                    

 cryst.   s( 9) = (    -1          0          0      )
                  (     0         -1          0      )
                  (     0          0         -1      )

 cart.    s( 9) = ( -1.0000000  0.0000000  0.0000000 )
                  (  0.0000000 -1.0000000  0.0000000 )
                  (  0.0000000  0.0000000 -1.0000000 )


      isym = 10     inv. 180 deg rotation - cart. axis [0,0,1]   

 cryst.   s(10) = (     1          0          0      )
                  (     0          1          0      )
                  (     0          0         -1      )

 cart.    s(10) = (  1.0000000  0.0000000  0.0000000 )
                  (  0.0000000  1.0000000  0.0000000 )
                  (  0.0000000  0.0000000 -1.0000000 )


      isym = 11     inv. 180 deg rotation - cart. axis [0,1,0]   

 cryst.   s(11) = (     1          0          0      )
                  (     0         -1          0      )
                  (     0          0          1      )

 cart.    s(11) = (  1.0000000  0.0000000  0.0000000 )
                  (  0.0000000 -1.0000000  0.0000000 )
                  (  0.0000000  0.0000000  1.0000000 )


      isym = 12     inv. 180 deg rotation - cart. axis [1,0,0]   

 cryst.   s(12) = (    -1          0          0      )
                  (     0          1          0      )
                  (     0          0          1      )

 cart.    s(12) = ( -1.0000000  0.0000000  0.0000000 )
                  (  0.0000000  1.0000000  0.0000000 )
                  (  0.0000000  0.0000000  1.0000000 )


      isym = 13     inv. 180 deg rotation - cart. axis [1,1,0]   

 cryst.   s(13) = (     0         -1          0      )
                  (    -1          0          0      )
                  (     0          0          1      )

 cart.    s(13) = (  0.0000000 -1.0000000  0.0000000 )
                  ( -1.0000000  0.0000000  0.0000000 )
                  (  0.0000000  0.0000000  1.0000000 )


      isym = 14     inv. 180 deg rotation - cart. axis [1,-1,0]  

 cryst.   s(14) = (     0          1          0      )
                  (     1          0          0      )
                  (     0          0          1      )

 cart.    s(14) = (  0.0000000  1.0000000  0.0000000 )
                  (  1.0000000  0.0000000  0.0000000 )
                  (  0.0000000  0.0000000  1.0000000 )


      isym = 15     inv.  90 deg rotation - cart. axis [0,0,-1]  

 cryst.   s(15) = (     0          1          0      )
                  (    -1          0          0      )
                  (     0          0         -1      )

 cart.    s(15) = (  0.0000000 -1.0000000  0.0000000 )
                  (  1.0000000  0.0000000  0.0000000 )
                  (  0.0000000  0.0000000 -1.0000000 )


      isym = 16     inv.  90 deg rotation - cart. axis [0,0,1]   

 cryst.   s(16) = (     0         -1          0      )
                  (     1          0          0      )
                  (     0          0         -1      )

 cart.    s(16) = (  0.0000000  1.0000000  0.0000000 )
                  ( -1.0000000  0.0000000  0.0000000 )
                  (  0.0000000  0.0000000 -1.0000000 )


   Cartesian axes

     site n.     atom                  positions (alat units)
         1           Al  tau(   1) = (   0.0000000   0.0000000   0.0000000  )
         2           Al  tau(   2) = (   0.5000000   0.5000000   0.0000000  )
         3           Al  tau(   3) = (   0.5000000   0.0000000   0.4152150  )
         4           Al  tau(   4) = (   0.0000000   0.5000000   0.4152150  )

   Crystallographic axes

     site n.     atom                  positions (cryst. coord.)
         1           Al  tau(   1) = (  0.0000000  0.0000000  0.0000000  )
         2           Al  tau(   2) = (  0.5000000  0.5000000  0.0000000  )
         3           Al  tau(   3) = (  0.5000000  0.0000000  0.5000000  )
         4           Al  tau(   4) = (  0.0000000  0.5000000  0.5000000  )

     number of k points=   605  Marzari-Vanderbilt smearing, width (Ry)=  0.0100
                       cart. coord. in units 2pi/alat
        k(    1) = (   0.0000000   0.0000000   0.0000000), wk =   0.0002939
        k(    2) = (   0.0000000   0.0000000   0.0573426), wk =   0.0005879
        k(    3) = (   0.0000000   0.0000000   0.1146853), wk =   0.0005879
        k(    4) = (   0.0000000   0.0000000   0.1720279), wk =   0.0005879
        k(    5) = (   0.0000000   0.0000000   0.2293705), wk =   0.0005879
        k(    6) = (   0.0000000   0.0000000   0.2867132), wk =   0.0005879
        k(    7) = (   0.0000000   0.0000000   0.3440558), wk =   0.0005879
        k(    8) = (   0.0000000   0.0000000   0.4013984), wk =   0.0005879
        k(    9) = (   0.0000000   0.0000000   0.4587411), wk =   0.0005879
        k(   10) = (   0.0000000   0.0000000   0.5160837), wk =   0.0005879
        k(   11) = (   0.0000000   0.0000000   0.5734263), wk =   0.0005879
        k(   12) = (   0.0000000   0.0555556   0.0000000), wk =   0.0011758
        k(   13) = (   0.0000000   0.0555556   0.0573426), wk =   0.0023516
        k(   14) = (   0.0000000   0.0555556   0.1146853), wk =   0.0023516
        k(   15) = (   0.0000000   0.0555556   0.1720279), wk =   0.0023516
        k(   16) = (   0.0000000   0.0555556   0.2293705), wk =   0.0023516
        k(   17) = (   0.0000000   0.0555556   0.2867132), wk =   0.0023516
        k(   18) = (   0.0000000   0.0555556   0.3440558), wk =   0.0023516
        k(   19) = (   0.0000000   0.0555556   0.4013984), wk =   0.0023516
        k(   20) = (   0.0000000   0.0555556   0.4587411), wk =   0.0023516
        k(   21) = (   0.0000000   0.0555556   0.5160837), wk =   0.0023516
        k(   22) = (   0.0000000   0.0555556   0.5734263), wk =   0.0023516
        k(   23) = (   0.0000000   0.1111111   0.0000000), wk =   0.0011758
        k(   24) = (   0.0000000   0.1111111   0.0573426), wk =   0.0023516
        k(   25) = (   0.0000000   0.1111111   0.1146853), wk =   0.0023516
        k(   26) = (   0.0000000   0.1111111   0.1720279), wk =   0.0023516
        k(   27) = (   0.0000000   0.1111111   0.2293705), wk =   0.0023516
        k(   28) = (   0.0000000   0.1111111   0.2867132), wk =   0.0023516
        k(   29) = (   0.0000000   0.1111111   0.3440558), wk =   0.0023516
        k(   30) = (   0.0000000   0.1111111   0.4013984), wk =   0.0023516
        k(   31) = (   0.0000000   0.1111111   0.4587411), wk =   0.0023516
        k(   32) = (   0.0000000   0.1111111   0.5160837), wk =   0.0023516
        k(   33) = (   0.0000000   0.1111111   0.5734263), wk =   0.0023516
        k(   34) = (   0.0000000   0.1666667   0.0000000), wk =   0.0011758
        k(   35) = (   0.0000000   0.1666667   0.0573426), wk =   0.0023516
        k(   36) = (   0.0000000   0.1666667   0.1146853), wk =   0.0023516
        k(   37) = (   0.0000000   0.1666667   0.1720279), wk =   0.0023516
        k(   38) = (   0.0000000   0.1666667   0.2293705), wk =   0.0023516
        k(   39) = (   0.0000000   0.1666667   0.2867132), wk =   0.0023516
        k(   40) = (   0.0000000   0.1666667   0.3440558), wk =   0.0023516
        k(   41) = (   0.0000000   0.1666667   0.4013984), wk =   0.0023516
        k(   42) = (   0.0000000   0.1666667   0.4587411), wk =   0.0023516
        k(   43) = (   0.0000000   0.1666667   0.5160837), wk =   0.0023516
        k(   44) = (   0.0000000   0.1666667   0.5734263), wk =   0.0023516
        k(   45) = (   0.0000000   0.2222222   0.0000000), wk =   0.0011758
        k(   46) = (   0.0000000   0.2222222   0.0573426), wk =   0.0023516
        k(   47) = (   0.0000000   0.2222222   0.1146853), wk =   0.0023516
        k(   48) = (   0.0000000   0.2222222   0.1720279), wk =   0.0023516
        k(   49) = (   0.0000000   0.2222222   0.2293705), wk =   0.0023516
        k(   50) = (   0.0000000   0.2222222   0.2867132), wk =   0.0023516
        k(   51) = (   0.0000000   0.2222222   0.3440558), wk =   0.0023516
        k(   52) = (   0.0000000   0.2222222   0.4013984), wk =   0.0023516
        k(   53) = (   0.0000000   0.2222222   0.4587411), wk =   0.0023516
        k(   54) = (   0.0000000   0.2222222   0.5160837), wk =   0.0023516
        k(   55) = (   0.0000000   0.2222222   0.5734263), wk =   0.0023516
        k(   56) = (   0.0000000   0.2777778   0.0000000), wk =   0.0011758
        k(   57) = (   0.0000000   0.2777778   0.0573426), wk =   0.0023516
        k(   58) = (   0.0000000   0.2777778   0.1146853), wk =   0.0023516
        k(   59) = (   0.0000000   0.2777778   0.1720279), wk =   0.0023516
        k(   60) = (   0.0000000   0.2777778   0.2293705), wk =   0.0023516
        k(   61) = (   0.0000000   0.2777778   0.2867132), wk =   0.0023516
        k(   62) = (   0.0000000   0.2777778   0.3440558), wk =   0.0023516
        k(   63) = (   0.0000000   0.2777778   0.4013984), wk =   0.0023516
        k(   64) = (   0.0000000   0.2777778   0.4587411), wk =   0.0023516
        k(   65) = (   0.0000000   0.2777778   0.5160837), wk =   0.0023516
        k(   66) = (   0.0000000   0.2777778   0.5734263), wk =   0.0023516
        k(   67) = (   0.0000000   0.3333333   0.0000000), wk =   0.0011758
        k(   68) = (   0.0000000   0.3333333   0.0573426), wk =   0.0023516
        k(   69) = (   0.0000000   0.3333333   0.1146853), wk =   0.0023516
        k(   70) = (   0.0000000   0.3333333   0.1720279), wk =   0.0023516
        k(   71) = (   0.0000000   0.3333333   0.2293705), wk =   0.0023516
        k(   72) = (   0.0000000   0.3333333   0.2867132), wk =   0.0023516
        k(   73) = (   0.0000000   0.3333333   0.3440558), wk =   0.0023516
        k(   74) = (   0.0000000   0.3333333   0.4013984), wk =   0.0023516
        k(   75) = (   0.0000000   0.3333333   0.4587411), wk =   0.0023516
        k(   76) = (   0.0000000   0.3333333   0.5160837), wk =   0.0023516
        k(   77) = (   0.0000000   0.3333333   0.5734263), wk =   0.0023516
        k(   78) = (   0.0000000   0.3888889   0.0000000), wk =   0.0011758
        k(   79) = (   0.0000000   0.3888889   0.0573426), wk =   0.0023516
        k(   80) = (   0.0000000   0.3888889   0.1146853), wk =   0.0023516
        k(   81) = (   0.0000000   0.3888889   0.1720279), wk =   0.0023516
        k(   82) = (   0.0000000   0.3888889   0.2293705), wk =   0.0023516
        k(   83) = (   0.0000000   0.3888889   0.2867132), wk =   0.0023516
        k(   84) = (   0.0000000   0.3888889   0.3440558), wk =   0.0023516
        k(   85) = (   0.0000000   0.3888889   0.4013984), wk =   0.0023516
        k(   86) = (   0.0000000   0.3888889   0.4587411), wk =   0.0023516
        k(   87) = (   0.0000000   0.3888889   0.5160837), wk =   0.0023516
        k(   88) = (   0.0000000   0.3888889   0.5734263), wk =   0.0023516
        k(   89) = (   0.0000000   0.4444444   0.0000000), wk =   0.0011758
        k(   90) = (   0.0000000   0.4444444   0.0573426), wk =   0.0023516
        k(   91) = (   0.0000000   0.4444444   0.1146853), wk =   0.0023516
        k(   92) = (   0.0000000   0.4444444   0.1720279), wk =   0.0023516
        k(   93) = (   0.0000000   0.4444444   0.2293705), wk =   0.0023516
        k(   94) = (   0.0000000   0.4444444   0.2867132), wk =   0.0023516
        k(   95) = (   0.0000000   0.4444444   0.3440558), wk =   0.0023516
        k(   96) = (   0.0000000   0.4444444   0.4013984), wk =   0.0023516
        k(   97) = (   0.0000000   0.4444444   0.4587411), wk =   0.0023516
        k(   98) = (   0.0000000   0.4444444   0.5160837), wk =   0.0023516
        k(   99) = (   0.0000000   0.4444444   0.5734263), wk =   0.0023516
        k(  100) = (   0.0000000  -0.5000000   0.0000000), wk =   0.0005879
        k(  101) = (   0.0000000  -0.5000000   0.0573426), wk =   0.0011758
        k(  102) = (   0.0000000  -0.5000000   0.1146853), wk =   0.0011758
        k(  103) = (   0.0000000  -0.5000000   0.1720279), wk =   0.0011758
        k(  104) = (   0.0000000  -0.5000000   0.2293705), wk =   0.0011758
        k(  105) = (   0.0000000  -0.5000000   0.2867132), wk =   0.0011758
        k(  106) = (   0.0000000  -0.5000000   0.3440558), wk =   0.0011758
        k(  107) = (   0.0000000  -0.5000000   0.4013984), wk =   0.0011758
        k(  108) = (   0.0000000  -0.5000000   0.4587411), wk =   0.0011758
        k(  109) = (   0.0000000  -0.5000000   0.5160837), wk =   0.0011758
        k(  110) = (   0.0000000  -0.5000000   0.5734263), wk =   0.0011758
        k(  111) = (   0.0555556   0.0555556   0.0000000), wk =   0.0011758
        k(  112) = (   0.0555556   0.0555556   0.0573426), wk =   0.0023516
        k(  113) = (   0.0555556   0.0555556   0.1146853), wk =   0.0023516
        k(  114) = (   0.0555556   0.0555556   0.1720279), wk =   0.0023516
        k(  115) = (   0.0555556   0.0555556   0.2293705), wk =   0.0023516
        k(  116) = (   0.0555556   0.0555556   0.2867132), wk =   0.0023516
        k(  117) = (   0.0555556   0.0555556   0.3440558), wk =   0.0023516
        k(  118) = (   0.0555556   0.0555556   0.4013984), wk =   0.0023516
        k(  119) = (   0.0555556   0.0555556   0.4587411), wk =   0.0023516
        k(  120) = (   0.0555556   0.0555556   0.5160837), wk =   0.0023516
        k(  121) = (   0.0555556   0.0555556   0.5734263), wk =   0.0023516
        k(  122) = (   0.0555556   0.1111111   0.0000000), wk =   0.0023516
        k(  123) = (   0.0555556   0.1111111   0.0573426), wk =   0.0047031
        k(  124) = (   0.0555556   0.1111111   0.1146853), wk =   0.0047031
        k(  125) = (   0.0555556   0.1111111   0.1720279), wk =   0.0047031
        k(  126) = (   0.0555556   0.1111111   0.2293705), wk =   0.0047031
        k(  127) = (   0.0555556   0.1111111   0.2867132), wk =   0.0047031
        k(  128) = (   0.0555556   0.1111111   0.3440558), wk =   0.0047031
        k(  129) = (   0.0555556   0.1111111   0.4013984), wk =   0.0047031
        k(  130) = (   0.0555556   0.1111111   0.4587411), wk =   0.0047031
        k(  131) = (   0.0555556   0.1111111   0.5160837), wk =   0.0047031
        k(  132) = (   0.0555556   0.1111111   0.5734263), wk =   0.0047031
        k(  133) = (   0.0555556   0.1666667   0.0000000), wk =   0.0023516
        k(  134) = (   0.0555556   0.1666667   0.0573426), wk =   0.0047031
        k(  135) = (   0.0555556   0.1666667   0.1146853), wk =   0.0047031
        k(  136) = (   0.0555556   0.1666667   0.1720279), wk =   0.0047031
        k(  137) = (   0.0555556   0.1666667   0.2293705), wk =   0.0047031
        k(  138) = (   0.0555556   0.1666667   0.2867132), wk =   0.0047031
        k(  139) = (   0.0555556   0.1666667   0.3440558), wk =   0.0047031
        k(  140) = (   0.0555556   0.1666667   0.4013984), wk =   0.0047031
        k(  141) = (   0.0555556   0.1666667   0.4587411), wk =   0.0047031
        k(  142) = (   0.0555556   0.1666667   0.5160837), wk =   0.0047031
        k(  143) = (   0.0555556   0.1666667   0.5734263), wk =   0.0047031
        k(  144) = (   0.0555556   0.2222222   0.0000000), wk =   0.0023516
        k(  145) = (   0.0555556   0.2222222   0.0573426), wk =   0.0047031
        k(  146) = (   0.0555556   0.2222222   0.1146853), wk =   0.0047031
        k(  147) = (   0.0555556   0.2222222   0.1720279), wk =   0.0047031
        k(  148) = (   0.0555556   0.2222222   0.2293705), wk =   0.0047031
        k(  149) = (   0.0555556   0.2222222   0.2867132), wk =   0.0047031
        k(  150) = (   0.0555556   0.2222222   0.3440558), wk =   0.0047031
        k(  151) = (   0.0555556   0.2222222   0.4013984), wk =   0.0047031
        k(  152) = (   0.0555556   0.2222222   0.4587411), wk =   0.0047031
        k(  153) = (   0.0555556   0.2222222   0.5160837), wk =   0.0047031
        k(  154) = (   0.0555556   0.2222222   0.5734263), wk =   0.0047031
        k(  155) = (   0.0555556   0.2777778   0.0000000), wk =   0.0023516
        k(  156) = (   0.0555556   0.2777778   0.0573426), wk =   0.0047031
        k(  157) = (   0.0555556   0.2777778   0.1146853), wk =   0.0047031
        k(  158) = (   0.0555556   0.2777778   0.1720279), wk =   0.0047031
        k(  159) = (   0.0555556   0.2777778   0.2293705), wk =   0.0047031
        k(  160) = (   0.0555556   0.2777778   0.2867132), wk =   0.0047031
        k(  161) = (   0.0555556   0.2777778   0.3440558), wk =   0.0047031
        k(  162) = (   0.0555556   0.2777778   0.4013984), wk =   0.0047031
        k(  163) = (   0.0555556   0.2777778   0.4587411), wk =   0.0047031
        k(  164) = (   0.0555556   0.2777778   0.5160837), wk =   0.0047031
        k(  165) = (   0.0555556   0.2777778   0.5734263), wk =   0.0047031
        k(  166) = (   0.0555556   0.3333333   0.0000000), wk =   0.0023516
        k(  167) = (   0.0555556   0.3333333   0.0573426), wk =   0.0047031
        k(  168) = (   0.0555556   0.3333333   0.1146853), wk =   0.0047031
        k(  169) = (   0.0555556   0.3333333   0.1720279), wk =   0.0047031
        k(  170) = (   0.0555556   0.3333333   0.2293705), wk =   0.0047031
        k(  171) = (   0.0555556   0.3333333   0.2867132), wk =   0.0047031
        k(  172) = (   0.0555556   0.3333333   0.3440558), wk =   0.0047031
        k(  173) = (   0.0555556   0.3333333   0.4013984), wk =   0.0047031
        k(  174) = (   0.0555556   0.3333333   0.4587411), wk =   0.0047031
        k(  175) = (   0.0555556   0.3333333   0.5160837), wk =   0.0047031
        k(  176) = (   0.0555556   0.3333333   0.5734263), wk =   0.0047031
        k(  177) = (   0.0555556   0.3888889   0.0000000), wk =   0.0023516
        k(  178) = (   0.0555556   0.3888889   0.0573426), wk =   0.0047031
        k(  179) = (   0.0555556   0.3888889   0.1146853), wk =   0.0047031
        k(  180) = (   0.0555556   0.3888889   0.1720279), wk =   0.0047031
        k(  181) = (   0.0555556   0.3888889   0.2293705), wk =   0.0047031
        k(  182) = (   0.0555556   0.3888889   0.2867132), wk =   0.0047031
        k(  183) = (   0.0555556   0.3888889   0.3440558), wk =   0.0047031
        k(  184) = (   0.0555556   0.3888889   0.4013984), wk =   0.0047031
        k(  185) = (   0.0555556   0.3888889   0.4587411), wk =   0.0047031
        k(  186) = (   0.0555556   0.3888889   0.5160837), wk =   0.0047031
        k(  187) = (   0.0555556   0.3888889   0.5734263), wk =   0.0047031
        k(  188) = (   0.0555556   0.4444444   0.0000000), wk =   0.0023516
        k(  189) = (   0.0555556   0.4444444   0.0573426), wk =   0.0047031
        k(  190) = (   0.0555556   0.4444444   0.1146853), wk =   0.0047031
        k(  191) = (   0.0555556   0.4444444   0.1720279), wk =   0.0047031
        k(  192) = (   0.0555556   0.4444444   0.2293705), wk =   0.0047031
        k(  193) = (   0.0555556   0.4444444   0.2867132), wk =   0.0047031
        k(  194) = (   0.0555556   0.4444444   0.3440558), wk =   0.0047031
        k(  195) = (   0.0555556   0.4444444   0.4013984), wk =   0.0047031
        k(  196) = (   0.0555556   0.4444444   0.4587411), wk =   0.0047031
        k(  197) = (   0.0555556   0.4444444   0.5160837), wk =   0.0047031
        k(  198) = (   0.0555556   0.4444444   0.5734263), wk =   0.0047031
        k(  199) = (   0.0555556  -0.5000000   0.0000000), wk =   0.0011758
        k(  200) = (   0.0555556  -0.5000000   0.0573426), wk =   0.0023516
        k(  201) = (   0.0555556  -0.5000000   0.1146853), wk =   0.0023516
        k(  202) = (   0.0555556  -0.5000000   0.1720279), wk =   0.0023516
        k(  203) = (   0.0555556  -0.5000000   0.2293705), wk =   0.0023516
        k(  204) = (   0.0555556  -0.5000000   0.2867132), wk =   0.0023516
        k(  205) = (   0.0555556  -0.5000000   0.3440558), wk =   0.0023516
        k(  206) = (   0.0555556  -0.5000000   0.4013984), wk =   0.0023516
        k(  207) = (   0.0555556  -0.5000000   0.4587411), wk =   0.0023516
        k(  208) = (   0.0555556  -0.5000000   0.5160837), wk =   0.0023516
        k(  209) = (   0.0555556  -0.5000000   0.5734263), wk =   0.0023516
        k(  210) = (   0.1111111   0.1111111   0.0000000), wk =   0.0011758
        k(  211) = (   0.1111111   0.1111111   0.0573426), wk =   0.0023516
        k(  212) = (   0.1111111   0.1111111   0.1146853), wk =   0.0023516
        k(  213) = (   0.1111111   0.1111111   0.1720279), wk =   0.0023516
        k(  214) = (   0.1111111   0.1111111   0.2293705), wk =   0.0023516
        k(  215) = (   0.1111111   0.1111111   0.2867132), wk =   0.0023516
        k(  216) = (   0.1111111   0.1111111   0.3440558), wk =   0.0023516
        k(  217) = (   0.1111111   0.1111111   0.4013984), wk =   0.0023516
        k(  218) = (   0.1111111   0.1111111   0.4587411), wk =   0.0023516
        k(  219) = (   0.1111111   0.1111111   0.5160837), wk =   0.0023516
        k(  220) = (   0.1111111   0.1111111   0.5734263), wk =   0.0023516
        k(  221) = (   0.1111111   0.1666667   0.0000000), wk =   0.0023516
        k(  222) = (   0.1111111   0.1666667   0.0573426), wk =   0.0047031
        k(  223) = (   0.1111111   0.1666667   0.1146853), wk =   0.0047031
        k(  224) = (   0.1111111   0.1666667   0.1720279), wk =   0.0047031
        k(  225) = (   0.1111111   0.1666667   0.2293705), wk =   0.0047031
        k(  226) = (   0.1111111   0.1666667   0.2867132), wk =   0.0047031
        k(  227) = (   0.1111111   0.1666667   0.3440558), wk =   0.0047031
        k(  228) = (   0.1111111   0.1666667   0.4013984), wk =   0.0047031
        k(  229) = (   0.1111111   0.1666667   0.4587411), wk =   0.0047031
        k(  230) = (   0.1111111   0.1666667   0.5160837), wk =   0.0047031
        k(  231) = (   0.1111111   0.1666667   0.5734263), wk =   0.0047031
        k(  232) = (   0.1111111   0.2222222   0.0000000), wk =   0.0023516
        k(  233) = (   0.1111111   0.2222222   0.0573426), wk =   0.0047031
        k(  234) = (   0.1111111   0.2222222   0.1146853), wk =   0.0047031
        k(  235) = (   0.1111111   0.2222222   0.1720279), wk =   0.0047031
        k(  236) = (   0.1111111   0.2222222   0.2293705), wk =   0.0047031
        k(  237) = (   0.1111111   0.2222222   0.2867132), wk =   0.0047031
        k(  238) = (   0.1111111   0.2222222   0.3440558), wk =   0.0047031
        k(  239) = (   0.1111111   0.2222222   0.4013984), wk =   0.0047031
        k(  240) = (   0.1111111   0.2222222   0.4587411), wk =   0.0047031
        k(  241) = (   0.1111111   0.2222222   0.5160837), wk =   0.0047031
        k(  242) = (   0.1111111   0.2222222   0.5734263), wk =   0.0047031
        k(  243) = (   0.1111111   0.2777778   0.0000000), wk =   0.0023516
        k(  244) = (   0.1111111   0.2777778   0.0573426), wk =   0.0047031
        k(  245) = (   0.1111111   0.2777778   0.1146853), wk =   0.0047031
        k(  246) = (   0.1111111   0.2777778   0.1720279), wk =   0.0047031
        k(  247) = (   0.1111111   0.2777778   0.2293705), wk =   0.0047031
        k(  248) = (   0.1111111   0.2777778   0.2867132), wk =   0.0047031
        k(  249) = (   0.1111111   0.2777778   0.3440558), wk =   0.0047031
        k(  250) = (   0.1111111   0.2777778   0.4013984), wk =   0.0047031
        k(  251) = (   0.1111111   0.2777778   0.4587411), wk =   0.0047031
        k(  252) = (   0.1111111   0.2777778   0.5160837), wk =   0.0047031
        k(  253) = (   0.1111111   0.2777778   0.5734263), wk =   0.0047031
        k(  254) = (   0.1111111   0.3333333   0.0000000), wk =   0.0023516
        k(  255) = (   0.1111111   0.3333333   0.0573426), wk =   0.0047031
        k(  256) = (   0.1111111   0.3333333   0.1146853), wk =   0.0047031
        k(  257) = (   0.1111111   0.3333333   0.1720279), wk =   0.0047031
        k(  258) = (   0.1111111   0.3333333   0.2293705), wk =   0.0047031
        k(  259) = (   0.1111111   0.3333333   0.2867132), wk =   0.0047031
        k(  260) = (   0.1111111   0.3333333   0.3440558), wk =   0.0047031
        k(  261) = (   0.1111111   0.3333333   0.4013984), wk =   0.0047031
        k(  262) = (   0.1111111   0.3333333   0.4587411), wk =   0.0047031
        k(  263) = (   0.1111111   0.3333333   0.5160837), wk =   0.0047031
        k(  264) = (   0.1111111   0.3333333   0.5734263), wk =   0.0047031
        k(  265) = (   0.1111111   0.3888889   0.0000000), wk =   0.0023516
        k(  266) = (   0.1111111   0.3888889   0.0573426), wk =   0.0047031
        k(  267) = (   0.1111111   0.3888889   0.1146853), wk =   0.0047031
        k(  268) = (   0.1111111   0.3888889   0.1720279), wk =   0.0047031
        k(  269) = (   0.1111111   0.3888889   0.2293705), wk =   0.0047031
        k(  270) = (   0.1111111   0.3888889   0.2867132), wk =   0.0047031
        k(  271) = (   0.1111111   0.3888889   0.3440558), wk =   0.0047031
        k(  272) = (   0.1111111   0.3888889   0.4013984), wk =   0.0047031
        k(  273) = (   0.1111111   0.3888889   0.4587411), wk =   0.0047031
        k(  274) = (   0.1111111   0.3888889   0.5160837), wk =   0.0047031
        k(  275) = (   0.1111111   0.3888889   0.5734263), wk =   0.0047031
        k(  276) = (   0.1111111   0.4444444   0.0000000), wk =   0.0023516
        k(  277) = (   0.1111111   0.4444444   0.0573426), wk =   0.0047031
        k(  278) = (   0.1111111   0.4444444   0.1146853), wk =   0.0047031
        k(  279) = (   0.1111111   0.4444444   0.1720279), wk =   0.0047031
        k(  280) = (   0.1111111   0.4444444   0.2293705), wk =   0.0047031
        k(  281) = (   0.1111111   0.4444444   0.2867132), wk =   0.0047031
        k(  282) = (   0.1111111   0.4444444   0.3440558), wk =   0.0047031
        k(  283) = (   0.1111111   0.4444444   0.4013984), wk =   0.0047031
        k(  284) = (   0.1111111   0.4444444   0.4587411), wk =   0.0047031
        k(  285) = (   0.1111111   0.4444444   0.5160837), wk =   0.0047031
        k(  286) = (   0.1111111   0.4444444   0.5734263), wk =   0.0047031
        k(  287) = (   0.1111111  -0.5000000   0.0000000), wk =   0.0011758
        k(  288) = (   0.1111111  -0.5000000   0.0573426), wk =   0.0023516
        k(  289) = (   0.1111111  -0.5000000   0.1146853), wk =   0.0023516
        k(  290) = (   0.1111111  -0.5000000   0.1720279), wk =   0.0023516
        k(  291) = (   0.1111111  -0.5000000   0.2293705), wk =   0.0023516
        k(  292) = (   0.1111111  -0.5000000   0.2867132), wk =   0.0023516
        k(  293) = (   0.1111111  -0.5000000   0.3440558), wk =   0.0023516
        k(  294) = (   0.1111111  -0.5000000   0.4013984), wk =   0.0023516
        k(  295) = (   0.1111111  -0.5000000   0.4587411), wk =   0.0023516
        k(  296) = (   0.1111111  -0.5000000   0.5160837), wk =   0.0023516
        k(  297) = (   0.1111111  -0.5000000   0.5734263), wk =   0.0023516
        k(  298) = (   0.1666667   0.1666667   0.0000000), wk =   0.0011758
        k(  299) = (   0.1666667   0.1666667   0.0573426), wk =   0.0023516
        k(  300) = (   0.1666667   0.1666667   0.1146853), wk =   0.0023516
        k(  301) = (   0.1666667   0.1666667   0.1720279), wk =   0.0023516
        k(  302) = (   0.1666667   0.1666667   0.2293705), wk =   0.0023516
        k(  303) = (   0.1666667   0.1666667   0.2867132), wk =   0.0023516
        k(  304) = (   0.1666667   0.1666667   0.3440558), wk =   0.0023516
        k(  305) = (   0.1666667   0.1666667   0.4013984), wk =   0.0023516
        k(  306) = (   0.1666667   0.1666667   0.4587411), wk =   0.0023516
        k(  307) = (   0.1666667   0.1666667   0.5160837), wk =   0.0023516
        k(  308) = (   0.1666667   0.1666667   0.5734263), wk =   0.0023516
        k(  309) = (   0.1666667   0.2222222   0.0000000), wk =   0.0023516
        k(  310) = (   0.1666667   0.2222222   0.0573426), wk =   0.0047031
        k(  311) = (   0.1666667   0.2222222   0.1146853), wk =   0.0047031
        k(  312) = (   0.1666667   0.2222222   0.1720279), wk =   0.0047031
        k(  313) = (   0.1666667   0.2222222   0.2293705), wk =   0.0047031
        k(  314) = (   0.1666667   0.2222222   0.2867132), wk =   0.0047031
        k(  315) = (   0.1666667   0.2222222   0.3440558), wk =   0.0047031
        k(  316) = (   0.1666667   0.2222222   0.4013984), wk =   0.0047031
        k(  317) = (   0.1666667   0.2222222   0.4587411), wk =   0.0047031
        k(  318) = (   0.1666667   0.2222222   0.5160837), wk =   0.0047031
        k(  319) = (   0.1666667   0.2222222   0.5734263), wk =   0.0047031
        k(  320) = (   0.1666667   0.2777778   0.0000000), wk =   0.0023516
        k(  321) = (   0.1666667   0.2777778   0.0573426), wk =   0.0047031
        k(  322) = (   0.1666667   0.2777778   0.1146853), wk =   0.0047031
        k(  323) = (   0.1666667   0.2777778   0.1720279), wk =   0.0047031
        k(  324) = (   0.1666667   0.2777778   0.2293705), wk =   0.0047031
        k(  325) = (   0.1666667   0.2777778   0.2867132), wk =   0.0047031
        k(  326) = (   0.1666667   0.2777778   0.3440558), wk =   0.0047031
        k(  327) = (   0.1666667   0.2777778   0.4013984), wk =   0.0047031
        k(  328) = (   0.1666667   0.2777778   0.4587411), wk =   0.0047031
        k(  329) = (   0.1666667   0.2777778   0.5160837), wk =   0.0047031
        k(  330) = (   0.1666667   0.2777778   0.5734263), wk =   0.0047031
        k(  331) = (   0.1666667   0.3333333   0.0000000), wk =   0.0023516
        k(  332) = (   0.1666667   0.3333333   0.0573426), wk =   0.0047031
        k(  333) = (   0.1666667   0.3333333   0.1146853), wk =   0.0047031
        k(  334) = (   0.1666667   0.3333333   0.1720279), wk =   0.0047031
        k(  335) = (   0.1666667   0.3333333   0.2293705), wk =   0.0047031
        k(  336) = (   0.1666667   0.3333333   0.2867132), wk =   0.0047031
        k(  337) = (   0.1666667   0.3333333   0.3440558), wk =   0.0047031
        k(  338) = (   0.1666667   0.3333333   0.4013984), wk =   0.0047031
        k(  339) = (   0.1666667   0.3333333   0.4587411), wk =   0.0047031
        k(  340) = (   0.1666667   0.3333333   0.5160837), wk =   0.0047031
        k(  341) = (   0.1666667   0.3333333   0.5734263), wk =   0.0047031
        k(  342) = (   0.1666667   0.3888889   0.0000000), wk =   0.0023516
        k(  343) = (   0.1666667   0.3888889   0.0573426), wk =   0.0047031
        k(  344) = (   0.1666667   0.3888889   0.1146853), wk =   0.0047031
        k(  345) = (   0.1666667   0.3888889   0.1720279), wk =   0.0047031
        k(  346) = (   0.1666667   0.3888889   0.2293705), wk =   0.0047031
        k(  347) = (   0.1666667   0.3888889   0.2867132), wk =   0.0047031
        k(  348) = (   0.1666667   0.3888889   0.3440558), wk =   0.0047031
        k(  349) = (   0.1666667   0.3888889   0.4013984), wk =   0.0047031
        k(  350) = (   0.1666667   0.3888889   0.4587411), wk =   0.0047031
        k(  351) = (   0.1666667   0.3888889   0.5160837), wk =   0.0047031
        k(  352) = (   0.1666667   0.3888889   0.5734263), wk =   0.0047031
        k(  353) = (   0.1666667   0.4444444   0.0000000), wk =   0.0023516
        k(  354) = (   0.1666667   0.4444444   0.0573426), wk =   0.0047031
        k(  355) = (   0.1666667   0.4444444   0.1146853), wk =   0.0047031
        k(  356) = (   0.1666667   0.4444444   0.1720279), wk =   0.0047031
        k(  357) = (   0.1666667   0.4444444   0.2293705), wk =   0.0047031
        k(  358) = (   0.1666667   0.4444444   0.2867132), wk =   0.0047031
        k(  359) = (   0.1666667   0.4444444   0.3440558), wk =   0.0047031
        k(  360) = (   0.1666667   0.4444444   0.4013984), wk =   0.0047031
        k(  361) = (   0.1666667   0.4444444   0.4587411), wk =   0.0047031
        k(  362) = (   0.1666667   0.4444444   0.5160837), wk =   0.0047031
        k(  363) = (   0.1666667   0.4444444   0.5734263), wk =   0.0047031
        k(  364) = (   0.1666667  -0.5000000   0.0000000), wk =   0.0011758
        k(  365) = (   0.1666667  -0.5000000   0.0573426), wk =   0.0023516
        k(  366) = (   0.1666667  -0.5000000   0.1146853), wk =   0.0023516
        k(  367) = (   0.1666667  -0.5000000   0.1720279), wk =   0.0023516
        k(  368) = (   0.1666667  -0.5000000   0.2293705), wk =   0.0023516
        k(  369) = (   0.1666667  -0.5000000   0.2867132), wk =   0.0023516
        k(  370) = (   0.1666667  -0.5000000   0.3440558), wk =   0.0023516
        k(  371) = (   0.1666667  -0.5000000   0.4013984), wk =   0.0023516
        k(  372) = (   0.1666667  -0.5000000   0.4587411), wk =   0.0023516
        k(  373) = (   0.1666667  -0.5000000   0.5160837), wk =   0.0023516
        k(  374) = (   0.1666667  -0.5000000   0.5734263), wk =   0.0023516
        k(  375) = (   0.2222222   0.2222222   0.0000000), wk =   0.0011758
        k(  376) = (   0.2222222   0.2222222   0.0573426), wk =   0.0023516
        k(  377) = (   0.2222222   0.2222222   0.1146853), wk =   0.0023516
        k(  378) = (   0.2222222   0.2222222   0.1720279), wk =   0.0023516
        k(  379) = (   0.2222222   0.2222222   0.2293705), wk =   0.0023516
        k(  380) = (   0.2222222   0.2222222   0.2867132), wk =   0.0023516
        k(  381) = (   0.2222222   0.2222222   0.3440558), wk =   0.0023516
        k(  382) = (   0.2222222   0.2222222   0.4013984), wk =   0.0023516
        k(  383) = (   0.2222222   0.2222222   0.4587411), wk =   0.0023516
        k(  384) = (   0.2222222   0.2222222   0.5160837), wk =   0.0023516
        k(  385) = (   0.2222222   0.2222222   0.5734263), wk =   0.0023516
        k(  386) = (   0.2222222   0.2777778   0.0000000), wk =   0.0023516
        k(  387) = (   0.2222222   0.2777778   0.0573426), wk =   0.0047031
        k(  388) = (   0.2222222   0.2777778   0.1146853), wk =   0.0047031
        k(  389) = (   0.2222222   0.2777778   0.1720279), wk =   0.0047031
        k(  390) = (   0.2222222   0.2777778   0.2293705), wk =   0.0047031
        k(  391) = (   0.2222222   0.2777778   0.2867132), wk =   0.0047031
        k(  392) = (   0.2222222   0.2777778   0.3440558), wk =   0.0047031
        k(  393) = (   0.2222222   0.2777778   0.4013984), wk =   0.0047031
        k(  394) = (   0.2222222   0.2777778   0.4587411), wk =   0.0047031
        k(  395) = (   0.2222222   0.2777778   0.5160837), wk =   0.0047031
        k(  396) = (   0.2222222   0.2777778   0.5734263), wk =   0.0047031
        k(  397) = (   0.2222222   0.3333333   0.0000000), wk =   0.0023516
        k(  398) = (   0.2222222   0.3333333   0.0573426), wk =   0.0047031
        k(  399) = (   0.2222222   0.3333333   0.1146853), wk =   0.0047031
        k(  400) = (   0.2222222   0.3333333   0.1720279), wk =   0.0047031
        k(  401) = (   0.2222222   0.3333333   0.2293705), wk =   0.0047031
        k(  402) = (   0.2222222   0.3333333   0.2867132), wk =   0.0047031
        k(  403) = (   0.2222222   0.3333333   0.3440558), wk =   0.0047031
        k(  404) = (   0.2222222   0.3333333   0.4013984), wk =   0.0047031
        k(  405) = (   0.2222222   0.3333333   0.4587411), wk =   0.0047031
        k(  406) = (   0.2222222   0.3333333   0.5160837), wk =   0.0047031
        k(  407) = (   0.2222222   0.3333333   0.5734263), wk =   0.0047031
        k(  408) = (   0.2222222   0.3888889   0.0000000), wk =   0.0023516
        k(  409) = (   0.2222222   0.3888889   0.0573426), wk =   0.0047031
        k(  410) = (   0.2222222   0.3888889   0.1146853), wk =   0.0047031
        k(  411) = (   0.2222222   0.3888889   0.1720279), wk =   0.0047031
        k(  412) = (   0.2222222   0.3888889   0.2293705), wk =   0.0047031
        k(  413) = (   0.2222222   0.3888889   0.2867132), wk =   0.0047031
        k(  414) = (   0.2222222   0.3888889   0.3440558), wk =   0.0047031
        k(  415) = (   0.2222222   0.3888889   0.4013984), wk =   0.0047031
        k(  416) = (   0.2222222   0.3888889   0.4587411), wk =   0.0047031
        k(  417) = (   0.2222222   0.3888889   0.5160837), wk =   0.0047031
        k(  418) = (   0.2222222   0.3888889   0.5734263), wk =   0.0047031
        k(  419) = (   0.2222222   0.4444444   0.0000000), wk =   0.0023516
        k(  420) = (   0.2222222   0.4444444   0.0573426), wk =   0.0047031
        k(  421) = (   0.2222222   0.4444444   0.1146853), wk =   0.0047031
        k(  422) = (   0.2222222   0.4444444   0.1720279), wk =   0.0047031
        k(  423) = (   0.2222222   0.4444444   0.2293705), wk =   0.0047031
        k(  424) = (   0.2222222   0.4444444   0.2867132), wk =   0.0047031
        k(  425) = (   0.2222222   0.4444444   0.3440558), wk =   0.0047031
        k(  426) = (   0.2222222   0.4444444   0.4013984), wk =   0.0047031
        k(  427) = (   0.2222222   0.4444444   0.4587411), wk =   0.0047031
        k(  428) = (   0.2222222   0.4444444   0.5160837), wk =   0.0047031
        k(  429) = (   0.2222222   0.4444444   0.5734263), wk =   0.0047031
        k(  430) = (   0.2222222  -0.5000000   0.0000000), wk =   0.0011758
        k(  431) = (   0.2222222  -0.5000000   0.0573426), wk =   0.0023516
        k(  432) = (   0.2222222  -0.5000000   0.1146853), wk =   0.0023516
        k(  433) = (   0.2222222  -0.5000000   0.1720279), wk =   0.0023516
        k(  434) = (   0.2222222  -0.5000000   0.2293705), wk =   0.0023516
        k(  435) = (   0.2222222  -0.5000000   0.2867132), wk =   0.0023516
        k(  436) = (   0.2222222  -0.5000000   0.3440558), wk =   0.0023516
        k(  437) = (   0.2222222  -0.5000000   0.4013984), wk =   0.0023516
        k(  438) = (   0.2222222  -0.5000000   0.4587411), wk =   0.0023516
        k(  439) = (   0.2222222  -0.5000000   0.5160837), wk =   0.0023516
        k(  440) = (   0.2222222  -0.5000000   0.5734263), wk =   0.0023516
        k(  441) = (   0.2777778   0.2777778   0.0000000), wk =   0.0011758
        k(  442) = (   0.2777778   0.2777778   0.0573426), wk =   0.0023516
        k(  443) = (   0.2777778   0.2777778   0.1146853), wk =   0.0023516
        k(  444) = (   0.2777778   0.2777778   0.1720279), wk =   0.0023516
        k(  445) = (   0.2777778   0.2777778   0.2293705), wk =   0.0023516
        k(  446) = (   0.2777778   0.2777778   0.2867132), wk =   0.0023516
        k(  447) = (   0.2777778   0.2777778   0.3440558), wk =   0.0023516
        k(  448) = (   0.2777778   0.2777778   0.4013984), wk =   0.0023516
        k(  449) = (   0.2777778   0.2777778   0.4587411), wk =   0.0023516
        k(  450) = (   0.2777778   0.2777778   0.5160837), wk =   0.0023516
        k(  451) = (   0.2777778   0.2777778   0.5734263), wk =   0.0023516
        k(  452) = (   0.2777778   0.3333333   0.0000000), wk =   0.0023516
        k(  453) = (   0.2777778   0.3333333   0.0573426), wk =   0.0047031
        k(  454) = (   0.2777778   0.3333333   0.1146853), wk =   0.0047031
        k(  455) = (   0.2777778   0.3333333   0.1720279), wk =   0.0047031
        k(  456) = (   0.2777778   0.3333333   0.2293705), wk =   0.0047031
        k(  457) = (   0.2777778   0.3333333   0.2867132), wk =   0.0047031
        k(  458) = (   0.2777778   0.3333333   0.3440558), wk =   0.0047031
        k(  459) = (   0.2777778   0.3333333   0.4013984), wk =   0.0047031
        k(  460) = (   0.2777778   0.3333333   0.4587411), wk =   0.0047031
        k(  461) = (   0.2777778   0.3333333   0.5160837), wk =   0.0047031
        k(  462) = (   0.2777778   0.3333333   0.5734263), wk =   0.0047031
        k(  463) = (   0.2777778   0.3888889   0.0000000), wk =   0.0023516
        k(  464) = (   0.2777778   0.3888889   0.0573426), wk =   0.0047031
        k(  465) = (   0.2777778   0.3888889   0.1146853), wk =   0.0047031
        k(  466) = (   0.2777778   0.3888889   0.1720279), wk =   0.0047031
        k(  467) = (   0.2777778   0.3888889   0.2293705), wk =   0.0047031
        k(  468) = (   0.2777778   0.3888889   0.2867132), wk =   0.0047031
        k(  469) = (   0.2777778   0.3888889   0.3440558), wk =   0.0047031
        k(  470) = (   0.2777778   0.3888889   0.4013984), wk =   0.0047031
        k(  471) = (   0.2777778   0.3888889   0.4587411), wk =   0.0047031
        k(  472) = (   0.2777778   0.3888889   0.5160837), wk =   0.0047031
        k(  473) = (   0.2777778   0.3888889   0.5734263), wk =   0.0047031
        k(  474) = (   0.2777778   0.4444444   0.0000000), wk =   0.0023516
        k(  475) = (   0.2777778   0.4444444   0.0573426), wk =   0.0047031
        k(  476) = (   0.2777778   0.4444444   0.1146853), wk =   0.0047031
        k(  477) = (   0.2777778   0.4444444   0.1720279), wk =   0.0047031
        k(  478) = (   0.2777778   0.4444444   0.2293705), wk =   0.0047031
        k(  479) = (   0.2777778   0.4444444   0.2867132), wk =   0.0047031
        k(  480) = (   0.2777778   0.4444444   0.3440558), wk =   0.0047031
        k(  481) = (   0.2777778   0.4444444   0.4013984), wk =   0.0047031
        k(  482) = (   0.2777778   0.4444444   0.4587411), wk =   0.0047031
        k(  483) = (   0.2777778   0.4444444   0.5160837), wk =   0.0047031
        k(  484) = (   0.2777778   0.4444444   0.5734263), wk =   0.0047031
        k(  485) = (   0.2777778  -0.5000000   0.0000000), wk =   0.0011758
        k(  486) = (   0.2777778  -0.5000000   0.0573426), wk =   0.0023516
        k(  487) = (   0.2777778  -0.5000000   0.1146853), wk =   0.0023516
        k(  488) = (   0.2777778  -0.5000000   0.1720279), wk =   0.0023516
        k(  489) = (   0.2777778  -0.5000000   0.2293705), wk =   0.0023516
        k(  490) = (   0.2777778  -0.5000000   0.2867132), wk =   0.0023516
        k(  491) = (   0.2777778  -0.5000000   0.3440558), wk =   0.0023516
        k(  492) = (   0.2777778  -0.5000000   0.4013984), wk =   0.0023516
        k(  493) = (   0.2777778  -0.5000000   0.4587411), wk =   0.0023516
        k(  494) = (   0.2777778  -0.5000000   0.5160837), wk =   0.0023516
        k(  495) = (   0.2777778  -0.5000000   0.5734263), wk =   0.0023516
        k(  496) = (   0.3333333   0.3333333   0.0000000), wk =   0.0011758
        k(  497) = (   0.3333333   0.3333333   0.0573426), wk =   0.0023516
        k(  498) = (   0.3333333   0.3333333   0.1146853), wk =   0.0023516
        k(  499) = (   0.3333333   0.3333333   0.1720279), wk =   0.0023516
        k(  500) = (   0.3333333   0.3333333   0.2293705), wk =   0.0023516
        k(  501) = (   0.3333333   0.3333333   0.2867132), wk =   0.0023516
        k(  502) = (   0.3333333   0.3333333   0.3440558), wk =   0.0023516
        k(  503) = (   0.3333333   0.3333333   0.4013984), wk =   0.0023516
        k(  504) = (   0.3333333   0.3333333   0.4587411), wk =   0.0023516
        k(  505) = (   0.3333333   0.3333333   0.5160837), wk =   0.0023516
        k(  506) = (   0.3333333   0.3333333   0.5734263), wk =   0.0023516
        k(  507) = (   0.3333333   0.3888889   0.0000000), wk =   0.0023516
        k(  508) = (   0.3333333   0.3888889   0.0573426), wk =   0.0047031
        k(  509) = (   0.3333333   0.3888889   0.1146853), wk =   0.0047031
        k(  510) = (   0.3333333   0.3888889   0.1720279), wk =   0.0047031
        k(  511) = (   0.3333333   0.3888889   0.2293705), wk =   0.0047031
        k(  512) = (   0.3333333   0.3888889   0.2867132), wk =   0.0047031
        k(  513) = (   0.3333333   0.3888889   0.3440558), wk =   0.0047031
        k(  514) = (   0.3333333   0.3888889   0.4013984), wk =   0.0047031
        k(  515) = (   0.3333333   0.3888889   0.4587411), wk =   0.0047031
        k(  516) = (   0.3333333   0.3888889   0.5160837), wk =   0.0047031
        k(  517) = (   0.3333333   0.3888889   0.5734263), wk =   0.0047031
        k(  518) = (   0.3333333   0.4444444   0.0000000), wk =   0.0023516
        k(  519) = (   0.3333333   0.4444444   0.0573426), wk =   0.0047031
        k(  520) = (   0.3333333   0.4444444   0.1146853), wk =   0.0047031
        k(  521) = (   0.3333333   0.4444444   0.1720279), wk =   0.0047031
        k(  522) = (   0.3333333   0.4444444   0.2293705), wk =   0.0047031
        k(  523) = (   0.3333333   0.4444444   0.2867132), wk =   0.0047031
        k(  524) = (   0.3333333   0.4444444   0.3440558), wk =   0.0047031
        k(  525) = (   0.3333333   0.4444444   0.4013984), wk =   0.0047031
        k(  526) = (   0.3333333   0.4444444   0.4587411), wk =   0.0047031
        k(  527) = (   0.3333333   0.4444444   0.5160837), wk =   0.0047031
        k(  528) = (   0.3333333   0.4444444   0.5734263), wk =   0.0047031
        k(  529) = (   0.3333333  -0.5000000   0.0000000), wk =   0.0011758
        k(  530) = (   0.3333333  -0.5000000   0.0573426), wk =   0.0023516
        k(  531) = (   0.3333333  -0.5000000   0.1146853), wk =   0.0023516
        k(  532) = (   0.3333333  -0.5000000   0.1720279), wk =   0.0023516
        k(  533) = (   0.3333333  -0.5000000   0.2293705), wk =   0.0023516
        k(  534) = (   0.3333333  -0.5000000   0.2867132), wk =   0.0023516
        k(  535) = (   0.3333333  -0.5000000   0.3440558), wk =   0.0023516
        k(  536) = (   0.3333333  -0.5000000   0.4013984), wk =   0.0023516
        k(  537) = (   0.3333333  -0.5000000   0.4587411), wk =   0.0023516
        k(  538) = (   0.3333333  -0.5000000   0.5160837), wk =   0.0023516
        k(  539) = (   0.3333333  -0.5000000   0.5734263), wk =   0.0023516
        k(  540) = (   0.3888889   0.3888889   0.0000000), wk =   0.0011758
        k(  541) = (   0.3888889   0.3888889   0.0573426), wk =   0.0023516
        k(  542) = (   0.3888889   0.3888889   0.1146853), wk =   0.0023516
        k(  543) = (   0.3888889   0.3888889   0.1720279), wk =   0.0023516
        k(  544) = (   0.3888889   0.3888889   0.2293705), wk =   0.0023516
        k(  545) = (   0.3888889   0.3888889   0.2867132), wk =   0.0023516
        k(  546) = (   0.3888889   0.3888889   0.3440558), wk =   0.0023516
        k(  547) = (   0.3888889   0.3888889   0.4013984), wk =   0.0023516
        k(  548) = (   0.3888889   0.3888889   0.4587411), wk =   0.0023516
        k(  549) = (   0.3888889   0.3888889   0.5160837), wk =   0.0023516
        k(  550) = (   0.3888889   0.3888889   0.5734263), wk =   0.0023516
        k(  551) = (   0.3888889   0.4444444   0.0000000), wk =   0.0023516
        k(  552) = (   0.3888889   0.4444444   0.0573426), wk =   0.0047031
        k(  553) = (   0.3888889   0.4444444   0.1146853), wk =   0.0047031
        k(  554) = (   0.3888889   0.4444444   0.1720279), wk =   0.0047031
        k(  555) = (   0.3888889   0.4444444   0.2293705), wk =   0.0047031
        k(  556) = (   0.3888889   0.4444444   0.2867132), wk =   0.0047031
        k(  557) = (   0.3888889   0.4444444   0.3440558), wk =   0.0047031
        k(  558) = (   0.3888889   0.4444444   0.4013984), wk =   0.0047031
        k(  559) = (   0.3888889   0.4444444   0.4587411), wk =   0.0047031
        k(  560) = (   0.3888889   0.4444444   0.5160837), wk =   0.0047031
        k(  561) = (   0.3888889   0.4444444   0.5734263), wk =   0.0047031
        k(  562) = (   0.3888889  -0.5000000   0.0000000), wk =   0.0011758
        k(  563) = (   0.3888889  -0.5000000   0.0573426), wk =   0.0023516
        k(  564) = (   0.3888889  -0.5000000   0.1146853), wk =   0.0023516
        k(  565) = (   0.3888889  -0.5000000   0.1720279), wk =   0.0023516
        k(  566) = (   0.3888889  -0.5000000   0.2293705), wk =   0.0023516
        k(  567) = (   0.3888889  -0.5000000   0.2867132), wk =   0.0023516
        k(  568) = (   0.3888889  -0.5000000   0.3440558), wk =   0.0023516
        k(  569) = (   0.3888889  -0.5000000   0.4013984), wk =   0.0023516
        k(  570) = (   0.3888889  -0.5000000   0.4587411), wk =   0.0023516
        k(  571) = (   0.3888889  -0.5000000   0.5160837), wk =   0.0023516
        k(  572) = (   0.3888889  -0.5000000   0.5734263), wk =   0.0023516
        k(  573) = (   0.4444444   0.4444444   0.0000000), wk =   0.0011758
        k(  574) = (   0.4444444   0.4444444   0.0573426), wk =   0.0023516
        k(  575) = (   0.4444444   0.4444444   0.1146853), wk =   0.0023516
        k(  576) = (   0.4444444   0.4444444   0.1720279), wk =   0.0023516
        k(  577) = (   0.4444444   0.4444444   0.2293705), wk =   0.0023516
        k(  578) = (   0.4444444   0.4444444   0.2867132), wk =   0.0023516
        k(  579) = (   0.4444444   0.4444444   0.3440558), wk =   0.0023516
        k(  580) = (   0.4444444   0.4444444   0.4013984), wk =   0.0023516
        k(  581) = (   0.4444444   0.4444444   0.4587411), wk =   0.0023516
        k(  582) = (   0.4444444   0.4444444   0.5160837), wk =   0.0023516
        k(  583) = (   0.4444444   0.4444444   0.5734263), wk =   0.0023516
        k(  584) = (   0.4444444  -0.5000000   0.0000000), wk =   0.0011758
        k(  585) = (   0.4444444  -0.5000000   0.0573426), wk =   0.0023516
        k(  586) = (   0.4444444  -0.5000000   0.1146853), wk =   0.0023516
        k(  587) = (   0.4444444  -0.5000000   0.1720279), wk =   0.0023516
        k(  588) = (   0.4444444  -0.5000000   0.2293705), wk =   0.0023516
        k(  589) = (   0.4444444  -0.5000000   0.2867132), wk =   0.0023516
        k(  590) = (   0.4444444  -0.5000000   0.3440558), wk =   0.0023516
        k(  591) = (   0.4444444  -0.5000000   0.4013984), wk =   0.0023516
        k(  592) = (   0.4444444  -0.5000000   0.4587411), wk =   0.0023516
        k(  593) = (   0.4444444  -0.5000000   0.5160837), wk =   0.0023516
        k(  594) = (   0.4444444  -0.5000000   0.5734263), wk =   0.0023516
        k(  595) = (  -0.5000000  -0.5000000   0.0000000), wk =   0.0002939
        k(  596) = (  -0.5000000  -0.5000000   0.0573426), wk =   0.0005879
        k(  597) = (  -0.5000000  -0.5000000   0.1146853), wk =   0.0005879
        k(  598) = (  -0.5000000  -0.5000000   0.1720279), wk =   0.0005879
        k(  599) = (  -0.5000000  -0.5000000   0.2293705), wk =   0.0005879
        k(  600) = (  -0.5000000  -0.5000000   0.2867132), wk =   0.0005879
        k(  601) = (  -0.5000000  -0.5000000   0.3440558), wk =   0.0005879
        k(  602) = (  -0.5000000  -0.5000000   0.4013984), wk =   0.0005879
        k(  603) = (  -0.5000000  -0.5000000   0.4587411), wk =   0.0005879
        k(  604) = (  -0.5000000  -0.5000000   0.5160837), wk =   0.0005879
        k(  605) = (  -0.5000000  -0.5000000   0.5734263), wk =   0.0005879

                       cryst. coord.
        k(    1) = (   0.0000000   0.0000000   0.0000000), wk =   0.0002939
        k(    2) = (   0.0000000   0.0000000   0.0476190), wk =   0.0005879
        k(    3) = (   0.0000000   0.0000000   0.0952381), wk =   0.0005879
        k(    4) = (   0.0000000   0.0000000   0.1428571), wk =   0.0005879
        k(    5) = (   0.0000000   0.0000000   0.1904762), wk =   0.0005879
        k(    6) = (   0.0000000   0.0000000   0.2380952), wk =   0.0005879
        k(    7) = (   0.0000000   0.0000000   0.2857143), wk =   0.0005879
        k(    8) = (   0.0000000   0.0000000   0.3333333), wk =   0.0005879
        k(    9) = (   0.0000000   0.0000000   0.3809524), wk =   0.0005879
        k(   10) = (   0.0000000   0.0000000   0.4285714), wk =   0.0005879
        k(   11) = (   0.0000000   0.0000000   0.4761905), wk =   0.0005879
        k(   12) = (   0.0000000   0.0555556   0.0000000), wk =   0.0011758
        k(   13) = (   0.0000000   0.0555556   0.0476190), wk =   0.0023516
        k(   14) = (   0.0000000   0.0555556   0.0952381), wk =   0.0023516
        k(   15) = (   0.0000000   0.0555556   0.1428571), wk =   0.0023516
        k(   16) = (   0.0000000   0.0555556   0.1904762), wk =   0.0023516
        k(   17) = (   0.0000000   0.0555556   0.2380952), wk =   0.0023516
        k(   18) = (   0.0000000   0.0555556   0.2857143), wk =   0.0023516
        k(   19) = (   0.0000000   0.0555556   0.3333333), wk =   0.0023516
        k(   20) = (   0.0000000   0.0555556   0.3809524), wk =   0.0023516
        k(   21) = (   0.0000000   0.0555556   0.4285714), wk =   0.0023516
        k(   22) = (   0.0000000   0.0555556   0.4761905), wk =   0.0023516
        k(   23) = (   0.0000000   0.1111111   0.0000000), wk =   0.0011758
        k(   24) = (   0.0000000   0.1111111   0.0476190), wk =   0.0023516
        k(   25) = (   0.0000000   0.1111111   0.0952381), wk =   0.0023516
        k(   26) = (   0.0000000   0.1111111   0.1428571), wk =   0.0023516
        k(   27) = (   0.0000000   0.1111111   0.1904762), wk =   0.0023516
        k(   28) = (   0.0000000   0.1111111   0.2380952), wk =   0.0023516
        k(   29) = (   0.0000000   0.1111111   0.2857143), wk =   0.0023516
        k(   30) = (   0.0000000   0.1111111   0.3333333), wk =   0.0023516
        k(   31) = (   0.0000000   0.1111111   0.3809524), wk =   0.0023516
        k(   32) = (   0.0000000   0.1111111   0.4285714), wk =   0.0023516
        k(   33) = (   0.0000000   0.1111111   0.4761905), wk =   0.0023516
        k(   34) = (   0.0000000   0.1666667   0.0000000), wk =   0.0011758
        k(   35) = (   0.0000000   0.1666667   0.0476190), wk =   0.0023516
        k(   36) = (   0.0000000   0.1666667   0.0952381), wk =   0.0023516
        k(   37) = (   0.0000000   0.1666667   0.1428571), wk =   0.0023516
        k(   38) = (   0.0000000   0.1666667   0.1904762), wk =   0.0023516
        k(   39) = (   0.0000000   0.1666667   0.2380952), wk =   0.0023516
        k(   40) = (   0.0000000   0.1666667   0.2857143), wk =   0.0023516
        k(   41) = (   0.0000000   0.1666667   0.3333333), wk =   0.0023516
        k(   42) = (   0.0000000   0.1666667   0.3809524), wk =   0.0023516
        k(   43) = (   0.0000000   0.1666667   0.4285714), wk =   0.0023516
        k(   44) = (   0.0000000   0.1666667   0.4761905), wk =   0.0023516
        k(   45) = (   0.0000000   0.2222222   0.0000000), wk =   0.0011758
        k(   46) = (   0.0000000   0.2222222   0.0476190), wk =   0.0023516
        k(   47) = (   0.0000000   0.2222222   0.0952381), wk =   0.0023516
        k(   48) = (   0.0000000   0.2222222   0.1428571), wk =   0.0023516
        k(   49) = (   0.0000000   0.2222222   0.1904762), wk =   0.0023516
        k(   50) = (   0.0000000   0.2222222   0.2380952), wk =   0.0023516
        k(   51) = (   0.0000000   0.2222222   0.2857143), wk =   0.0023516
        k(   52) = (   0.0000000   0.2222222   0.3333333), wk =   0.0023516
        k(   53) = (   0.0000000   0.2222222   0.3809524), wk =   0.0023516
        k(   54) = (   0.0000000   0.2222222   0.4285714), wk =   0.0023516
        k(   55) = (   0.0000000   0.2222222   0.4761905), wk =   0.0023516
        k(   56) = (   0.0000000   0.2777778   0.0000000), wk =   0.0011758
        k(   57) = (   0.0000000   0.2777778   0.0476190), wk =   0.0023516
        k(   58) = (   0.0000000   0.2777778   0.0952381), wk =   0.0023516
        k(   59) = (   0.0000000   0.2777778   0.1428571), wk =   0.0023516
        k(   60) = (   0.0000000   0.2777778   0.1904762), wk =   0.0023516
        k(   61) = (   0.0000000   0.2777778   0.2380952), wk =   0.0023516
        k(   62) = (   0.0000000   0.2777778   0.2857143), wk =   0.0023516
        k(   63) = (   0.0000000   0.2777778   0.3333333), wk =   0.0023516
        k(   64) = (   0.0000000   0.2777778   0.3809524), wk =   0.0023516
        k(   65) = (   0.0000000   0.2777778   0.4285714), wk =   0.0023516
        k(   66) = (   0.0000000   0.2777778   0.4761905), wk =   0.0023516
        k(   67) = (   0.0000000   0.3333333   0.0000000), wk =   0.0011758
        k(   68) = (   0.0000000   0.3333333   0.0476190), wk =   0.0023516
        k(   69) = (   0.0000000   0.3333333   0.0952381), wk =   0.0023516
        k(   70) = (   0.0000000   0.3333333   0.1428571), wk =   0.0023516
        k(   71) = (   0.0000000   0.3333333   0.1904762), wk =   0.0023516
        k(   72) = (   0.0000000   0.3333333   0.2380952), wk =   0.0023516
        k(   73) = (   0.0000000   0.3333333   0.2857143), wk =   0.0023516
        k(   74) = (   0.0000000   0.3333333   0.3333333), wk =   0.0023516
        k(   75) = (   0.0000000   0.3333333   0.3809524), wk =   0.0023516
        k(   76) = (   0.0000000   0.3333333   0.4285714), wk =   0.0023516
        k(   77) = (   0.0000000   0.3333333   0.4761905), wk =   0.0023516
        k(   78) = (   0.0000000   0.3888889   0.0000000), wk =   0.0011758
        k(   79) = (   0.0000000   0.3888889   0.0476190), wk =   0.0023516
        k(   80) = (   0.0000000   0.3888889   0.0952381), wk =   0.0023516
        k(   81) = (   0.0000000   0.3888889   0.1428571), wk =   0.0023516
        k(   82) = (   0.0000000   0.3888889   0.1904762), wk =   0.0023516
        k(   83) = (   0.0000000   0.3888889   0.2380952), wk =   0.0023516
        k(   84) = (   0.0000000   0.3888889   0.2857143), wk =   0.0023516
        k(   85) = (   0.0000000   0.3888889   0.3333333), wk =   0.0023516
        k(   86) = (   0.0000000   0.3888889   0.3809524), wk =   0.0023516
        k(   87) = (   0.0000000   0.3888889   0.4285714), wk =   0.0023516
        k(   88) = (   0.0000000   0.3888889   0.4761905), wk =   0.0023516
        k(   89) = (   0.0000000   0.4444444   0.0000000), wk =   0.0011758
        k(   90) = (   0.0000000   0.4444444   0.0476190), wk =   0.0023516
        k(   91) = (   0.0000000   0.4444444   0.0952381), wk =   0.0023516
        k(   92) = (   0.0000000   0.4444444   0.1428571), wk =   0.0023516
        k(   93) = (   0.0000000   0.4444444   0.1904762), wk =   0.0023516
        k(   94) = (   0.0000000   0.4444444   0.2380952), wk =   0.0023516
        k(   95) = (   0.0000000   0.4444444   0.2857143), wk =   0.0023516
        k(   96) = (   0.0000000   0.4444444   0.3333333), wk =   0.0023516
        k(   97) = (   0.0000000   0.4444444   0.3809524), wk =   0.0023516
        k(   98) = (   0.0000000   0.4444444   0.4285714), wk =   0.0023516
        k(   99) = (   0.0000000   0.4444444   0.4761905), wk =   0.0023516
        k(  100) = (   0.0000000  -0.5000000   0.0000000), wk =   0.0005879
        k(  101) = (   0.0000000  -0.5000000   0.0476190), wk =   0.0011758
        k(  102) = (   0.0000000  -0.5000000   0.0952381), wk =   0.0011758
        k(  103) = (   0.0000000  -0.5000000   0.1428571), wk =   0.0011758
        k(  104) = (   0.0000000  -0.5000000   0.1904762), wk =   0.0011758
        k(  105) = (   0.0000000  -0.5000000   0.2380952), wk =   0.0011758
        k(  106) = (   0.0000000  -0.5000000   0.2857143), wk =   0.0011758
        k(  107) = (   0.0000000  -0.5000000   0.3333333), wk =   0.0011758
        k(  108) = (   0.0000000  -0.5000000   0.3809524), wk =   0.0011758
        k(  109) = (   0.0000000  -0.5000000   0.4285714), wk =   0.0011758
        k(  110) = (   0.0000000  -0.5000000   0.4761905), wk =   0.0011758
        k(  111) = (   0.0555556   0.0555556   0.0000000), wk =   0.0011758
        k(  112) = (   0.0555556   0.0555556   0.0476190), wk =   0.0023516
        k(  113) = (   0.0555556   0.0555556   0.0952381), wk =   0.0023516
        k(  114) = (   0.0555556   0.0555556   0.1428571), wk =   0.0023516
        k(  115) = (   0.0555556   0.0555556   0.1904762), wk =   0.0023516
        k(  116) = (   0.0555556   0.0555556   0.2380952), wk =   0.0023516
        k(  117) = (   0.0555556   0.0555556   0.2857143), wk =   0.0023516
        k(  118) = (   0.0555556   0.0555556   0.3333333), wk =   0.0023516
        k(  119) = (   0.0555556   0.0555556   0.3809524), wk =   0.0023516
        k(  120) = (   0.0555556   0.0555556   0.4285714), wk =   0.0023516
        k(  121) = (   0.0555556   0.0555556   0.4761905), wk =   0.0023516
        k(  122) = (   0.0555556   0.1111111   0.0000000), wk =   0.0023516
        k(  123) = (   0.0555556   0.1111111   0.0476190), wk =   0.0047031
        k(  124) = (   0.0555556   0.1111111   0.0952381), wk =   0.0047031
        k(  125) = (   0.0555556   0.1111111   0.1428571), wk =   0.0047031
        k(  126) = (   0.0555556   0.1111111   0.1904762), wk =   0.0047031
        k(  127) = (   0.0555556   0.1111111   0.2380952), wk =   0.0047031
        k(  128) = (   0.0555556   0.1111111   0.2857143), wk =   0.0047031
        k(  129) = (   0.0555556   0.1111111   0.3333333), wk =   0.0047031
        k(  130) = (   0.0555556   0.1111111   0.3809524), wk =   0.0047031
        k(  131) = (   0.0555556   0.1111111   0.4285714), wk =   0.0047031
        k(  132) = (   0.0555556   0.1111111   0.4761905), wk =   0.0047031
        k(  133) = (   0.0555556   0.1666667   0.0000000), wk =   0.0023516
        k(  134) = (   0.0555556   0.1666667   0.0476190), wk =   0.0047031
        k(  135) = (   0.0555556   0.1666667   0.0952381), wk =   0.0047031
        k(  136) = (   0.0555556   0.1666667   0.1428571), wk =   0.0047031
        k(  137) = (   0.0555556   0.1666667   0.1904762), wk =   0.0047031
        k(  138) = (   0.0555556   0.1666667   0.2380952), wk =   0.0047031
        k(  139) = (   0.0555556   0.1666667   0.2857143), wk =   0.0047031
        k(  140) = (   0.0555556   0.1666667   0.3333333), wk =   0.0047031
        k(  141) = (   0.0555556   0.1666667   0.3809524), wk =   0.0047031
        k(  142) = (   0.0555556   0.1666667   0.4285714), wk =   0.0047031
        k(  143) = (   0.0555556   0.1666667   0.4761905), wk =   0.0047031
        k(  144) = (   0.0555556   0.2222222   0.0000000), wk =   0.0023516
        k(  145) = (   0.0555556   0.2222222   0.0476190), wk =   0.0047031
        k(  146) = (   0.0555556   0.2222222   0.0952381), wk =   0.0047031
        k(  147) = (   0.0555556   0.2222222   0.1428571), wk =   0.0047031
        k(  148) = (   0.0555556   0.2222222   0.1904762), wk =   0.0047031
        k(  149) = (   0.0555556   0.2222222   0.2380952), wk =   0.0047031
        k(  150) = (   0.0555556   0.2222222   0.2857143), wk =   0.0047031
        k(  151) = (   0.0555556   0.2222222   0.3333333), wk =   0.0047031
        k(  152) = (   0.0555556   0.2222222   0.3809524), wk =   0.0047031
        k(  153) = (   0.0555556   0.2222222   0.4285714), wk =   0.0047031
        k(  154) = (   0.0555556   0.2222222   0.4761905), wk =   0.0047031
        k(  155) = (   0.0555556   0.2777778   0.0000000), wk =   0.0023516
        k(  156) = (   0.0555556   0.2777778   0.0476190), wk =   0.0047031
        k(  157) = (   0.0555556   0.2777778   0.0952381), wk =   0.0047031
        k(  158) = (   0.0555556   0.2777778   0.1428571), wk =   0.0047031
        k(  159) = (   0.0555556   0.2777778   0.1904762), wk =   0.0047031
        k(  160) = (   0.0555556   0.2777778   0.2380952), wk =   0.0047031
        k(  161) = (   0.0555556   0.2777778   0.2857143), wk =   0.0047031
        k(  162) = (   0.0555556   0.2777778   0.3333333), wk =   0.0047031
        k(  163) = (   0.0555556   0.2777778   0.3809524), wk =   0.0047031
        k(  164) = (   0.0555556   0.2777778   0.4285714), wk =   0.0047031
        k(  165) = (   0.0555556   0.2777778   0.4761905), wk =   0.0047031
        k(  166) = (   0.0555556   0.3333333   0.0000000), wk =   0.0023516
        k(  167) = (   0.0555556   0.3333333   0.0476190), wk =   0.0047031
        k(  168) = (   0.0555556   0.3333333   0.0952381), wk =   0.0047031
        k(  169) = (   0.0555556   0.3333333   0.1428571), wk =   0.0047031
        k(  170) = (   0.0555556   0.3333333   0.1904762), wk =   0.0047031
        k(  171) = (   0.0555556   0.3333333   0.2380952), wk =   0.0047031
        k(  172) = (   0.0555556   0.3333333   0.2857143), wk =   0.0047031
        k(  173) = (   0.0555556   0.3333333   0.3333333), wk =   0.0047031
        k(  174) = (   0.0555556   0.3333333   0.3809524), wk =   0.0047031
        k(  175) = (   0.0555556   0.3333333   0.4285714), wk =   0.0047031
        k(  176) = (   0.0555556   0.3333333   0.4761905), wk =   0.0047031
        k(  177) = (   0.0555556   0.3888889   0.0000000), wk =   0.0023516
        k(  178) = (   0.0555556   0.3888889   0.0476190), wk =   0.0047031
        k(  179) = (   0.0555556   0.3888889   0.0952381), wk =   0.0047031
        k(  180) = (   0.0555556   0.3888889   0.1428571), wk =   0.0047031
        k(  181) = (   0.0555556   0.3888889   0.1904762), wk =   0.0047031
        k(  182) = (   0.0555556   0.3888889   0.2380952), wk =   0.0047031
        k(  183) = (   0.0555556   0.3888889   0.2857143), wk =   0.0047031
        k(  184) = (   0.0555556   0.3888889   0.3333333), wk =   0.0047031
        k(  185) = (   0.0555556   0.3888889   0.3809524), wk =   0.0047031
        k(  186) = (   0.0555556   0.3888889   0.4285714), wk =   0.0047031
        k(  187) = (   0.0555556   0.3888889   0.4761905), wk =   0.0047031
        k(  188) = (   0.0555556   0.4444444   0.0000000), wk =   0.0023516
        k(  189) = (   0.0555556   0.4444444   0.0476190), wk =   0.0047031
        k(  190) = (   0.0555556   0.4444444   0.0952381), wk =   0.0047031
        k(  191) = (   0.0555556   0.4444444   0.1428571), wk =   0.0047031
        k(  192) = (   0.0555556   0.4444444   0.1904762), wk =   0.0047031
        k(  193) = (   0.0555556   0.4444444   0.2380952), wk =   0.0047031
        k(  194) = (   0.0555556   0.4444444   0.2857143), wk =   0.0047031
        k(  195) = (   0.0555556   0.4444444   0.3333333), wk =   0.0047031
        k(  196) = (   0.0555556   0.4444444   0.3809524), wk =   0.0047031
        k(  197) = (   0.0555556   0.4444444   0.4285714), wk =   0.0047031
        k(  198) = (   0.0555556   0.4444444   0.4761905), wk =   0.0047031
        k(  199) = (   0.0555556  -0.5000000   0.0000000), wk =   0.0011758
        k(  200) = (   0.0555556  -0.5000000   0.0476190), wk =   0.0023516
        k(  201) = (   0.0555556  -0.5000000   0.0952381), wk =   0.0023516
        k(  202) = (   0.0555556  -0.5000000   0.1428571), wk =   0.0023516
        k(  203) = (   0.0555556  -0.5000000   0.1904762), wk =   0.0023516
        k(  204) = (   0.0555556  -0.5000000   0.2380952), wk =   0.0023516
        k(  205) = (   0.0555556  -0.5000000   0.2857143), wk =   0.0023516
        k(  206) = (   0.0555556  -0.5000000   0.3333333), wk =   0.0023516
        k(  207) = (   0.0555556  -0.5000000   0.3809524), wk =   0.0023516
        k(  208) = (   0.0555556  -0.5000000   0.4285714), wk =   0.0023516
        k(  209) = (   0.0555556  -0.5000000   0.4761905), wk =   0.0023516
        k(  210) = (   0.1111111   0.1111111   0.0000000), wk =   0.0011758
        k(  211) = (   0.1111111   0.1111111   0.0476190), wk =   0.0023516
        k(  212) = (   0.1111111   0.1111111   0.0952381), wk =   0.0023516
        k(  213) = (   0.1111111   0.1111111   0.1428571), wk =   0.0023516
        k(  214) = (   0.1111111   0.1111111   0.1904762), wk =   0.0023516
        k(  215) = (   0.1111111   0.1111111   0.2380952), wk =   0.0023516
        k(  216) = (   0.1111111   0.1111111   0.2857143), wk =   0.0023516
        k(  217) = (   0.1111111   0.1111111   0.3333333), wk =   0.0023516
        k(  218) = (   0.1111111   0.1111111   0.3809524), wk =   0.0023516
        k(  219) = (   0.1111111   0.1111111   0.4285714), wk =   0.0023516
        k(  220) = (   0.1111111   0.1111111   0.4761905), wk =   0.0023516
        k(  221) = (   0.1111111   0.1666667   0.0000000), wk =   0.0023516
        k(  222) = (   0.1111111   0.1666667   0.0476190), wk =   0.0047031
        k(  223) = (   0.1111111   0.1666667   0.0952381), wk =   0.0047031
        k(  224) = (   0.1111111   0.1666667   0.1428571), wk =   0.0047031
        k(  225) = (   0.1111111   0.1666667   0.1904762), wk =   0.0047031
        k(  226) = (   0.1111111   0.1666667   0.2380952), wk =   0.0047031
        k(  227) = (   0.1111111   0.1666667   0.2857143), wk =   0.0047031
        k(  228) = (   0.1111111   0.1666667   0.3333333), wk =   0.0047031
        k(  229) = (   0.1111111   0.1666667   0.3809524), wk =   0.0047031
        k(  230) = (   0.1111111   0.1666667   0.4285714), wk =   0.0047031
        k(  231) = (   0.1111111   0.1666667   0.4761905), wk =   0.0047031
        k(  232) = (   0.1111111   0.2222222   0.0000000), wk =   0.0023516
        k(  233) = (   0.1111111   0.2222222   0.0476190), wk =   0.0047031
        k(  234) = (   0.1111111   0.2222222   0.0952381), wk =   0.0047031
        k(  235) = (   0.1111111   0.2222222   0.1428571), wk =   0.0047031
        k(  236) = (   0.1111111   0.2222222   0.1904762), wk =   0.0047031
        k(  237) = (   0.1111111   0.2222222   0.2380952), wk =   0.0047031
        k(  238) = (   0.1111111   0.2222222   0.2857143), wk =   0.0047031
        k(  239) = (   0.1111111   0.2222222   0.3333333), wk =   0.0047031
        k(  240) = (   0.1111111   0.2222222   0.3809524), wk =   0.0047031
        k(  241) = (   0.1111111   0.2222222   0.4285714), wk =   0.0047031
        k(  242) = (   0.1111111   0.2222222   0.4761905), wk =   0.0047031
        k(  243) = (   0.1111111   0.2777778   0.0000000), wk =   0.0023516
        k(  244) = (   0.1111111   0.2777778   0.0476190), wk =   0.0047031
        k(  245) = (   0.1111111   0.2777778   0.0952381), wk =   0.0047031
        k(  246) = (   0.1111111   0.2777778   0.1428571), wk =   0.0047031
        k(  247) = (   0.1111111   0.2777778   0.1904762), wk =   0.0047031
        k(  248) = (   0.1111111   0.2777778   0.2380952), wk =   0.0047031
        k(  249) = (   0.1111111   0.2777778   0.2857143), wk =   0.0047031
        k(  250) = (   0.1111111   0.2777778   0.3333333), wk =   0.0047031
        k(  251) = (   0.1111111   0.2777778   0.3809524), wk =   0.0047031
        k(  252) = (   0.1111111   0.2777778   0.4285714), wk =   0.0047031
        k(  253) = (   0.1111111   0.2777778   0.4761905), wk =   0.0047031
        k(  254) = (   0.1111111   0.3333333   0.0000000), wk =   0.0023516
        k(  255) = (   0.1111111   0.3333333   0.0476190), wk =   0.0047031
        k(  256) = (   0.1111111   0.3333333   0.0952381), wk =   0.0047031
        k(  257) = (   0.1111111   0.3333333   0.1428571), wk =   0.0047031
        k(  258) = (   0.1111111   0.3333333   0.1904762), wk =   0.0047031
        k(  259) = (   0.1111111   0.3333333   0.2380952), wk =   0.0047031
        k(  260) = (   0.1111111   0.3333333   0.2857143), wk =   0.0047031
        k(  261) = (   0.1111111   0.3333333   0.3333333), wk =   0.0047031
        k(  262) = (   0.1111111   0.3333333   0.3809524), wk =   0.0047031
        k(  263) = (   0.1111111   0.3333333   0.4285714), wk =   0.0047031
        k(  264) = (   0.1111111   0.3333333   0.4761905), wk =   0.0047031
        k(  265) = (   0.1111111   0.3888889   0.0000000), wk =   0.0023516
        k(  266) = (   0.1111111   0.3888889   0.0476190), wk =   0.0047031
        k(  267) = (   0.1111111   0.3888889   0.0952381), wk =   0.0047031
        k(  268) = (   0.1111111   0.3888889   0.1428571), wk =   0.0047031
        k(  269) = (   0.1111111   0.3888889   0.1904762), wk =   0.0047031
        k(  270) = (   0.1111111   0.3888889   0.2380952), wk =   0.0047031
        k(  271) = (   0.1111111   0.3888889   0.2857143), wk =   0.0047031
        k(  272) = (   0.1111111   0.3888889   0.3333333), wk =   0.0047031
        k(  273) = (   0.1111111   0.3888889   0.3809524), wk =   0.0047031
        k(  274) = (   0.1111111   0.3888889   0.4285714), wk =   0.0047031
        k(  275) = (   0.1111111   0.3888889   0.4761905), wk =   0.0047031
        k(  276) = (   0.1111111   0.4444444   0.0000000), wk =   0.0023516
        k(  277) = (   0.1111111   0.4444444   0.0476190), wk =   0.0047031
        k(  278) = (   0.1111111   0.4444444   0.0952381), wk =   0.0047031
        k(  279) = (   0.1111111   0.4444444   0.1428571), wk =   0.0047031
        k(  280) = (   0.1111111   0.4444444   0.1904762), wk =   0.0047031
        k(  281) = (   0.1111111   0.4444444   0.2380952), wk =   0.0047031
        k(  282) = (   0.1111111   0.4444444   0.2857143), wk =   0.0047031
        k(  283) = (   0.1111111   0.4444444   0.3333333), wk =   0.0047031
        k(  284) = (   0.1111111   0.4444444   0.3809524), wk =   0.0047031
        k(  285) = (   0.1111111   0.4444444   0.4285714), wk =   0.0047031
        k(  286) = (   0.1111111   0.4444444   0.4761905), wk =   0.0047031
        k(  287) = (   0.1111111  -0.5000000   0.0000000), wk =   0.0011758
        k(  288) = (   0.1111111  -0.5000000   0.0476190), wk =   0.0023516
        k(  289) = (   0.1111111  -0.5000000   0.0952381), wk =   0.0023516
        k(  290) = (   0.1111111  -0.5000000   0.1428571), wk =   0.0023516
        k(  291) = (   0.1111111  -0.5000000   0.1904762), wk =   0.0023516
        k(  292) = (   0.1111111  -0.5000000   0.2380952), wk =   0.0023516
        k(  293) = (   0.1111111  -0.5000000   0.2857143), wk =   0.0023516
        k(  294) = (   0.1111111  -0.5000000   0.3333333), wk =   0.0023516
        k(  295) = (   0.1111111  -0.5000000   0.3809524), wk =   0.0023516
        k(  296) = (   0.1111111  -0.5000000   0.4285714), wk =   0.0023516
        k(  297) = (   0.1111111  -0.5000000   0.4761905), wk =   0.0023516
        k(  298) = (   0.1666667   0.1666667   0.0000000), wk =   0.0011758
        k(  299) = (   0.1666667   0.1666667   0.0476190), wk =   0.0023516
        k(  300) = (   0.1666667   0.1666667   0.0952381), wk =   0.0023516
        k(  301) = (   0.1666667   0.1666667   0.1428571), wk =   0.0023516
        k(  302) = (   0.1666667   0.1666667   0.1904762), wk =   0.0023516
        k(  303) = (   0.1666667   0.1666667   0.2380952), wk =   0.0023516
[...]
    16.3525  16.3526

     occupation numbers 
     1.0000   1.0000   1.0000   1.0000   1.0000   1.0000   1.0000   0.0000
     0.0000   0.0000

          k = 0.3889 0.3889 0.4014 (   788 PWs)   bands (ev):

     1.5784   3.5044   3.5044   5.1795   6.0915   7.7349   7.7349   9.5932
    16.6840  16.6840

     occupation numbers 
     1.0000   1.0000   1.0000   1.0000   1.0000   1.0000   1.0000   1.0035
     0.0000   0.0000

          k = 0.3889 0.3889 0.4587 (   786 PWs)   bands (ev):

     2.0099   3.9179   3.9179   4.8671   6.0688   7.0015   7.0015   8.8547
    17.0501  17.0501

     occupation numbers 
     1.0000   1.0000   1.0000   1.0000   1.0000   1.0000   1.0000   1.0000
     0.0000   0.0000

          k = 0.3889 0.3889 0.5161 (   786 PWs)   bands (ev):

     2.4961   4.2489   4.3674   4.3674   6.3380   6.3380   6.4581   8.1680
    17.4299  17.4299

     occupation numbers 
     1.0000   1.0000   1.0000   1.0000   1.0000   1.0000   1.0000   1.0000
     0.0000   0.0000

          k = 0.3889 0.3889 0.5734 (   786 PWs)   bands (ev):

     3.0350   3.6228   4.7839   4.7839   5.8142   5.8142   6.9624   7.5358
    17.7406  17.7407

     occupation numbers 
     1.0000   1.0000   1.0000   1.0000   1.0000   1.0000   1.0000   1.0000
     0.0000   0.0000

          k = 0.3889 0.4444 0.0000 (   781 PWs)   bands (ev):

     0.5664   1.5470   2.5196   3.4843  11.9400  12.8277  13.7150  14.1632
    14.6016  14.7663

     occupation numbers 
     1.0000   1.0000   1.0000   1.0000   0.0000   0.0000   0.0000   0.0000
     0.0000   0.0000

          k = 0.3889 0.4444 0.0573 (   780 PWs)   bands (ev):

     0.5955   1.5759   2.5481   3.5124  11.4968  12.3882  13.2865  14.1899
    14.6343  15.1103

     occupation numbers 
     1.0000   1.0000   1.0000   1.0000   0.0000   0.0000   0.0000   0.0000
     0.0000   0.0000

          k = 0.3889 0.4444 0.1147 (   778 PWs)   bands (ev):

     0.6828   1.6624   2.6337   3.5967  10.6394  11.5407  12.4500  13.3658
    15.5512  15.5770

     occupation numbers 
     1.0000   1.0000   1.0000   1.0000   0.0000   0.0000   0.0000   0.0000
     0.0000   0.0000

          k = 0.3889 0.4444 0.1720 (   783 PWs)   bands (ev):

     0.8282   1.8064   2.7760   3.7365   9.7105  10.6205  11.5367  12.4579
    15.8757  16.3656

     occupation numbers 
     1.0000   1.0000   1.0000   1.0000   1.0471   0.0000   0.0000   0.0000
     0.0000   0.0000

          k = 0.3889 0.4444 0.2294 (   784 PWs)   bands (ev):

     1.0314   2.0076   2.9747   3.9310   8.7916   9.7072  10.6281  11.5528
    16.1227  16.7261

     occupation numbers 
     1.0000   1.0000   1.0000   1.0000   1.0000   1.0449   0.0000   0.0000
     0.0000   0.0000

          k = 0.3889 0.4444 0.2867 (   788 PWs)   bands (ev):

     1.2921   2.2656   3.2288   4.1776   7.9086   8.8255   9.7497  10.6771
    16.3848  16.9922

     occupation numbers 
     1.0000   1.0000   1.0000   1.0000   1.0000   1.0000   1.0730   0.0000
     0.0000   0.0000

          k = 0.3889 0.4444 0.3441 (   784 PWs)   bands (ev):

     1.6097   2.5795   3.5368   4.4703   7.0772   7.9870   8.9122   9.8418
    16.6821  17.2831

     occupation numbers 
     1.0000   1.0000   1.0000   1.0000   1.0000   1.0000   1.0000   1.0173
     0.0000   0.0000

          k = 0.3889 0.4444 0.4014 (   787 PWs)   bands (ev):

     1.9837   2.9483   3.8953   4.7852   6.3259   7.1999   8.1219   9.0524
    17.0204  17.6156

     occupation numbers 
     1.0000   1.0000   1.0000   1.0000   1.0000   1.0000   1.0000   1.0000
     0.0000   0.0000

          k = 0.3889 0.4444 0.4587 (   788 PWs)   bands (ev):

     2.4129   3.3696   4.2942   4.9640   5.8154   6.4769   7.3836   8.3128
    17.3991  17.9932

     occupation numbers 
     1.0000   1.0000   1.0000   1.0000   1.0000   1.0000   1.0000   1.0000
     0.0000   0.0000

          k = 0.3889 0.4444 0.5161 (   790 PWs)   bands (ev):

     2.8957   3.8383   4.5895   4.6866   5.8666   5.9645   6.7041   7.6259
    17.8116  18.4162

     occupation numbers 
     1.0000   1.0000   1.0000   1.0000   1.0000   1.0000   1.0000   1.0000
     0.0000   0.0000

          k = 0.3889 0.4444 0.5734 (   788 PWs)   bands (ev):

     3.4289   4.0044   4.3370   4.7634   5.6788   6.1015   6.4313   6.9960
    18.2336  18.5600

     occupation numbers 
     1.0000   1.0000   1.0000   1.0000   1.0000   1.0000   1.0000   1.0000
     0.0000   0.0000

          k = 0.3889-0.5000 0.0000 (   784 PWs)   bands (ev):

     1.0305   1.0305   2.9763   2.9763  12.3593  12.3593  14.1338  14.1339
    14.5108  14.5109

     occupation numbers 
     1.0000   1.0000   1.0000   1.0000   0.0000   0.0000   0.0000   0.0000
     0.0000   0.0000

          k = 0.3889-0.5000 0.0573 (   780 PWs)   bands (ev):

     1.0595   1.0595   3.0046   3.0047  11.9190  11.9190  13.7151  13.7151
    14.9441  14.9442

     occupation numbers 
     1.0000   1.0000   1.0000   1.0000   0.0000   0.0000   0.0000   0.0000
     0.0000   0.0000

          k = 0.3889-0.5000 0.1147 (   774 PWs)   bands (ev):

     1.1464   1.1465   3.0896   3.0897  11.0665  11.0665  12.8848  12.8848
    15.6797  15.6798

     occupation numbers 
     1.0000   1.0000   1.0000   1.0000   0.0000   0.0000   0.0000   0.0000
     0.0000   0.0000

          k = 0.3889-0.5000 0.1720 (   782 PWs)   bands (ev):

     1.2912   1.2912   3.2309   3.2310  10.1413  10.1413  11.9736  11.9736
    16.1556  16.1557

     occupation numbers 
     1.0000   1.0000   1.0000   1.0000   0.0124   0.0124   0.0000   0.0000
     0.0000   0.0000

          k = 0.3889-0.5000 0.2294 (   780 PWs)   bands (ev):

     1.4935   1.4936   3.4279   3.4279   9.2243   9.2243  11.0663  11.0663
    16.4441  16.4441

     occupation numbers 
     1.0000   1.0000   1.0000   1.0000   1.0000   1.0000   0.0000   0.0000
     0.0000   0.0000

          k = 0.3889-0.5000 0.2867 (   786 PWs)   bands (ev):

     1.7530   1.7530   3.6791   3.6792   8.3408   8.3408  10.1888  10.1888
    16.7152  16.7152

     occupation numbers 
     1.0000   1.0000   1.0000   1.0000   1.0000   1.0000   0.0027   0.0027
     0.0000   0.0000

          k = 0.3889-0.5000 0.3441 (   786 PWs)   bands (ev):

     2.0690   2.0690   3.9819   3.9820   7.5032   7.5032   9.3519   9.3519
    17.0146  17.0147

     occupation numbers 
     1.0000   1.0000   1.0000   1.0000   1.0000   1.0000   1.0000   1.0000
     0.0000   0.0000

          k = 0.3889-0.5000 0.4014 (   788 PWs)   bands (ev):

     2.4407   2.4408   4.3284   4.3284   6.7240   6.7241   8.5616   8.5616
    17.3541  17.3542

     occupation numbers 
     1.0000   1.0000   1.0000   1.0000   1.0000   1.0000   1.0000   1.0000
     0.0000   0.0000

          k = 0.3889-0.5000 0.4587 (   784 PWs)   bands (ev):

     2.8667   2.8668   4.6855   4.6856   6.0389   6.0389   7.8217   7.8217
    17.7364  17.7365

     occupation numbers 
     1.0000   1.0000   1.0000   1.0000   1.0000   1.0000   1.0000   1.0000
     0.0000   0.0000

          k = 0.3889-0.5000 0.5161 (   792 PWs)   bands (ev):

     3.3444   3.3444   4.8253   4.8254   5.6773   5.6773   7.1366   7.1366
    18.1600  18.1600

     occupation numbers 
     1.0000   1.0000   1.0000   1.0000   1.0000   1.0000   1.0000   1.0000
     0.0000   0.0000

          k = 0.3889-0.5000 0.5734 (   792 PWs)   bands (ev):

     3.8672   3.8672   4.4117   4.4118   5.9762   5.9762   6.5135   6.5135
    18.6173  18.6174

     occupation numbers 
     1.0000   1.0000   1.0000   1.0000   1.0000   1.0000   1.0000   1.0000
     0.0000   0.0000

          k = 0.4444 0.4444 0.0000 (   780 PWs)   bands (ev):

     0.9761   1.9535   1.9535   2.9231  12.3101  13.1977  13.1977  14.0847
    14.5937  15.4142

     occupation numbers 
     1.0000   1.0000   1.0000   1.0000   0.0000   0.0000   0.0000   0.0000
     0.0000   0.0000

          k = 0.4444 0.4444 0.0573 (   777 PWs)   bands (ev):

     1.0051   1.9823   1.9823   2.9515  11.8728  12.7683  12.7683  13.6688
    15.0672  15.8368

     occupation numbers 
     1.0000   1.0000   1.0000   1.0000   0.0000   0.0000   0.0000   0.0000
     0.0000   0.0000

          k = 0.4444 0.4444 0.1147 (   780 PWs)   bands (ev):

     1.0921   2.0684   2.0684   3.0365  11.0205  11.9266  11.9266  12.8391
    16.0245  16.5550

     occupation numbers 
     1.0000   1.0000   1.0000   1.0000   0.0000   0.0000   0.0000   0.0000
     0.0000   0.0000

          k = 0.4444 0.4444 0.1720 (   782 PWs)   bands (ev):

     1.2369   2.2118   2.2118   3.1779  10.0939  11.0080  11.0080  11.9269
    17.0050  17.1099

     occupation numbers 
     1.0000   1.0000   1.0000   1.0000   0.0441   0.0000   0.0000   0.0000
     0.0000   0.0000

          k = 0.4444 0.4444 0.2294 (   780 PWs)   bands (ev):

     1.4394   2.4120   2.4120   3.3749   9.1756  10.0951  10.0951  11.0185
    17.2795  17.4594

     occupation numbers 
     1.0000   1.0000   1.0000   1.0000   1.0000   0.0428   0.0428   0.0000
     0.0000   0.0000

          k = 0.4444 0.4444 0.2867 (   778 PWs)   bands (ev):

     1.6989   2.6684   2.6684   3.6264   8.2910   9.2134   9.2134  10.1401
    17.5429  17.6815

     occupation numbers 
     1.0000   1.0000   1.0000   1.0000   1.0000   1.0000   1.0000   0.0128
     0.0000   0.0000

          k = 0.4444 0.4444 0.3441 (   785 PWs)   bands (ev):

     2.0151   2.9801   2.9801   3.9293   7.4525   8.3738   8.3738   9.3025
    17.8352  17.9534

     occupation numbers 
     1.0000   1.0000   1.0000   1.0000   1.0000   1.0000   1.0000   1.0000
     0.0000   0.0000

          k = 0.4444 0.4444 0.4014 (   786 PWs)   bands (ev):

     2.3870   3.3452   3.3452   4.2760   6.6726   7.5829   7.5829   8.5115
    18.1653  18.2733

     occupation numbers 
     1.0000   1.0000   1.0000   1.0000   1.0000   1.0000   1.0000   1.0000
     0.0000   0.0000

          k = 0.4444 0.4444 0.4587 (   792 PWs)   bands (ev):

     2.8133   3.7595   3.7595   4.6335   5.9868   6.8477   6.8477   7.7711
    18.5311  18.5311

     occupation numbers 
     1.0000   1.0000   1.0000   1.0000   1.0000   1.0000   1.0000   1.0000
     0.0000   0.0000

          k = 0.4444 0.4444 0.5161 (   792 PWs)   bands (ev):

     3.2912   4.2100   4.2100   4.7735   5.6248   6.1825   6.1825   7.0855
    18.9166  18.9166

     occupation numbers 
     1.0000   1.0000   1.0000   1.0000   1.0000   1.0000   1.0000   1.0000
     0.0000   0.0000

          k = 0.4444 0.4444 0.5734 (   798 PWs)   bands (ev):

     3.8143   4.3593   4.6280   4.6280   5.6570   5.6570   5.9242   6.4619
    19.2459  19.2459

     occupation numbers 
     1.0000   1.0000   1.0000   1.0000   1.0000   1.0000   1.0000   1.0000
     0.0000   0.0000

          k = 0.4444-0.5000 0.0000 (   778 PWs)   bands (ev):

     1.4387   1.4388   2.4125   2.4125  12.7293  12.7294  13.6167  13.6168
    15.0169  15.0170

     occupation numbers 
     1.0000   1.0000   1.0000   1.0000   0.0000   0.0000   0.0000   0.0000
     0.0000   0.0000

          k = 0.4444-0.5000 0.0573 (   780 PWs)   bands (ev):

     1.4676   1.4677   2.4410   2.4411  12.2967  12.2968  13.1949  13.1949
    15.4779  15.4780

     occupation numbers 
     1.0000   1.0000   1.0000   1.0000   0.0000   0.0000   0.0000   0.0000
     0.0000   0.0000

          k = 0.4444-0.5000 0.1147 (   776 PWs)   bands (ev):

     1.5542   1.5543   2.5267   2.5268  11.4498  11.4498  12.3593  12.3593
    16.3847  16.3848

     occupation numbers 
     1.0000   1.0000   1.0000   1.0000   0.0000   0.0000   0.0000   0.0000
     0.0000   0.0000

          k = 0.4444-0.5000 0.1720 (   776 PWs)   bands (ev):

     1.6984   1.6984   2.6692   2.6693  10.5267  10.5267  11.4435  11.4435
    17.1697  17.1697

     occupation numbers 
     1.0000   1.0000   1.0000   1.0000   0.0000   0.0000   0.0000   0.0000
     0.0000   0.0000

          k = 0.4444-0.5000 0.2294 (   782 PWs)   bands (ev):

     1.8998   1.8999   2.8681   2.8681   9.6105   9.6105  10.5324  10.5324
    17.5009  17.5010

     occupation numbers 
     1.0000   1.0000   1.0000   1.0000   1.0057   1.0057   0.0000   0.0000
     0.0000   0.0000

          k = 0.4444-0.5000 0.2867 (   780 PWs)   bands (ev):

     2.1580   2.1581   3.1225   3.1225   8.7266   8.7266   9.6518   9.6518
    17.7591  17.7592

     occupation numbers 
     1.0000   1.0000   1.0000   1.0000   1.0000   1.0000   1.0160   1.0160
     0.0000   0.0000

          k = 0.4444-0.5000 0.3441 (   782 PWs)   bands (ev):

     2.4723   2.4723   3.4309   3.4309   7.8863   7.8863   8.8127   8.8127
    18.0452  18.0454

     occupation numbers 
     1.0000   1.0000   1.0000   1.0000   1.0000   1.0000   1.0000   1.0000
     0.0000   0.0000

          k = 0.4444-0.5000 0.4014 (   788 PWs)   bands (ev):

     2.8414   2.8415   3.7898   3.7898   7.0978   7.0978   8.0210   8.0210
    18.3725  18.3726

     occupation numbers 
     1.0000   1.0000   1.0000   1.0000   1.0000   1.0000   1.0000   1.0000
     0.0000   0.0000

          k = 0.4444-0.5000 0.4587 (   790 PWs)   bands (ev):

     3.2632   3.2633   4.1893   4.1894   6.3735   6.3735   7.2816   7.2816
    18.7422  18.7424

     occupation numbers 
     1.0000   1.0000   1.0000   1.0000   1.0000   1.0000   1.0000   1.0000
     0.0000   0.0000

          k = 0.4444-0.5000 0.5161 (   798 PWs)   bands (ev):

     3.7325   3.7326   4.5824   4.5825   5.7619   5.7619   6.6010   6.6011
    19.1498  19.1501

     occupation numbers 
     1.0000   1.0000   1.0000   1.0000   1.0000   1.0000   1.0000   1.0000
     0.0000   0.0000

          k = 0.4444-0.5000 0.5734 (   798 PWs)   bands (ev):

     4.2320   4.2321   4.6595   4.6596   5.5737   5.5737   5.9975   5.9975
    19.5763  19.5765

     occupation numbers 
     1.0000   1.0000   1.0000   1.0000   1.0000   1.0000   1.0000   1.0000
     0.0000   0.0000

          k =-0.5000-0.5000 0.0000 (   784 PWs)   bands (ev):

     1.8996   1.8996   1.8996   1.8997  13.1484  13.1485  13.1486  13.1486
    15.4966  15.4967

     occupation numbers 
     1.0000   1.0000   1.0000   1.0000   0.0000   0.0000   0.0000   0.0000
     0.0000   0.0000

          k =-0.5000-0.5000 0.0573 (   780 PWs)   bands (ev):

     1.9284   1.9284   1.9284   1.9285  12.7219  12.7220  12.7220  12.7220
    15.9599  15.9600

     occupation numbers 
     1.0000   1.0000   1.0000   1.0000   0.0000   0.0000   0.0000   0.0000
     0.0000   0.0000

          k =-0.5000-0.5000 0.1147 (   792 PWs)   bands (ev):

     2.0145   2.0146   2.0146   2.0147  11.8807  11.8807  11.8807  11.8807
    16.9079  16.9080

     occupation numbers 
     1.0000   1.0000   1.0000   1.0000   0.0000   0.0000   0.0000   0.0000
     0.0000   0.0000

          k =-0.5000-0.5000 0.1720 (   780 PWs)   bands (ev):

     2.1580   2.1580   2.1580   2.1581  10.9609  10.9609  10.9609  10.9609
    18.0864  18.0866

     occupation numbers 
     1.0000   1.0000   1.0000   1.0000   0.0000   0.0000   0.0000   0.0000
     0.0000   0.0000

          k =-0.5000-0.5000 0.2294 (   772 PWs)   bands (ev):

     2.3583   2.3583   2.3583   2.3584  10.0468  10.0468  10.0468  10.0468
    18.2588  18.2590

     occupation numbers 
     1.0000   1.0000   1.0000   1.0000   0.1242   0.1242   0.1242   0.1242
     0.0000   0.0000

          k =-0.5000-0.5000 0.2867 (   772 PWs)   bands (ev):

     2.6149   2.6149   2.6149   2.6150   9.1640   9.1641   9.1641   9.1641
    18.4799  18.4801

     occupation numbers 
     1.0000   1.0000   1.0000   1.0000   1.0000   1.0000   1.0000   1.0000
     0.0000   0.0000

          k =-0.5000-0.5000 0.3441 (   792 PWs)   bands (ev):

     2.9267   2.9268   2.9268   2.9269   8.3236   8.3236   8.3236   8.3236
    18.7487  18.7489

     occupation numbers 
     1.0000   1.0000   1.0000   1.0000   1.0000   1.0000   1.0000   1.0000
     0.0000   0.0000

          k =-0.5000-0.5000 0.4014 (   800 PWs)   bands (ev):

     3.2920   3.2921   3.2921   3.2922   7.5320   7.5321   7.5321   7.5321
    19.0638  19.0639

     occupation numbers 
     1.0000   1.0000   1.0000   1.0000   1.0000   1.0000   1.0000   1.0000
     0.0000   0.0000

          k =-0.5000-0.5000 0.4587 (   792 PWs)   bands (ev):

     3.7066   3.7066   3.7066   3.7067   6.7962   6.7962   6.7962   6.7962
    19.4206  19.4208

     occupation numbers 
     1.0000   1.0000   1.0000   1.0000   1.0000   1.0000   1.0000   1.0000
     0.0000   0.0000

          k =-0.5000-0.5000 0.5161 (   792 PWs)   bands (ev):

     4.1574   4.1574   4.1574   4.1575   6.1305   6.1305   6.1305   6.1306
    19.8047  19.8051

     occupation numbers 
     1.0000   1.0000   1.0000   1.0000   1.0000   1.0000   1.0000   1.0000
     0.0000   0.0000

          k =-0.5000-0.5000 0.5734 (   800 PWs)   bands (ev):

     4.5759   4.5759   4.5759   4.5760   5.6044   5.6044   5.6044   5.6044
    20.1478  20.1480

     occupation numbers 
     1.0000   1.0000   1.0000   1.0000   1.0000   1.0000   1.0000   1.0000
     0.0000   0.0000

     the Fermi energy is     9.9738 ev

!    total energy              =     -26.75877208 Ry
     Harris-Foulkes estimate   =     -26.75877211 Ry
     estimated scf accuracy    <       0.00000007 Ry

     The total energy is the sum of the following terms:

     one-electron contribution =      13.81479276 Ry
     hartree contribution      =       0.03999231 Ry
     xc contribution           =     -17.60853502 Ry
     ewald contribution        =     -23.00502480 Ry
     smearing contrib. (-TS)   =       0.00000268 Ry

     convergence has been achieved in   5 iterations
 
     init_run     :    129.75s CPU      5.68s WALL (       1 calls)
     electrons    :   1552.11s CPU     66.07s WALL (       1 calls)

     Called by init_run:
     wfcinit      :    129.47s CPU      5.53s WALL (       1 calls)
     wfcinit:atom :      2.57s CPU      0.11s WALL (     605 calls)
     wfcinit:wfcr :    116.15s CPU      4.96s WALL (     605 calls)
     potinit      :      0.04s CPU      0.01s WALL (       1 calls)

     Called by electrons:
     c_bands      :   1335.37s CPU     56.83s WALL (       6 calls)
     sum_band     :    214.82s CPU      9.15s WALL (       6 calls)
     v_of_rho     :      0.67s CPU      0.03s WALL (       6 calls)
     v_h          :      0.03s CPU      0.00s WALL (       6 calls)
     v_xc         :      0.63s CPU      0.03s WALL (       6 calls)
     newd         :      0.61s CPU      0.04s WALL (       6 calls)
     mix_rho      :      0.13s CPU      0.01s WALL (       6 calls)

     Called by c_bands:
     init_us_2    :     42.10s CPU      1.79s WALL (    7865 calls)
     cegterg      :   1219.88s CPU     51.87s WALL (    3630 calls)

     Called by sum_band:
     sum_band:bec :      1.25s CPU      0.05s WALL (    3630 calls)
     addusdens    :      0.60s CPU      0.03s WALL (       6 calls)

     Called by *egterg:
     h_psi        :   1168.86s CPU     49.73s WALL (   12655 calls)
     s_psi        :      9.57s CPU      0.41s WALL (   12655 calls)
     g_psi        :      4.91s CPU      0.22s WALL (    8420 calls)
     cdiaghg      :     60.59s CPU      2.64s WALL (   11445 calls)
     cegterg:over :     14.37s CPU      0.62s WALL (    8420 calls)
     cegterg:upda :     14.88s CPU      0.66s WALL (    8420 calls)
     cegterg:last :      6.29s CPU      0.29s WALL (    3634 calls)

     Called by h_psi:
     h_psi:pot    :   1158.90s CPU     49.29s WALL (   12655 calls)
     h_psi:calbec :     37.46s CPU      1.59s WALL (   12655 calls)
     vloc_psi     :   1096.72s CPU     46.66s WALL (   12655 calls)
     add_vuspsi   :     14.29s CPU      0.64s WALL (   12655 calls)

     General routines
     calbec       :     38.51s CPU      1.72s WALL (   16285 calls)
     fft          :      0.26s CPU      0.03s WALL (      80 calls)
     fftw         :   1044.33s CPU     44.50s WALL (  237486 calls)
 
     Parallel routines
 
     PWSCF        : 28m 2.18s CPU     1m11.83s WALL

 
   This run was terminated on:  17: 3:20  24Jan2019            

=------------------------------------------------------------------------------=
   JOB DONE.
=------------------------------------------------------------------------------=
