
     Program PWSCF v.6.2 (svn rev. 14038) starts on 24Jan2019 at 17:20: 1 

     This program is part of the open-source Quantum ESPRESSO suite
     for quantum simulation of materials; please cite
         "P. Giannozzi et al., J. Phys.:Condens. Matter 21 395502 (2009);
         "P. Giannozzi et al., J. Phys.:Condens. Matter 29 465901 (2017);
          URL http://www.quantum-espresso.org", 
     in publications or presentations arising from this work. More details at
     http://www.quantum-espresso.org/quote

     Parallel version (MPI), running on     1 processors

     MPI processes distributed on     1 nodes
     Reading input from ./AlfccSEPNEG0DOT20040062339867806.in
Warning: card &IONS ignored
Warning: card / ignored
Warning: card &CELL ignored
Warning: card / ignored

     Current dimensions of program PWSCF are:
     Max number of different atomic species (ntypx) = 10
     Max number of k-points (npk) =  40000
     Max angular momentum in pseudopotentials (lmaxx) =  3
     Message from routine iosys:
     minimal I/O required, wf_collect reset to FALSE

     Subspace diagonalization in iterative solution of the eigenvalue problem:
     a serial algorithm will be used

     Found symmetry operation: I + ( -0.5000 -0.5000  0.0000)
     This is a supercell, fractional translations are disabled
 
     G-vector sticks info
     --------------------
     sticks:   dense  smooth     PW     G-vecs:    dense   smooth      PW
     Sum         465     465    149                 6003     6003    1143
 


     bravais-lattice index     =            0
     lattice parameter (alat)  =       7.6325  a.u.
     unit-cell volume          =     355.5233 (a.u.)^3
     number of atoms/cell      =            4
     number of atomic types    =            1
     number of electrons       =        12.00
     number of Kohn-Sham states=           10
     kinetic-energy cutoff     =      25.0000  Ry
     charge density cutoff     =     100.0000  Ry
     convergence threshold     =      1.0E-07
     mixing beta               =       0.7000
     number of iterations used =            8  plain     mixing
     Exchange-correlation      = SLA  PW   PBE  PBE ( 1  4  3  4 0 0)

     celldm(1)=   7.632472  celldm(2)=   0.000000  celldm(3)=   0.000000
     celldm(4)=   0.000000  celldm(5)=   0.000000  celldm(6)=   0.000000

     crystal axes: (cart. coord. in units of alat)
               a(1) = (   1.000000   0.000000   0.000000 )  
               a(2) = (   0.000000   1.000000   0.000000 )  
               a(3) = (   0.000000   0.000000   0.799599 )  

     reciprocal axes: (cart. coord. in units 2 pi/alat)
               b(1) = (  1.000000  0.000000  0.000000 )  
               b(2) = (  0.000000  1.000000  0.000000 )  
               b(3) = (  0.000000  0.000000  1.250626 )  


     PseudoPot. # 1 for Al read from file:
     ./al_pbe_v1.uspp.F.UPF
     MD5 check sum: 0a6289f5291fc8f409219462bc851e1f
     Pseudo is Ultrasoft + core correction, Zval =  3.0
     Generated by new atomic code, or converted to UPF format
     Using radial grid of  893 points,  3 beta functions with: 
                l(1) =   0
                l(2) =   1
                l(3) =   2
     Q(r) pseudized with  8 coefficients,  rinner =    0.900   0.900   0.900
                                                       0.900   0.900

     atomic species   valence    mass     pseudopotential
        Al             3.00    26.98150     Al( 1.00)

     16 Sym. Ops., with inversion, found


                                    s                        frac. trans.

      isym =  1     identity                                     

 cryst.   s( 1) = (     1          0          0      )
                  (     0          1          0      )
                  (     0          0          1      )

 cart.    s( 1) = (  1.0000000  0.0000000  0.0000000 )
                  (  0.0000000  1.0000000  0.0000000 )
                  (  0.0000000  0.0000000  1.0000000 )


      isym =  2     180 deg rotation - cart. axis [0,0,1]        

 cryst.   s( 2) = (    -1          0          0      )
                  (     0         -1          0      )
                  (     0          0          1      )

 cart.    s( 2) = ( -1.0000000  0.0000000  0.0000000 )
                  (  0.0000000 -1.0000000  0.0000000 )
                  (  0.0000000  0.0000000  1.0000000 )


      isym =  3     180 deg rotation - cart. axis [0,1,0]        

 cryst.   s( 3) = (    -1          0          0      )
                  (     0          1          0      )
                  (     0          0         -1      )

 cart.    s( 3) = ( -1.0000000  0.0000000  0.0000000 )
                  (  0.0000000  1.0000000  0.0000000 )
                  (  0.0000000  0.0000000 -1.0000000 )


      isym =  4     180 deg rotation - cart. axis [1,0,0]        

 cryst.   s( 4) = (     1          0          0      )
                  (     0         -1          0      )
                  (     0          0         -1      )

 cart.    s( 4) = (  1.0000000  0.0000000  0.0000000 )
                  (  0.0000000 -1.0000000  0.0000000 )
                  (  0.0000000  0.0000000 -1.0000000 )


      isym =  5     180 deg rotation - cart. axis [1,1,0]        

 cryst.   s( 5) = (     0          1          0      )
                  (     1          0          0      )
                  (     0          0         -1      )

 cart.    s( 5) = (  0.0000000  1.0000000  0.0000000 )
                  (  1.0000000  0.0000000  0.0000000 )
                  (  0.0000000  0.0000000 -1.0000000 )


      isym =  6     180 deg rotation - cart. axis [1,-1,0]       

 cryst.   s( 6) = (     0         -1          0      )
                  (    -1          0          0      )
                  (     0          0         -1      )

 cart.    s( 6) = (  0.0000000 -1.0000000  0.0000000 )
                  ( -1.0000000  0.0000000  0.0000000 )
                  (  0.0000000  0.0000000 -1.0000000 )


      isym =  7      90 deg rotation - cart. axis [0,0,-1]       

 cryst.   s( 7) = (     0         -1          0      )
                  (     1          0          0      )
                  (     0          0          1      )

 cart.    s( 7) = (  0.0000000  1.0000000  0.0000000 )
                  ( -1.0000000  0.0000000  0.0000000 )
                  (  0.0000000  0.0000000  1.0000000 )


      isym =  8      90 deg rotation - cart. axis [0,0,1]        

 cryst.   s( 8) = (     0          1          0      )
                  (    -1          0          0      )
                  (     0          0          1      )

 cart.    s( 8) = (  0.0000000 -1.0000000  0.0000000 )
                  (  1.0000000  0.0000000  0.0000000 )
                  (  0.0000000  0.0000000  1.0000000 )


      isym =  9     inversion                                    

 cryst.   s( 9) = (    -1          0          0      )
                  (     0         -1          0      )
                  (     0          0         -1      )

 cart.    s( 9) = ( -1.0000000  0.0000000  0.0000000 )
                  (  0.0000000 -1.0000000  0.0000000 )
                  (  0.0000000  0.0000000 -1.0000000 )


      isym = 10     inv. 180 deg rotation - cart. axis [0,0,1]   

 cryst.   s(10) = (     1          0          0      )
                  (     0          1          0      )
                  (     0          0         -1      )

 cart.    s(10) = (  1.0000000  0.0000000  0.0000000 )
                  (  0.0000000  1.0000000  0.0000000 )
                  (  0.0000000  0.0000000 -1.0000000 )


      isym = 11     inv. 180 deg rotation - cart. axis [0,1,0]   

 cryst.   s(11) = (     1          0          0      )
                  (     0         -1          0      )
                  (     0          0          1      )

 cart.    s(11) = (  1.0000000  0.0000000  0.0000000 )
                  (  0.0000000 -1.0000000  0.0000000 )
                  (  0.0000000  0.0000000  1.0000000 )


      isym = 12     inv. 180 deg rotation - cart. axis [1,0,0]   

 cryst.   s(12) = (    -1          0          0      )
                  (     0          1          0      )
                  (     0          0          1      )

 cart.    s(12) = ( -1.0000000  0.0000000  0.0000000 )
                  (  0.0000000  1.0000000  0.0000000 )
                  (  0.0000000  0.0000000  1.0000000 )


      isym = 13     inv. 180 deg rotation - cart. axis [1,1,0]   

 cryst.   s(13) = (     0         -1          0      )
                  (    -1          0          0      )
                  (     0          0          1      )

 cart.    s(13) = (  0.0000000 -1.0000000  0.0000000 )
                  ( -1.0000000  0.0000000  0.0000000 )
                  (  0.0000000  0.0000000  1.0000000 )


      isym = 14     inv. 180 deg rotation - cart. axis [1,-1,0]  

 cryst.   s(14) = (     0          1          0      )
                  (     1          0          0      )
                  (     0          0          1      )

 cart.    s(14) = (  0.0000000  1.0000000  0.0000000 )
                  (  1.0000000  0.0000000  0.0000000 )
                  (  0.0000000  0.0000000  1.0000000 )


      isym = 15     inv.  90 deg rotation - cart. axis [0,0,-1]  

 cryst.   s(15) = (     0          1          0      )
                  (    -1          0          0      )
                  (     0          0         -1      )

 cart.    s(15) = (  0.0000000 -1.0000000  0.0000000 )
                  (  1.0000000  0.0000000  0.0000000 )
                  (  0.0000000  0.0000000 -1.0000000 )


      isym = 16     inv.  90 deg rotation - cart. axis [0,0,1]   

 cryst.   s(16) = (     0         -1          0      )
                  (     1          0          0      )
                  (     0          0         -1      )

 cart.    s(16) = (  0.0000000  1.0000000  0.0000000 )
                  ( -1.0000000  0.0000000  0.0000000 )
                  (  0.0000000  0.0000000 -1.0000000 )


   Cartesian axes

     site n.     atom                  positions (alat units)
         1           Al  tau(   1) = (   0.0000000   0.0000000   0.0000000  )
         2           Al  tau(   2) = (   0.5000000   0.5000000   0.0000000  )
         3           Al  tau(   3) = (   0.5000000   0.0000000   0.3997997  )
         4           Al  tau(   4) = (   0.0000000   0.5000000   0.3997997  )

   Crystallographic axes

     site n.     atom                  positions (cryst. coord.)
         1           Al  tau(   1) = (  0.0000000  0.0000000  0.0000000  )
         2           Al  tau(   2) = (  0.5000000  0.5000000  0.0000000  )
         3           Al  tau(   3) = (  0.5000000  0.0000000  0.5000000  )
         4           Al  tau(   4) = (  0.0000000  0.5000000  0.5000000  )

     number of k points=   660  Marzari-Vanderbilt smearing, width (Ry)=  0.0100
                       cart. coord. in units 2pi/alat
        k(    1) = (   0.0000000   0.0000000   0.0000000), wk =   0.0002806
        k(    2) = (   0.0000000   0.0000000   0.0568466), wk =   0.0005612
        k(    3) = (   0.0000000   0.0000000   0.1136933), wk =   0.0005612
        k(    4) = (   0.0000000   0.0000000   0.1705399), wk =   0.0005612
        k(    5) = (   0.0000000   0.0000000   0.2273866), wk =   0.0005612
        k(    6) = (   0.0000000   0.0000000   0.2842332), wk =   0.0005612
        k(    7) = (   0.0000000   0.0000000   0.3410799), wk =   0.0005612
        k(    8) = (   0.0000000   0.0000000   0.3979265), wk =   0.0005612
        k(    9) = (   0.0000000   0.0000000   0.4547732), wk =   0.0005612
        k(   10) = (   0.0000000   0.0000000   0.5116198), wk =   0.0005612
        k(   11) = (   0.0000000   0.0000000   0.5684665), wk =   0.0005612
        k(   12) = (   0.0000000   0.0000000  -0.6253131), wk =   0.0002806
        k(   13) = (   0.0000000   0.0555556   0.0000000), wk =   0.0011223
        k(   14) = (   0.0000000   0.0555556   0.0568466), wk =   0.0022447
        k(   15) = (   0.0000000   0.0555556   0.1136933), wk =   0.0022447
        k(   16) = (   0.0000000   0.0555556   0.1705399), wk =   0.0022447
        k(   17) = (   0.0000000   0.0555556   0.2273866), wk =   0.0022447
        k(   18) = (   0.0000000   0.0555556   0.2842332), wk =   0.0022447
        k(   19) = (   0.0000000   0.0555556   0.3410799), wk =   0.0022447
        k(   20) = (   0.0000000   0.0555556   0.3979265), wk =   0.0022447
        k(   21) = (   0.0000000   0.0555556   0.4547732), wk =   0.0022447
        k(   22) = (   0.0000000   0.0555556   0.5116198), wk =   0.0022447
        k(   23) = (   0.0000000   0.0555556   0.5684665), wk =   0.0022447
        k(   24) = (   0.0000000   0.0555556  -0.6253131), wk =   0.0011223
        k(   25) = (   0.0000000   0.1111111   0.0000000), wk =   0.0011223
        k(   26) = (   0.0000000   0.1111111   0.0568466), wk =   0.0022447
        k(   27) = (   0.0000000   0.1111111   0.1136933), wk =   0.0022447
        k(   28) = (   0.0000000   0.1111111   0.1705399), wk =   0.0022447
        k(   29) = (   0.0000000   0.1111111   0.2273866), wk =   0.0022447
        k(   30) = (   0.0000000   0.1111111   0.2842332), wk =   0.0022447
        k(   31) = (   0.0000000   0.1111111   0.3410799), wk =   0.0022447
        k(   32) = (   0.0000000   0.1111111   0.3979265), wk =   0.0022447
        k(   33) = (   0.0000000   0.1111111   0.4547732), wk =   0.0022447
        k(   34) = (   0.0000000   0.1111111   0.5116198), wk =   0.0022447
        k(   35) = (   0.0000000   0.1111111   0.5684665), wk =   0.0022447
        k(   36) = (   0.0000000   0.1111111  -0.6253131), wk =   0.0011223
        k(   37) = (   0.0000000   0.1666667   0.0000000), wk =   0.0011223
        k(   38) = (   0.0000000   0.1666667   0.0568466), wk =   0.0022447
        k(   39) = (   0.0000000   0.1666667   0.1136933), wk =   0.0022447
        k(   40) = (   0.0000000   0.1666667   0.1705399), wk =   0.0022447
        k(   41) = (   0.0000000   0.1666667   0.2273866), wk =   0.0022447
        k(   42) = (   0.0000000   0.1666667   0.2842332), wk =   0.0022447
        k(   43) = (   0.0000000   0.1666667   0.3410799), wk =   0.0022447
        k(   44) = (   0.0000000   0.1666667   0.3979265), wk =   0.0022447
        k(   45) = (   0.0000000   0.1666667   0.4547732), wk =   0.0022447
        k(   46) = (   0.0000000   0.1666667   0.5116198), wk =   0.0022447
        k(   47) = (   0.0000000   0.1666667   0.5684665), wk =   0.0022447
        k(   48) = (   0.0000000   0.1666667  -0.6253131), wk =   0.0011223
        k(   49) = (   0.0000000   0.2222222   0.0000000), wk =   0.0011223
        k(   50) = (   0.0000000   0.2222222   0.0568466), wk =   0.0022447
        k(   51) = (   0.0000000   0.2222222   0.1136933), wk =   0.0022447
        k(   52) = (   0.0000000   0.2222222   0.1705399), wk =   0.0022447
        k(   53) = (   0.0000000   0.2222222   0.2273866), wk =   0.0022447
        k(   54) = (   0.0000000   0.2222222   0.2842332), wk =   0.0022447
        k(   55) = (   0.0000000   0.2222222   0.3410799), wk =   0.0022447
        k(   56) = (   0.0000000   0.2222222   0.3979265), wk =   0.0022447
        k(   57) = (   0.0000000   0.2222222   0.4547732), wk =   0.0022447
        k(   58) = (   0.0000000   0.2222222   0.5116198), wk =   0.0022447
        k(   59) = (   0.0000000   0.2222222   0.5684665), wk =   0.0022447
        k(   60) = (   0.0000000   0.2222222  -0.6253131), wk =   0.0011223
        k(   61) = (   0.0000000   0.2777778   0.0000000), wk =   0.0011223
        k(   62) = (   0.0000000   0.2777778   0.0568466), wk =   0.0022447
        k(   63) = (   0.0000000   0.2777778   0.1136933), wk =   0.0022447
        k(   64) = (   0.0000000   0.2777778   0.1705399), wk =   0.0022447
        k(   65) = (   0.0000000   0.2777778   0.2273866), wk =   0.0022447
        k(   66) = (   0.0000000   0.2777778   0.2842332), wk =   0.0022447
        k(   67) = (   0.0000000   0.2777778   0.3410799), wk =   0.0022447
        k(   68) = (   0.0000000   0.2777778   0.3979265), wk =   0.0022447
        k(   69) = (   0.0000000   0.2777778   0.4547732), wk =   0.0022447
        k(   70) = (   0.0000000   0.2777778   0.5116198), wk =   0.0022447
        k(   71) = (   0.0000000   0.2777778   0.5684665), wk =   0.0022447
        k(   72) = (   0.0000000   0.2777778  -0.6253131), wk =   0.0011223
        k(   73) = (   0.0000000   0.3333333   0.0000000), wk =   0.0011223
        k(   74) = (   0.0000000   0.3333333   0.0568466), wk =   0.0022447
        k(   75) = (   0.0000000   0.3333333   0.1136933), wk =   0.0022447
        k(   76) = (   0.0000000   0.3333333   0.1705399), wk =   0.0022447
        k(   77) = (   0.0000000   0.3333333   0.2273866), wk =   0.0022447
        k(   78) = (   0.0000000   0.3333333   0.2842332), wk =   0.0022447
        k(   79) = (   0.0000000   0.3333333   0.3410799), wk =   0.0022447
        k(   80) = (   0.0000000   0.3333333   0.3979265), wk =   0.0022447
        k(   81) = (   0.0000000   0.3333333   0.4547732), wk =   0.0022447
        k(   82) = (   0.0000000   0.3333333   0.5116198), wk =   0.0022447
        k(   83) = (   0.0000000   0.3333333   0.5684665), wk =   0.0022447
        k(   84) = (   0.0000000   0.3333333  -0.6253131), wk =   0.0011223
        k(   85) = (   0.0000000   0.3888889   0.0000000), wk =   0.0011223
        k(   86) = (   0.0000000   0.3888889   0.0568466), wk =   0.0022447
        k(   87) = (   0.0000000   0.3888889   0.1136933), wk =   0.0022447
        k(   88) = (   0.0000000   0.3888889   0.1705399), wk =   0.0022447
        k(   89) = (   0.0000000   0.3888889   0.2273866), wk =   0.0022447
        k(   90) = (   0.0000000   0.3888889   0.2842332), wk =   0.0022447
        k(   91) = (   0.0000000   0.3888889   0.3410799), wk =   0.0022447
        k(   92) = (   0.0000000   0.3888889   0.3979265), wk =   0.0022447
        k(   93) = (   0.0000000   0.3888889   0.4547732), wk =   0.0022447
        k(   94) = (   0.0000000   0.3888889   0.5116198), wk =   0.0022447
        k(   95) = (   0.0000000   0.3888889   0.5684665), wk =   0.0022447
        k(   96) = (   0.0000000   0.3888889  -0.6253131), wk =   0.0011223
        k(   97) = (   0.0000000   0.4444444   0.0000000), wk =   0.0011223
        k(   98) = (   0.0000000   0.4444444   0.0568466), wk =   0.0022447
        k(   99) = (   0.0000000   0.4444444   0.1136933), wk =   0.0022447
        k(  100) = (   0.0000000   0.4444444   0.1705399), wk =   0.0022447
        k(  101) = (   0.0000000   0.4444444   0.2273866), wk =   0.0022447
        k(  102) = (   0.0000000   0.4444444   0.2842332), wk =   0.0022447
        k(  103) = (   0.0000000   0.4444444   0.3410799), wk =   0.0022447
        k(  104) = (   0.0000000   0.4444444   0.3979265), wk =   0.0022447
        k(  105) = (   0.0000000   0.4444444   0.4547732), wk =   0.0022447
        k(  106) = (   0.0000000   0.4444444   0.5116198), wk =   0.0022447
        k(  107) = (   0.0000000   0.4444444   0.5684665), wk =   0.0022447
        k(  108) = (   0.0000000   0.4444444  -0.6253131), wk =   0.0011223
        k(  109) = (   0.0000000  -0.5000000   0.0000000), wk =   0.0005612
        k(  110) = (   0.0000000  -0.5000000   0.0568466), wk =   0.0011223
        k(  111) = (   0.0000000  -0.5000000   0.1136933), wk =   0.0011223
        k(  112) = (   0.0000000  -0.5000000   0.1705399), wk =   0.0011223
        k(  113) = (   0.0000000  -0.5000000   0.2273866), wk =   0.0011223
        k(  114) = (   0.0000000  -0.5000000   0.2842332), wk =   0.0011223
        k(  115) = (   0.0000000  -0.5000000   0.3410799), wk =   0.0011223
        k(  116) = (   0.0000000  -0.5000000   0.3979265), wk =   0.0011223
        k(  117) = (   0.0000000  -0.5000000   0.4547732), wk =   0.0011223
        k(  118) = (   0.0000000  -0.5000000   0.5116198), wk =   0.0011223
        k(  119) = (   0.0000000  -0.5000000   0.5684665), wk =   0.0011223
        k(  120) = (   0.0000000  -0.5000000  -0.6253131), wk =   0.0005612
        k(  121) = (   0.0555556   0.0555556   0.0000000), wk =   0.0011223
        k(  122) = (   0.0555556   0.0555556   0.0568466), wk =   0.0022447
        k(  123) = (   0.0555556   0.0555556   0.1136933), wk =   0.0022447
        k(  124) = (   0.0555556   0.0555556   0.1705399), wk =   0.0022447
        k(  125) = (   0.0555556   0.0555556   0.2273866), wk =   0.0022447
        k(  126) = (   0.0555556   0.0555556   0.2842332), wk =   0.0022447
        k(  127) = (   0.0555556   0.0555556   0.3410799), wk =   0.0022447
        k(  128) = (   0.0555556   0.0555556   0.3979265), wk =   0.0022447
        k(  129) = (   0.0555556   0.0555556   0.4547732), wk =   0.0022447
        k(  130) = (   0.0555556   0.0555556   0.5116198), wk =   0.0022447
        k(  131) = (   0.0555556   0.0555556   0.5684665), wk =   0.0022447
        k(  132) = (   0.0555556   0.0555556  -0.6253131), wk =   0.0011223
        k(  133) = (   0.0555556   0.1111111   0.0000000), wk =   0.0022447
        k(  134) = (   0.0555556   0.1111111   0.0568466), wk =   0.0044893
        k(  135) = (   0.0555556   0.1111111   0.1136933), wk =   0.0044893
        k(  136) = (   0.0555556   0.1111111   0.1705399), wk =   0.0044893
        k(  137) = (   0.0555556   0.1111111   0.2273866), wk =   0.0044893
        k(  138) = (   0.0555556   0.1111111   0.2842332), wk =   0.0044893
        k(  139) = (   0.0555556   0.1111111   0.3410799), wk =   0.0044893
        k(  140) = (   0.0555556   0.1111111   0.3979265), wk =   0.0044893
        k(  141) = (   0.0555556   0.1111111   0.4547732), wk =   0.0044893
        k(  142) = (   0.0555556   0.1111111   0.5116198), wk =   0.0044893
        k(  143) = (   0.0555556   0.1111111   0.5684665), wk =   0.0044893
        k(  144) = (   0.0555556   0.1111111  -0.6253131), wk =   0.0022447
        k(  145) = (   0.0555556   0.1666667   0.0000000), wk =   0.0022447
        k(  146) = (   0.0555556   0.1666667   0.0568466), wk =   0.0044893
        k(  147) = (   0.0555556   0.1666667   0.1136933), wk =   0.0044893
        k(  148) = (   0.0555556   0.1666667   0.1705399), wk =   0.0044893
        k(  149) = (   0.0555556   0.1666667   0.2273866), wk =   0.0044893
        k(  150) = (   0.0555556   0.1666667   0.2842332), wk =   0.0044893
        k(  151) = (   0.0555556   0.1666667   0.3410799), wk =   0.0044893
        k(  152) = (   0.0555556   0.1666667   0.3979265), wk =   0.0044893
        k(  153) = (   0.0555556   0.1666667   0.4547732), wk =   0.0044893
        k(  154) = (   0.0555556   0.1666667   0.5116198), wk =   0.0044893
        k(  155) = (   0.0555556   0.1666667   0.5684665), wk =   0.0044893
        k(  156) = (   0.0555556   0.1666667  -0.6253131), wk =   0.0022447
        k(  157) = (   0.0555556   0.2222222   0.0000000), wk =   0.0022447
        k(  158) = (   0.0555556   0.2222222   0.0568466), wk =   0.0044893
        k(  159) = (   0.0555556   0.2222222   0.1136933), wk =   0.0044893
        k(  160) = (   0.0555556   0.2222222   0.1705399), wk =   0.0044893
        k(  161) = (   0.0555556   0.2222222   0.2273866), wk =   0.0044893
        k(  162) = (   0.0555556   0.2222222   0.2842332), wk =   0.0044893
        k(  163) = (   0.0555556   0.2222222   0.3410799), wk =   0.0044893
        k(  164) = (   0.0555556   0.2222222   0.3979265), wk =   0.0044893
        k(  165) = (   0.0555556   0.2222222   0.4547732), wk =   0.0044893
        k(  166) = (   0.0555556   0.2222222   0.5116198), wk =   0.0044893
        k(  167) = (   0.0555556   0.2222222   0.5684665), wk =   0.0044893
        k(  168) = (   0.0555556   0.2222222  -0.6253131), wk =   0.0022447
        k(  169) = (   0.0555556   0.2777778   0.0000000), wk =   0.0022447
        k(  170) = (   0.0555556   0.2777778   0.0568466), wk =   0.0044893
        k(  171) = (   0.0555556   0.2777778   0.1136933), wk =   0.0044893
        k(  172) = (   0.0555556   0.2777778   0.1705399), wk =   0.0044893
        k(  173) = (   0.0555556   0.2777778   0.2273866), wk =   0.0044893
        k(  174) = (   0.0555556   0.2777778   0.2842332), wk =   0.0044893
        k(  175) = (   0.0555556   0.2777778   0.3410799), wk =   0.0044893
        k(  176) = (   0.0555556   0.2777778   0.3979265), wk =   0.0044893
        k(  177) = (   0.0555556   0.2777778   0.4547732), wk =   0.0044893
        k(  178) = (   0.0555556   0.2777778   0.5116198), wk =   0.0044893
        k(  179) = (   0.0555556   0.2777778   0.5684665), wk =   0.0044893
        k(  180) = (   0.0555556   0.2777778  -0.6253131), wk =   0.0022447
        k(  181) = (   0.0555556   0.3333333   0.0000000), wk =   0.0022447
        k(  182) = (   0.0555556   0.3333333   0.0568466), wk =   0.0044893
        k(  183) = (   0.0555556   0.3333333   0.1136933), wk =   0.0044893
        k(  184) = (   0.0555556   0.3333333   0.1705399), wk =   0.0044893
        k(  185) = (   0.0555556   0.3333333   0.2273866), wk =   0.0044893
        k(  186) = (   0.0555556   0.3333333   0.2842332), wk =   0.0044893
        k(  187) = (   0.0555556   0.3333333   0.3410799), wk =   0.0044893
        k(  188) = (   0.0555556   0.3333333   0.3979265), wk =   0.0044893
        k(  189) = (   0.0555556   0.3333333   0.4547732), wk =   0.0044893
        k(  190) = (   0.0555556   0.3333333   0.5116198), wk =   0.0044893
        k(  191) = (   0.0555556   0.3333333   0.5684665), wk =   0.0044893
        k(  192) = (   0.0555556   0.3333333  -0.6253131), wk =   0.0022447
        k(  193) = (   0.0555556   0.3888889   0.0000000), wk =   0.0022447
        k(  194) = (   0.0555556   0.3888889   0.0568466), wk =   0.0044893
        k(  195) = (   0.0555556   0.3888889   0.1136933), wk =   0.0044893
        k(  196) = (   0.0555556   0.3888889   0.1705399), wk =   0.0044893
        k(  197) = (   0.0555556   0.3888889   0.2273866), wk =   0.0044893
        k(  198) = (   0.0555556   0.3888889   0.2842332), wk =   0.0044893
        k(  199) = (   0.0555556   0.3888889   0.3410799), wk =   0.0044893
        k(  200) = (   0.0555556   0.3888889   0.3979265), wk =   0.0044893
        k(  201) = (   0.0555556   0.3888889   0.4547732), wk =   0.0044893
        k(  202) = (   0.0555556   0.3888889   0.5116198), wk =   0.0044893
        k(  203) = (   0.0555556   0.3888889   0.5684665), wk =   0.0044893
        k(  204) = (   0.0555556   0.3888889  -0.6253131), wk =   0.0022447
        k(  205) = (   0.0555556   0.4444444   0.0000000), wk =   0.0022447
        k(  206) = (   0.0555556   0.4444444   0.0568466), wk =   0.0044893
        k(  207) = (   0.0555556   0.4444444   0.1136933), wk =   0.0044893
        k(  208) = (   0.0555556   0.4444444   0.1705399), wk =   0.0044893
        k(  209) = (   0.0555556   0.4444444   0.2273866), wk =   0.0044893
        k(  210) = (   0.0555556   0.4444444   0.2842332), wk =   0.0044893
        k(  211) = (   0.0555556   0.4444444   0.3410799), wk =   0.0044893
        k(  212) = (   0.0555556   0.4444444   0.3979265), wk =   0.0044893
        k(  213) = (   0.0555556   0.4444444   0.4547732), wk =   0.0044893
        k(  214) = (   0.0555556   0.4444444   0.5116198), wk =   0.0044893
        k(  215) = (   0.0555556   0.4444444   0.5684665), wk =   0.0044893
        k(  216) = (   0.0555556   0.4444444  -0.6253131), wk =   0.0022447
        k(  217) = (   0.0555556  -0.5000000   0.0000000), wk =   0.0011223
        k(  218) = (   0.0555556  -0.5000000   0.0568466), wk =   0.0022447
        k(  219) = (   0.0555556  -0.5000000   0.1136933), wk =   0.0022447
        k(  220) = (   0.0555556  -0.5000000   0.1705399), wk =   0.0022447
        k(  221) = (   0.0555556  -0.5000000   0.2273866), wk =   0.0022447
        k(  222) = (   0.0555556  -0.5000000   0.2842332), wk =   0.0022447
        k(  223) = (   0.0555556  -0.5000000   0.3410799), wk =   0.0022447
        k(  224) = (   0.0555556  -0.5000000   0.3979265), wk =   0.0022447
        k(  225) = (   0.0555556  -0.5000000   0.4547732), wk =   0.0022447
        k(  226) = (   0.0555556  -0.5000000   0.5116198), wk =   0.0022447
        k(  227) = (   0.0555556  -0.5000000   0.5684665), wk =   0.0022447
        k(  228) = (   0.0555556  -0.5000000  -0.6253131), wk =   0.0011223
        k(  229) = (   0.1111111   0.1111111   0.0000000), wk =   0.0011223
        k(  230) = (   0.1111111   0.1111111   0.0568466), wk =   0.0022447
        k(  231) = (   0.1111111   0.1111111   0.1136933), wk =   0.0022447
        k(  232) = (   0.1111111   0.1111111   0.1705399), wk =   0.0022447
        k(  233) = (   0.1111111   0.1111111   0.2273866), wk =   0.0022447
        k(  234) = (   0.1111111   0.1111111   0.2842332), wk =   0.0022447
        k(  235) = (   0.1111111   0.1111111   0.3410799), wk =   0.0022447
        k(  236) = (   0.1111111   0.1111111   0.3979265), wk =   0.0022447
        k(  237) = (   0.1111111   0.1111111   0.4547732), wk =   0.0022447
        k(  238) = (   0.1111111   0.1111111   0.5116198), wk =   0.0022447
        k(  239) = (   0.1111111   0.1111111   0.5684665), wk =   0.0022447
        k(  240) = (   0.1111111   0.1111111  -0.6253131), wk =   0.0011223
        k(  241) = (   0.1111111   0.1666667   0.0000000), wk =   0.0022447
        k(  242) = (   0.1111111   0.1666667   0.0568466), wk =   0.0044893
        k(  243) = (   0.1111111   0.1666667   0.1136933), wk =   0.0044893
        k(  244) = (   0.1111111   0.1666667   0.1705399), wk =   0.0044893
        k(  245) = (   0.1111111   0.1666667   0.2273866), wk =   0.0044893
        k(  246) = (   0.1111111   0.1666667   0.2842332), wk =   0.0044893
        k(  247) = (   0.1111111   0.1666667   0.3410799), wk =   0.0044893
        k(  248) = (   0.1111111   0.1666667   0.3979265), wk =   0.0044893
        k(  249) = (   0.1111111   0.1666667   0.4547732), wk =   0.0044893
        k(  250) = (   0.1111111   0.1666667   0.5116198), wk =   0.0044893
        k(  251) = (   0.1111111   0.1666667   0.5684665), wk =   0.0044893
        k(  252) = (   0.1111111   0.1666667  -0.6253131), wk =   0.0022447
        k(  253) = (   0.1111111   0.2222222   0.0000000), wk =   0.0022447
        k(  254) = (   0.1111111   0.2222222   0.0568466), wk =   0.0044893
        k(  255) = (   0.1111111   0.2222222   0.1136933), wk =   0.0044893
        k(  256) = (   0.1111111   0.2222222   0.1705399), wk =   0.0044893
        k(  257) = (   0.1111111   0.2222222   0.2273866), wk =   0.0044893
        k(  258) = (   0.1111111   0.2222222   0.2842332), wk =   0.0044893
        k(  259) = (   0.1111111   0.2222222   0.3410799), wk =   0.0044893
        k(  260) = (   0.1111111   0.2222222   0.3979265), wk =   0.0044893
        k(  261) = (   0.1111111   0.2222222   0.4547732), wk =   0.0044893
        k(  262) = (   0.1111111   0.2222222   0.5116198), wk =   0.0044893
        k(  263) = (   0.1111111   0.2222222   0.5684665), wk =   0.0044893
        k(  264) = (   0.1111111   0.2222222  -0.6253131), wk =   0.0022447
        k(  265) = (   0.1111111   0.2777778   0.0000000), wk =   0.0022447
        k(  266) = (   0.1111111   0.2777778   0.0568466), wk =   0.0044893
        k(  267) = (   0.1111111   0.2777778   0.1136933), wk =   0.0044893
        k(  268) = (   0.1111111   0.2777778   0.1705399), wk =   0.0044893
        k(  269) = (   0.1111111   0.2777778   0.2273866), wk =   0.0044893
        k(  270) = (   0.1111111   0.2777778   0.2842332), wk =   0.0044893
        k(  271) = (   0.1111111   0.2777778   0.3410799), wk =   0.0044893
        k(  272) = (   0.1111111   0.2777778   0.3979265), wk =   0.0044893
        k(  273) = (   0.1111111   0.2777778   0.4547732), wk =   0.0044893
        k(  274) = (   0.1111111   0.2777778   0.5116198), wk =   0.0044893
        k(  275) = (   0.1111111   0.2777778   0.5684665), wk =   0.0044893
        k(  276) = (   0.1111111   0.2777778  -0.6253131), wk =   0.0022447
        k(  277) = (   0.1111111   0.3333333   0.0000000), wk =   0.0022447
        k(  278) = (   0.1111111   0.3333333   0.0568466), wk =   0.0044893
        k(  279) = (   0.1111111   0.3333333   0.1136933), wk =   0.0044893
        k(  280) = (   0.1111111   0.3333333   0.1705399), wk =   0.0044893
        k(  281) = (   0.1111111   0.3333333   0.2273866), wk =   0.0044893
        k(  282) = (   0.1111111   0.3333333   0.2842332), wk =   0.0044893
        k(  283) = (   0.1111111   0.3333333   0.3410799), wk =   0.0044893
        k(  284) = (   0.1111111   0.3333333   0.3979265), wk =   0.0044893
        k(  285) = (   0.1111111   0.3333333   0.4547732), wk =   0.0044893
        k(  286) = (   0.1111111   0.3333333   0.5116198), wk =   0.0044893
        k(  287) = (   0.1111111   0.3333333   0.5684665), wk =   0.0044893
        k(  288) = (   0.1111111   0.3333333  -0.6253131), wk =   0.0022447
        k(  289) = (   0.1111111   0.3888889   0.0000000), wk =   0.0022447
        k(  290) = (   0.1111111   0.3888889   0.0568466), wk =   0.0044893
        k(  291) = (   0.1111111   0.3888889   0.1136933), wk =   0.0044893
        k(  292) = (   0.1111111   0.3888889   0.1705399), wk =   0.0044893
        k(  293) = (   0.1111111   0.3888889   0.2273866), wk =   0.0044893
        k(  294) = (   0.1111111   0.3888889   0.2842332), wk =   0.0044893
        k(  295) = (   0.1111111   0.3888889   0.3410799), wk =   0.0044893
        k(  296) = (   0.1111111   0.3888889   0.3979265), wk =   0.0044893
        k(  297) = (   0.1111111   0.3888889   0.4547732), wk =   0.0044893
        k(  298) = (   0.1111111   0.3888889   0.5116198), wk =   0.0044893
        k(  299) = (   0.1111111   0.3888889   0.5684665), wk =   0.0044893
        k(  300) = (   0.1111111   0.3888889  -0.6253131), wk =   0.0022447
        k(  301) = (   0.1111111   0.4444444   0.0000000), wk =   0.0022447
        k(  302) = (   0.1111111   0.4444444   0.0568466), wk =   0.0044893
        k(  303) = (   0.1111111   0.4444444   0.1136933), wk =   0.0044893
        k(  304) = (   0.1111111   0.4444444   0.1705399), wk =   0.0044893
        k(  305) = (   0.1111111   0.4444444   0.2273866), wk =   0.0044893
        k(  306) = (   0.1111111   0.4444444   0.2842332), wk =   0.0044893
        k(  307) = (   0.1111111   0.4444444   0.3410799), wk =   0.0044893
        k(  308) = (   0.1111111   0.4444444   0.3979265), wk =   0.0044893
        k(  309) = (   0.1111111   0.4444444   0.4547732), wk =   0.0044893
        k(  310) = (   0.1111111   0.4444444   0.5116198), wk =   0.0044893
        k(  311) = (   0.1111111   0.4444444   0.5684665), wk =   0.0044893
        k(  312) = (   0.1111111   0.4444444  -0.6253131), wk =   0.0022447
        k(  313) = (   0.1111111  -0.5000000   0.0000000), wk =   0.0011223
        k(  314) = (   0.1111111  -0.5000000   0.0568466), wk =   0.0022447
        k(  315) = (   0.1111111  -0.5000000   0.1136933), wk =   0.0022447
        k(  316) = (   0.1111111  -0.5000000   0.1705399), wk =   0.0022447
        k(  317) = (   0.1111111  -0.5000000   0.2273866), wk =   0.0022447
        k(  318) = (   0.1111111  -0.5000000   0.2842332), wk =   0.0022447
        k(  319) = (   0.1111111  -0.5000000   0.3410799), wk =   0.0022447
        k(  320) = (   0.1111111  -0.5000000   0.3979265), wk =   0.0022447
        k(  321) = (   0.1111111  -0.5000000   0.4547732), wk =   0.0022447
        k(  322) = (   0.1111111  -0.5000000   0.5116198), wk =   0.0022447
        k(  323) = (   0.1111111  -0.5000000   0.5684665), wk =   0.0022447
        k(  324) = (   0.1111111  -0.5000000  -0.6253131), wk =   0.0011223
        k(  325) = (   0.1666667   0.1666667   0.0000000), wk =   0.0011223
        k(  326) = (   0.1666667   0.1666667   0.0568466), wk =   0.0022447
        k(  327) = (   0.1666667   0.1666667   0.1136933), wk =   0.0022447
        k(  328) = (   0.1666667   0.1666667   0.1705399), wk =   0.0022447
        k(  329) = (   0.1666667   0.1666667   0.2273866), wk =   0.0022447
        k(  330) = (   0.1666667   0.1666667   0.2842332), wk =   0.0022447
        k(  331) = (   0.1666667   0.1666667   0.3410799), wk =   0.0022447
        k(  332) = (   0.1666667   0.1666667   0.3979265), wk =   0.0022447
        k(  333) = (   0.1666667   0.1666667   0.4547732), wk =   0.0022447
        k(  334) = (   0.1666667   0.1666667   0.5116198), wk =   0.0022447
        k(  335) = (   0.1666667   0.1666667   0.5684665), wk =   0.0022447
        k(  336) = (   0.1666667   0.1666667  -0.6253131), wk =   0.0011223
        k(  337) = (   0.1666667   0.2222222   0.0000000), wk =   0.0022447
        k(  338) = (   0.1666667   0.2222222   0.0568466), wk =   0.0044893
        k(  339) = (   0.1666667   0.2222222   0.1136933), wk =   0.0044893
        k(  340) = (   0.1666667   0.2222222   0.1705399), wk =   0.0044893
        k(  341) = (   0.1666667   0.2222222   0.2273866), wk =   0.0044893
        k(  342) = (   0.1666667   0.2222222   0.2842332), wk =   0.0044893
        k(  343) = (   0.1666667   0.2222222   0.3410799), wk =   0.0044893
        k(  344) = (   0.1666667   0.2222222   0.3979265), wk =   0.0044893
        k(  345) = (   0.1666667   0.2222222   0.4547732), wk =   0.0044893
        k(  346) = (   0.1666667   0.2222222   0.5116198), wk =   0.0044893
        k(  347) = (   0.1666667   0.2222222   0.5684665), wk =   0.0044893
        k(  348) = (   0.1666667   0.2222222  -0.6253131), wk =   0.0022447
        k(  349) = (   0.1666667   0.2777778   0.0000000), wk =   0.0022447
        k(  350) = (   0.1666667   0.2777778   0.0568466), wk =   0.0044893
        k(  351) = (   0.1666667   0.2777778   0.1136933), wk =   0.0044893
        k(  352) = (   0.1666667   0.2777778   0.1705399), wk =   0.0044893
        k(  353) = (   0.1666667   0.2777778   0.2273866), wk =   0.0044893
        k(  354) = (   0.1666667   0.2777778   0.2842332), wk =   0.0044893
        k(  355) = (   0.1666667   0.2777778   0.3410799), wk =   0.0044893
        k(  356) = (   0.1666667   0.2777778   0.3979265), wk =   0.0044893
        k(  357) = (   0.1666667   0.2777778   0.4547732), wk =   0.0044893
        k(  358) = (   0.1666667   0.2777778   0.5116198), wk =   0.0044893
        k(  359) = (   0.1666667   0.2777778   0.5684665), wk =   0.0044893
        k(  360) = (   0.1666667   0.2777778  -0.6253131), wk =   0.0022447
        k(  361) = (   0.1666667   0.3333333   0.0000000), wk =   0.0022447
        k(  362) = (   0.1666667   0.3333333   0.0568466), wk =   0.0044893
        k(  363) = (   0.1666667   0.3333333   0.1136933), wk =   0.0044893
        k(  364) = (   0.1666667   0.3333333   0.1705399), wk =   0.0044893
        k(  365) = (   0.1666667   0.3333333   0.2273866), wk =   0.0044893
        k(  366) = (   0.1666667   0.3333333   0.2842332), wk =   0.0044893
        k(  367) = (   0.1666667   0.3333333   0.3410799), wk =   0.0044893
        k(  368) = (   0.1666667   0.3333333   0.3979265), wk =   0.0044893
        k(  369) = (   0.1666667   0.3333333   0.4547732), wk =   0.0044893
        k(  370) = (   0.1666667   0.3333333   0.5116198), wk =   0.0044893
        k(  371) = (   0.1666667   0.3333333   0.5684665), wk =   0.0044893
        k(  372) = (   0.1666667   0.3333333  -0.6253131), wk =   0.0022447
        k(  373) = (   0.1666667   0.3888889   0.0000000), wk =   0.0022447
        k(  374) = (   0.1666667   0.3888889   0.0568466), wk =   0.0044893
        k(  375) = (   0.1666667   0.3888889   0.1136933), wk =   0.0044893
        k(  376) = (   0.1666667   0.3888889   0.1705399), wk =   0.0044893
        k(  377) = (   0.1666667   0.3888889   0.2273866), wk =   0.0044893
        k(  378) = (   0.1666667   0.3888889   0.2842332), wk =   0.0044893
        k(  379) = (   0.1666667   0.3888889   0.3410799), wk =   0.0044893
        k(  380) = (   0.1666667   0.3888889   0.3979265), wk =   0.0044893
        k(  381) = (   0.1666667   0.3888889   0.4547732), wk =   0.0044893
        k(  382) = (   0.1666667   0.3888889   0.5116198), wk =   0.0044893
        k(  383) = (   0.1666667   0.3888889   0.5684665), wk =   0.0044893
        k(  384) = (   0.1666667   0.3888889  -0.6253131), wk =   0.0022447
        k(  385) = (   0.1666667   0.4444444   0.0000000), wk =   0.0022447
        k(  386) = (   0.1666667   0.4444444   0.0568466), wk =   0.0044893
        k(  387) = (   0.1666667   0.4444444   0.1136933), wk =   0.0044893
        k(  388) = (   0.1666667   0.4444444   0.1705399), wk =   0.0044893
        k(  389) = (   0.1666667   0.4444444   0.2273866), wk =   0.0044893
        k(  390) = (   0.1666667   0.4444444   0.2842332), wk =   0.0044893
        k(  391) = (   0.1666667   0.4444444   0.3410799), wk =   0.0044893
        k(  392) = (   0.1666667   0.4444444   0.3979265), wk =   0.0044893
        k(  393) = (   0.1666667   0.4444444   0.4547732), wk =   0.0044893
        k(  394) = (   0.1666667   0.4444444   0.5116198), wk =   0.0044893
        k(  395) = (   0.1666667   0.4444444   0.5684665), wk =   0.0044893
        k(  396) = (   0.1666667   0.4444444  -0.6253131), wk =   0.0022447
        k(  397) = (   0.1666667  -0.5000000   0.0000000), wk =   0.0011223
        k(  398) = (   0.1666667  -0.5000000   0.0568466), wk =   0.0022447
        k(  399) = (   0.1666667  -0.5000000   0.1136933), wk =   0.0022447
        k(  400) = (   0.1666667  -0.5000000   0.1705399), wk =   0.0022447
        k(  401) = (   0.1666667  -0.5000000   0.2273866), wk =   0.0022447
        k(  402) = (   0.1666667  -0.5000000   0.2842332), wk =   0.0022447
        k(  403) = (   0.1666667  -0.5000000   0.3410799), wk =   0.0022447
        k(  404) = (   0.1666667  -0.5000000   0.3979265), wk =   0.0022447
        k(  405) = (   0.1666667  -0.5000000   0.4547732), wk =   0.0022447
        k(  406) = (   0.1666667  -0.5000000   0.5116198), wk =   0.0022447
        k(  407) = (   0.1666667  -0.5000000   0.5684665), wk =   0.0022447
        k(  408) = (   0.1666667  -0.5000000  -0.6253131), wk =   0.0011223
        k(  409) = (   0.2222222   0.2222222   0.0000000), wk =   0.0011223
        k(  410) = (   0.2222222   0.2222222   0.0568466), wk =   0.0022447
        k(  411) = (   0.2222222   0.2222222   0.1136933), wk =   0.0022447
        k(  412) = (   0.2222222   0.2222222   0.1705399), wk =   0.0022447
        k(  413) = (   0.2222222   0.2222222   0.2273866), wk =   0.0022447
        k(  414) = (   0.2222222   0.2222222   0.2842332), wk =   0.0022447
        k(  415) = (   0.2222222   0.2222222   0.3410799), wk =   0.0022447
        k(  416) = (   0.2222222   0.2222222   0.3979265), wk =   0.0022447
        k(  417) = (   0.2222222   0.2222222   0.4547732), wk =   0.0022447
        k(  418) = (   0.2222222   0.2222222   0.5116198), wk =   0.0022447
        k(  419) = (   0.2222222   0.2222222   0.5684665), wk =   0.0022447
        k(  420) = (   0.2222222   0.2222222  -0.6253131), wk =   0.0011223
        k(  421) = (   0.2222222   0.2777778   0.0000000), wk =   0.0022447
        k(  422) = (   0.2222222   0.2777778   0.0568466), wk =   0.0044893
        k(  423) = (   0.2222222   0.2777778   0.1136933), wk =   0.0044893
        k(  424) = (   0.2222222   0.2777778   0.1705399), wk =   0.0044893
        k(  425) = (   0.2222222   0.2777778   0.2273866), wk =   0.0044893
        k(  426) = (   0.2222222   0.2777778   0.2842332), wk =   0.0044893
        k(  427) = (   0.2222222   0.2777778   0.3410799), wk =   0.0044893
        k(  428) = (   0.2222222   0.2777778   0.3979265), wk =   0.0044893
        k(  429) = (   0.2222222   0.2777778   0.4547732), wk =   0.0044893
        k(  430) = (   0.2222222   0.2777778   0.5116198), wk =   0.0044893
        k(  431) = (   0.2222222   0.2777778   0.5684665), wk =   0.0044893
        k(  432) = (   0.2222222   0.2777778  -0.6253131), wk =   0.0022447
        k(  433) = (   0.2222222   0.3333333   0.0000000), wk =   0.0022447
        k(  434) = (   0.2222222   0.3333333   0.0568466), wk =   0.0044893
        k(  435) = (   0.2222222   0.3333333   0.1136933), wk =   0.0044893
        k(  436) = (   0.2222222   0.3333333   0.1705399), wk =   0.0044893
        k(  437) = (   0.2222222   0.3333333   0.2273866), wk =   0.0044893
        k(  438) = (   0.2222222   0.3333333   0.2842332), wk =   0.0044893
        k(  439) = (   0.2222222   0.3333333   0.3410799), wk =   0.0044893
        k(  440) = (   0.2222222   0.3333333   0.3979265), wk =   0.0044893
        k(  441) = (   0.2222222   0.3333333   0.4547732), wk =   0.0044893
        k(  442) = (   0.2222222   0.3333333   0.5116198), wk =   0.0044893
        k(  443) = (   0.2222222   0.3333333   0.5684665), wk =   0.0044893
        k(  444) = (   0.2222222   0.3333333  -0.6253131), wk =   0.0022447
        k(  445) = (   0.2222222   0.3888889   0.0000000), wk =   0.0022447
        k(  446) = (   0.2222222   0.3888889   0.0568466), wk =   0.0044893
        k(  447) = (   0.2222222   0.3888889   0.1136933), wk =   0.0044893
        k(  448) = (   0.2222222   0.3888889   0.1705399), wk =   0.0044893
        k(  449) = (   0.2222222   0.3888889   0.2273866), wk =   0.0044893
        k(  450) = (   0.2222222   0.3888889   0.2842332), wk =   0.0044893
        k(  451) = (   0.2222222   0.3888889   0.3410799), wk =   0.0044893
        k(  452) = (   0.2222222   0.3888889   0.3979265), wk =   0.0044893
        k(  453) = (   0.2222222   0.3888889   0.4547732), wk =   0.0044893
        k(  454) = (   0.2222222   0.3888889   0.5116198), wk =   0.0044893
        k(  455) = (   0.2222222   0.3888889   0.5684665), wk =   0.0044893
        k(  456) = (   0.2222222   0.3888889  -0.6253131), wk =   0.0022447
        k(  457) = (   0.2222222   0.4444444   0.0000000), wk =   0.0022447
        k(  458) = (   0.2222222   0.4444444   0.0568466), wk =   0.0044893
        k(  459) = (   0.2222222   0.4444444   0.1136933), wk =   0.0044893
        k(  460) = (   0.2222222   0.4444444   0.1705399), wk =   0.0044893
        k(  461) = (   0.2222222   0.4444444   0.2273866), wk =   0.0044893
        k(  462) = (   0.2222222   0.4444444   0.2842332), wk =   0.0044893
        k(  463) = (   0.2222222   0.4444444   0.3410799), wk =   0.0044893
        k(  464) = (   0.2222222   0.4444444   0.3979265), wk =   0.0044893
        k(  465) = (   0.2222222   0.4444444   0.4547732), wk =   0.0044893
        k(  466) = (   0.2222222   0.4444444   0.5116198), wk =   0.0044893
        k(  467) = (   0.2222222   0.4444444   0.5684665), wk =   0.0044893
        k(  468) = (   0.2222222   0.4444444  -0.6253131), wk =   0.0022447
        k(  469) = (   0.2222222  -0.5000000   0.0000000), wk =   0.0011223
        k(  470) = (   0.2222222  -0.5000000   0.0568466), wk =   0.0022447
        k(  471) = (   0.2222222  -0.5000000   0.1136933), wk =   0.0022447
        k(  472) = (   0.2222222  -0.5000000   0.1705399), wk =   0.0022447
        k(  473) = (   0.2222222  -0.5000000   0.2273866), wk =   0.0022447
        k(  474) = (   0.2222222  -0.5000000   0.2842332), wk =   0.0022447
        k(  475) = (   0.2222222  -0.5000000   0.3410799), wk =   0.0022447
        k(  476) = (   0.2222222  -0.5000000   0.3979265), wk =   0.0022447
        k(  477) = (   0.2222222  -0.5000000   0.4547732), wk =   0.0022447
        k(  478) = (   0.2222222  -0.5000000   0.5116198), wk =   0.0022447
        k(  479) = (   0.2222222  -0.5000000   0.5684665), wk =   0.0022447
        k(  480) = (   0.2222222  -0.5000000  -0.6253131), wk =   0.0011223
        k(  481) = (   0.2777778   0.2777778   0.0000000), wk =   0.0011223
        k(  482) = (   0.2777778   0.2777778   0.0568466), wk =   0.0022447
        k(  483) = (   0.2777778   0.2777778   0.1136933), wk =   0.0022447
        k(  484) = (   0.2777778   0.2777778   0.1705399), wk =   0.0022447
        k(  485) = (   0.2777778   0.2777778   0.2273866), wk =   0.0022447
        k(  486) = (   0.2777778   0.2777778   0.2842332), wk =   0.0022447
        k(  487) = (   0.2777778   0.2777778   0.3410799), wk =   0.0022447
        k(  488) = (   0.2777778   0.2777778   0.3979265), wk =   0.0022447
        k(  489) = (   0.2777778   0.2777778   0.4547732), wk =   0.0022447
        k(  490) = (   0.2777778   0.2777778   0.5116198), wk =   0.0022447
        k(  491) = (   0.2777778   0.2777778   0.5684665), wk =   0.0022447
        k(  492) = (   0.2777778   0.2777778  -0.6253131), wk =   0.0011223
        k(  493) = (   0.2777778   0.3333333   0.0000000), wk =   0.0022447
        k(  494) = (   0.2777778   0.3333333   0.0568466), wk =   0.0044893
        k(  495) = (   0.2777778   0.3333333   0.1136933), wk =   0.0044893
        k(  496) = (   0.2777778   0.3333333   0.1705399), wk =   0.0044893
        k(  497) = (   0.2777778   0.3333333   0.2273866), wk =   0.0044893
        k(  498) = (   0.2777778   0.3333333   0.2842332), wk =   0.0044893
        k(  499) = (   0.2777778   0.3333333   0.3410799), wk =   0.0044893
        k(  500) = (   0.2777778   0.3333333   0.3979265), wk =   0.0044893
        k(  501) = (   0.2777778   0.3333333   0.4547732), wk =   0.0044893
        k(  502) = (   0.2777778   0.3333333   0.5116198), wk =   0.0044893
        k(  503) = (   0.2777778   0.3333333   0.5684665), wk =   0.0044893
        k(  504) = (   0.2777778   0.3333333  -0.6253131), wk =   0.0022447
        k(  505) = (   0.2777778   0.3888889   0.0000000), wk =   0.0022447
        k(  506) = (   0.2777778   0.3888889   0.0568466), wk =   0.0044893
        k(  507) = (   0.2777778   0.3888889   0.1136933), wk =   0.0044893
        k(  508) = (   0.2777778   0.3888889   0.1705399), wk =   0.0044893
        k(  509) = (   0.2777778   0.3888889   0.2273866), wk =   0.0044893
        k(  510) = (   0.2777778   0.3888889   0.2842332), wk =   0.0044893
        k(  511) = (   0.2777778   0.3888889   0.3410799), wk =   0.0044893
        k(  512) = (   0.2777778   0.3888889   0.3979265), wk =   0.0044893
        k(  513) = (   0.2777778   0.3888889   0.4547732), wk =   0.0044893
        k(  514) = (   0.2777778   0.3888889   0.5116198), wk =   0.0044893
        k(  515) = (   0.2777778   0.3888889   0.5684665), wk =   0.0044893
        k(  516) = (   0.2777778   0.3888889  -0.6253131), wk =   0.0022447
        k(  517) = (   0.2777778   0.4444444   0.0000000), wk =   0.0022447
        k(  518) = (   0.2777778   0.4444444   0.0568466), wk =   0.0044893
        k(  519) = (   0.2777778   0.4444444   0.1136933), wk =   0.0044893
        k(  520) = (   0.2777778   0.4444444   0.1705399), wk =   0.0044893
        k(  521) = (   0.2777778   0.4444444   0.2273866), wk =   0.0044893
        k(  522) = (   0.2777778   0.4444444   0.2842332), wk =   0.0044893
        k(  523) = (   0.2777778   0.4444444   0.3410799), wk =   0.0044893
        k(  524) = (   0.2777778   0.4444444   0.3979265), wk =   0.0044893
        k(  525) = (   0.2777778   0.4444444   0.4547732), wk =   0.0044893
        k(  526) = (   0.2777778   0.4444444   0.5116198), wk =   0.0044893
        k(  527) = (   0.2777778   0.4444444   0.5684665), wk =   0.0044893
        k(  528) = (   0.2777778   0.4444444  -0.6253131), wk =   0.0022447
        k(  529) = (   0.2777778  -0.5000000   0.0000000), wk =   0.0011223
        k(  530) = (   0.2777778  -0.5000000   0.0568466), wk =   0.0022447
        k(  531) = (   0.2777778  -0.5000000   0.1136933), wk =   0.0022447
        k(  532) = (   0.2777778  -0.5000000   0.1705399), wk =   0.0022447
        k(  533) = (   0.2777778  -0.5000000   0.2273866), wk =   0.0022447
        k(  534) = (   0.2777778  -0.5000000   0.2842332), wk =   0.0022447
        k(  535) = (   0.2777778  -0.5000000   0.3410799), wk =   0.0022447
        k(  536) = (   0.2777778  -0.5000000   0.3979265), wk =   0.0022447
        k(  537) = (   0.2777778  -0.5000000   0.4547732), wk =   0.0022447
        k(  538) = (   0.2777778  -0.5000000   0.5116198), wk =   0.0022447
        k(  539) = (   0.2777778  -0.5000000   0.5684665), wk =   0.0022447
        k(  540) = (   0.2777778  -0.5000000  -0.6253131), wk =   0.0011223
        k(  541) = (   0.3333333   0.3333333   0.0000000), wk =   0.0011223
        k(  542) = (   0.3333333   0.3333333   0.0568466), wk =   0.0022447
        k(  543) = (   0.3333333   0.3333333   0.1136933), wk =   0.0022447
        k(  544) = (   0.3333333   0.3333333   0.1705399), wk =   0.0022447
        k(  545) = (   0.3333333   0.3333333   0.2273866), wk =   0.0022447
        k(  546) = (   0.3333333   0.3333333   0.2842332), wk =   0.0022447
        k(  547) = (   0.3333333   0.3333333   0.3410799), wk =   0.0022447
        k(  548) = (   0.3333333   0.3333333   0.3979265), wk =   0.0022447
        k(  549) = (   0.3333333   0.3333333   0.4547732), wk =   0.0022447
        k(  550) = (   0.3333333   0.3333333   0.5116198), wk =   0.0022447
        k(  551) = (   0.3333333   0.3333333   0.5684665), wk =   0.0022447
        k(  552) = (   0.3333333   0.3333333  -0.6253131), wk =   0.0011223
        k(  553) = (   0.3333333   0.3888889   0.0000000), wk =   0.0022447
        k(  554) = (   0.3333333   0.3888889   0.0568466), wk =   0.0044893
        k(  555) = (   0.3333333   0.3888889   0.1136933), wk =   0.0044893
        k(  556) = (   0.3333333   0.3888889   0.1705399), wk =   0.0044893
        k(  557) = (   0.3333333   0.3888889   0.2273866), wk =   0.0044893
        k(  558) = (   0.3333333   0.3888889   0.2842332), wk =   0.0044893
        k(  559) = (   0.3333333   0.3888889   0.3410799), wk =   0.0044893
        k(  560) = (   0.3333333   0.3888889   0.3979265), wk =   0.0044893
        k(  561) = (   0.3333333   0.3888889   0.4547732), wk =   0.0044893
        k(  562) = (   0.3333333   0.3888889   0.5116198), wk =   0.0044893
        k(  563) = (   0.3333333   0.3888889   0.5684665), wk =   0.0044893
        k(  564) = (   0.3333333   0.3888889  -0.6253131), wk =   0.0022447
        k(  565) = (   0.3333333   0.4444444   0.0000000), wk =   0.0022447
        k(  566) = (   0.3333333   0.4444444   0.0568466), wk =   0.0044893
        k(  567) = (   0.3333333   0.4444444   0.1136933), wk =   0.0044893
        k(  568) = (   0.3333333   0.4444444   0.1705399), wk =   0.0044893
        k(  569) = (   0.3333333   0.4444444   0.2273866), wk =   0.0044893
        k(  570) = (   0.3333333   0.4444444   0.2842332), wk =   0.0044893
        k(  571) = (   0.3333333   0.4444444   0.3410799), wk =   0.0044893
        k(  572) = (   0.3333333   0.4444444   0.3979265), wk =   0.0044893
        k(  573) = (   0.3333333   0.4444444   0.4547732), wk =   0.0044893
        k(  574) = (   0.3333333   0.4444444   0.5116198), wk =   0.0044893
        k(  575) = (   0.3333333   0.4444444   0.5684665), wk =   0.0044893
        k(  576) = (   0.3333333   0.4444444  -0.6253131), wk =   0.0022447
        k(  577) = (   0.3333333  -0.5000000   0.0000000), wk =   0.0011223
        k(  578) = (   0.3333333  -0.5000000   0.0568466), wk =   0.0022447
        k(  579) = (   0.3333333  -0.5000000   0.1136933), wk =   0.0022447
        k(  580) = (   0.3333333  -0.5000000   0.1705399), wk =   0.0022447
        k(  581) = (   0.3333333  -0.5000000   0.2273866), wk =   0.0022447
        k(  582) = (   0.3333333  -0.5000000   0.2842332), wk =   0.0022447
        k(  583) = (   0.3333333  -0.5000000   0.3410799), wk =   0.0022447
        k(  584) = (   0.3333333  -0.5000000   0.3979265), wk =   0.0022447
        k(  585) = (   0.3333333  -0.5000000   0.4547732), wk =   0.0022447
        k(  586) = (   0.3333333  -0.5000000   0.5116198), wk =   0.0022447
        k(  587) = (   0.3333333  -0.5000000   0.5684665), wk =   0.0022447
        k(  588) = (   0.3333333  -0.5000000  -0.6253131), wk =   0.0011223
        k(  589) = (   0.3888889   0.3888889   0.0000000), wk =   0.0011223
        k(  590) = (   0.3888889   0.3888889   0.0568466), wk =   0.0022447
        k(  591) = (   0.3888889   0.3888889   0.1136933), wk =   0.0022447
        k(  592) = (   0.3888889   0.3888889   0.1705399), wk =   0.0022447
        k(  593) = (   0.3888889   0.3888889   0.2273866), wk =   0.0022447
        k(  594) = (   0.3888889   0.3888889   0.2842332), wk =   0.0022447
        k(  595) = (   0.3888889   0.3888889   0.3410799), wk =   0.0022447
        k(  596) = (   0.3888889   0.3888889   0.3979265), wk =   0.0022447
        k(  597) = (   0.3888889   0.3888889   0.4547732), wk =   0.0022447
        k(  598) = (   0.3888889   0.3888889   0.5116198), wk =   0.0022447
        k(  599) = (   0.3888889   0.3888889   0.5684665), wk =   0.0022447
        k(  600) = (   0.3888889   0.3888889  -0.6253131), wk =   0.0011223
        k(  601) = (   0.3888889   0.4444444   0.0000000), wk =   0.0022447
        k(  602) = (   0.3888889   0.4444444   0.0568466), wk =   0.0044893
        k(  603) = (   0.3888889   0.4444444   0.1136933), wk =   0.0044893
        k(  604) = (   0.3888889   0.4444444   0.1705399), wk =   0.0044893
        k(  605) = (   0.3888889   0.4444444   0.2273866), wk =   0.0044893
        k(  606) = (   0.3888889   0.4444444   0.2842332), wk =   0.0044893
        k(  607) = (   0.3888889   0.4444444   0.3410799), wk =   0.0044893
        k(  608) = (   0.3888889   0.4444444   0.3979265), wk =   0.0044893
        k(  609) = (   0.3888889   0.4444444   0.4547732), wk =   0.0044893
        k(  610) = (   0.3888889   0.4444444   0.5116198), wk =   0.0044893
        k(  611) = (   0.3888889   0.4444444   0.5684665), wk =   0.0044893
        k(  612) = (   0.3888889   0.4444444  -0.6253131), wk =   0.0022447
        k(  613) = (   0.3888889  -0.5000000   0.0000000), wk =   0.0011223
        k(  614) = (   0.3888889  -0.5000000   0.0568466), wk =   0.0022447
        k(  615) = (   0.3888889  -0.5000000   0.1136933), wk =   0.0022447
        k(  616) = (   0.3888889  -0.5000000   0.1705399), wk =   0.0022447
        k(  617) = (   0.3888889  -0.5000000   0.2273866), wk =   0.0022447
        k(  618) = (   0.3888889  -0.5000000   0.2842332), wk =   0.0022447
        k(  619) = (   0.3888889  -0.5000000   0.3410799), wk =   0.0022447
        k(  620) = (   0.3888889  -0.5000000   0.3979265), wk =   0.0022447
        k(  621) = (   0.3888889  -0.5000000   0.4547732), wk =   0.0022447
        k(  622) = (   0.3888889  -0.5000000   0.5116198), wk =   0.0022447
        k(  623) = (   0.3888889  -0.5000000   0.5684665), wk =   0.0022447
        k(  624) = (   0.3888889  -0.5000000  -0.6253131), wk =   0.0011223
        k(  625) = (   0.4444444   0.4444444   0.0000000), wk =   0.0011223
        k(  626) = (   0.4444444   0.4444444   0.0568466), wk =   0.0022447
        k(  627) = (   0.4444444   0.4444444   0.1136933), wk =   0.0022447
        k(  628) = (   0.4444444   0.4444444   0.1705399), wk =   0.0022447
        k(  629) = (   0.4444444   0.4444444   0.2273866), wk =   0.0022447
        k(  630) = (   0.4444444   0.4444444   0.2842332), wk =   0.0022447
        k(  631) = (   0.4444444   0.4444444   0.3410799), wk =   0.0022447
        k(  632) = (   0.4444444   0.4444444   0.3979265), wk =   0.0022447
        k(  633) = (   0.4444444   0.4444444   0.4547732), wk =   0.0022447
        k(  634) = (   0.4444444   0.4444444   0.5116198), wk =   0.0022447
        k(  635) = (   0.4444444   0.4444444   0.5684665), wk =   0.0022447
        k(  636) = (   0.4444444   0.4444444  -0.6253131), wk =   0.0011223
        k(  637) = (   0.4444444  -0.5000000   0.0000000), wk =   0.0011223
        k(  638) = (   0.4444444  -0.5000000   0.0568466), wk =   0.0022447
        k(  639) = (   0.4444444  -0.5000000   0.1136933), wk =   0.0022447
        k(  640) = (   0.4444444  -0.5000000   0.1705399), wk =   0.0022447
        k(  641) = (   0.4444444  -0.5000000   0.2273866), wk =   0.0022447
        k(  642) = (   0.4444444  -0.5000000   0.2842332), wk =   0.0022447
        k(  643) = (   0.4444444  -0.5000000   0.3410799), wk =   0.0022447
        k(  644) = (   0.4444444  -0.5000000   0.3979265), wk =   0.0022447
        k(  645) = (   0.4444444  -0.5000000   0.4547732), wk =   0.0022447
        k(  646) = (   0.4444444  -0.5000000   0.5116198), wk =   0.0022447
        k(  647) = (   0.4444444  -0.5000000   0.5684665), wk =   0.0022447
        k(  648) = (   0.4444444  -0.5000000  -0.6253131), wk =   0.0011223
        k(  649) = (  -0.5000000  -0.5000000   0.0000000), wk =   0.0002806
        k(  650) = (  -0.5000000  -0.5000000   0.0568466), wk =   0.0005612
        k(  651) = (  -0.5000000  -0.5000000   0.1136933), wk =   0.0005612
        k(  652) = (  -0.5000000  -0.5000000   0.1705399), wk =   0.0005612
        k(  653) = (  -0.5000000  -0.5000000   0.2273866), wk =   0.0005612
        k(  654) = (  -0.5000000  -0.5000000   0.2842332), wk =   0.0005612
        k(  655) = (  -0.5000000  -0.5000000   0.3410799), wk =   0.0005612
        k(  656) = (  -0.5000000  -0.5000000   0.3979265), wk =   0.0005612
        k(  657) = (  -0.5000000  -0.5000000   0.4547732), wk =   0.0005612
        k(  658) = (  -0.5000000  -0.5000000   0.5116198), wk =   0.0005612
        k(  659) = (  -0.5000000  -0.5000000   0.5684665), wk =   0.0005612
        k(  660) = (  -0.5000000  -0.5000000  -0.6253131), wk =   0.0002806

                       cryst. coord.
        k(    1) = (   0.0000000   0.0000000   0.0000000), wk =   0.0002806
        k(    2) = (   0.0000000   0.0000000   0.0454545), wk =   0.0005612
        k(    3) = (   0.0000000   0.0000000   0.0909091), wk =   0.0005612
        k(    4) = (   0.0000000   0.0000000   0.1363636), wk =   0.0005612
        k(    5) = (   0.0000000   0.0000000   0.1818182), wk =   0.0005612
        k(    6) = (   0.0000000   0.0000000   0.2272727), wk =   0.0005612
        k(    7) = (   0.0000000   0.0000000   0.2727273), wk =   0.0005612
        k(    8) = (   0.0000000   0.0000000   0.3181818), wk =   0.0005612
        k(    9) = (   0.0000000   0.0000000   0.3636364), wk =   0.0005612
        k(   10) = (   0.0000000   0.0000000   0.4090909), wk =   0.0005612
        k(   11) = (   0.0000000   0.0000000   0.4545455), wk =   0.0005612
        k(   12) = (   0.0000000   0.0000000  -0.5000000), wk =   0.0002806
        k(   13) = (   0.0000000   0.0555556   0.0000000), wk =   0.0011223
        k(   14) = (   0.0000000   0.0555556   0.0454545), wk =   0.0022447
        k(   15) = (   0.0000000   0.0555556   0.0909091), wk =   0.0022447
        k(   16) = (   0.0000000   0.0555556   0.1363636), wk =   0.0022447
        k(   17) = (   0.0000000   0.0555556   0.1818182), wk =   0.0022447
        k(   18) = (   0.0000000   0.0555556   0.2272727), wk =   0.0022447
        k(   19) = (   0.0000000   0.0555556   0.2727273), wk =   0.0022447
        k(   20) = (   0.0000000   0.0555556   0.3181818), wk =   0.0022447
        k(   21) = (   0.0000000   0.0555556   0.3636364), wk =   0.0022447
        k(   22) = (   0.0000000   0.0555556   0.4090909), wk =   0.0022447
        k(   23) = (   0.0000000   0.0555556   0.4545455), wk =   0.0022447
        k(   24) = (   0.0000000   0.0555556  -0.5000000), wk =   0.0011223
        k(   25) = (   0.0000000   0.1111111   0.0000000), wk =   0.0011223
        k(   26) = (   0.0000000   0.1111111   0.0454545), wk =   0.0022447
        k(   27) = (   0.0000000   0.1111111   0.0909091), wk =   0.0022447
        k(   28) = (   0.0000000   0.1111111   0.1363636), wk =   0.0022447
        k(   29) = (   0.0000000   0.1111111   0.1818182), wk =   0.0022447
        k(   30) = (   0.0000000   0.1111111   0.2272727), wk =   0.0022447
        k(   31) = (   0.0000000   0.1111111   0.2727273), wk =   0.0022447
        k(   32) = (   0.0000000   0.1111111   0.3181818), wk =   0.0022447
        k(   33) = (   0.0000000   0.1111111   0.3636364), wk =   0.0022447
        k(   34) = (   0.0000000   0.1111111   0.4090909), wk =   0.0022447
        k(   35) = (   0.0000000   0.1111111   0.4545455), wk =   0.0022447
        k(   36) = (   0.0000000   0.1111111  -0.5000000), wk =   0.0011223
        k(   37) = (   0.0000000   0.1666667   0.0000000), wk =   0.0011223
        k(   38) = (   0.0000000   0.1666667   0.0454545), wk =   0.0022447
        k(   39) = (   0.0000000   0.1666667   0.0909091), wk =   0.0022447
        k(   40) = (   0.0000000   0.1666667   0.1363636), wk =   0.0022447
        k(   41) = (   0.0000000   0.1666667   0.1818182), wk =   0.0022447
        k(   42) = (   0.0000000   0.1666667   0.2272727), wk =   0.0022447
        k(   43) = (   0.0000000   0.1666667   0.2727273), wk =   0.0022447
        k(   44) = (   0.0000000   0.1666667   0.3181818), wk =   0.0022447
        k(   45) = (   0.0000000   0.1666667   0.3636364), wk =   0.0022447
        k(   46) = (   0.0000000   0.1666667   0.4090909), wk =   0.0022447
        k(   47) = (   0.0000000   0.1666667   0.4545455), wk =   0.0022447
        k(   48) = (   0.0000000   0.1666667  -0.5000000), wk =   0.0011223
        k(   49) = (   0.0000000   0.2222222   0.0000000), wk =   0.0011223
        k(   50) = (   0.0000000   0.2222222   0.0454545), wk =   0.0022447
        k(   51) = (   0.0000000   0.2222222   0.0909091), wk =   0.0022447
        k(   52) = (   0.0000000   0.2222222   0.1363636), wk =   0.0022447
        k(   53) = (   0.0000000   0.2222222   0.1818182), wk =   0.0022447
        k(   54) = (   0.0000000   0.2222222   0.2272727), wk =   0.0022447
        k(   55) = (   0.0000000   0.2222222   0.2727273), wk =   0.0022447
        k(   56) = (   0.0000000   0.2222222   0.3181818), wk =   0.0022447
        k(   57) = (   0.0000000   0.2222222   0.3636364), wk =   0.0022447
        k(   58) = (   0.0000000   0.2222222   0.4090909), wk =   0.0022447
        k(   59) = (   0.0000000   0.2222222   0.4545455), wk =   0.0022447
        k(   60) = (   0.0000000   0.2222222  -0.5000000), wk =   0.0011223
        k(   61) = (   0.0000000   0.2777778   0.0000000), wk =   0.0011223
        k(   62) = (   0.0000000   0.2777778   0.0454545), wk =   0.0022447
        k(   63) = (   0.0000000   0.2777778   0.0909091), wk =   0.0022447
        k(   64) = (   0.0000000   0.2777778   0.1363636), wk =   0.0022447
        k(   65) = (   0.0000000   0.2777778   0.1818182), wk =   0.0022447
        k(   66) = (   0.0000000   0.2777778   0.2272727), wk =   0.0022447
        k(   67) = (   0.0000000   0.2777778   0.2727273), wk =   0.0022447
        k(   68) = (   0.0000000   0.2777778   0.3181818), wk =   0.0022447
        k(   69) = (   0.0000000   0.2777778   0.3636364), wk =   0.0022447
        k(   70) = (   0.0000000   0.2777778   0.4090909), wk =   0.0022447
        k(   71) = (   0.0000000   0.2777778   0.4545455), wk =   0.0022447
        k(   72) = (   0.0000000   0.2777778  -0.5000000), wk =   0.0011223
        k(   73) = (   0.0000000   0.3333333   0.0000000), wk =   0.0011223
        k(   74) = (   0.0000000   0.3333333   0.0454545), wk =   0.0022447
        k(   75) = (   0.0000000   0.3333333   0.0909091), wk =   0.0022447
        k(   76) = (   0.0000000   0.3333333   0.1363636), wk =   0.0022447
        k(   77) = (   0.0000000   0.3333333   0.1818182), wk =   0.0022447
        k(   78) = (   0.0000000   0.3333333   0.2272727), wk =   0.0022447
        k(   79) = (   0.0000000   0.3333333   0.2727273), wk =   0.0022447
        k(   80) = (   0.0000000   0.3333333   0.3181818), wk =   0.0022447
        k(   81) = (   0.0000000   0.3333333   0.3636364), wk =   0.0022447
        k(   82) = (   0.0000000   0.3333333   0.4090909), wk =   0.0022447
        k(   83) = (   0.0000000   0.3333333   0.4545455), wk =   0.0022447
        k(   84) = (   0.0000000   0.3333333  -0.5000000), wk =   0.0011223
        k(   85) = (   0.0000000   0.3888889   0.0000000), wk =   0.0011223
        k(   86) = (   0.0000000   0.3888889   0.0454545), wk =   0.0022447
        k(   87) = (   0.0000000   0.3888889   0.0909091), wk =   0.0022447
        k(   88) = (   0.0000000   0.3888889   0.1363636), wk =   0.0022447
        k(   89) = (   0.0000000   0.3888889   0.1818182), wk =   0.0022447
        k(   90) = (   0.0000000   0.3888889   0.2272727), wk =   0.0022447
        k(   91) = (   0.0000000   0.3888889   0.2727273), wk =   0.0022447
        k(   92) = (   0.0000000   0.3888889   0.3181818), wk =   0.0022447
        k(   93) = (   0.0000000   0.3888889   0.3636364), wk =   0.0022447
        k(   94) = (   0.0000000   0.3888889   0.4090909), wk =   0.0022447
        k(   95) = (   0.0000000   0.3888889   0.4545455), wk =   0.0022447
        k(   96) = (   0.0000000   0.3888889  -0.5000000), wk =   0.0011223
        k(   97) = (   0.0000000   0.4444444   0.0000000), wk =   0.0011223
        k(   98) = (   0.0000000   0.4444444   0.0454545), wk =   0.0022447
        k(   99) = (   0.0000000   0.4444444   0.0909091), wk =   0.0022447
        k(  100) = (   0.0000000   0.4444444   0.1363636), wk =   0.0022447
        k(  101) = (   0.0000000   0.4444444   0.1818182), wk =   0.0022447
        k(  102) = (   0.0000000   0.4444444   0.2272727), wk =   0.0022447
        k(  103) = (   0.0000000   0.4444444   0.2727273), wk =   0.0022447
        k(  104) = (   0.0000000   0.4444444   0.3181818), wk =   0.0022447
        k(  105) = (   0.0000000   0.4444444   0.3636364), wk =   0.0022447
        k(  106) = (   0.0000000   0.4444444   0.4090909), wk =   0.0022447
        k(  107) = (   0.0000000   0.4444444   0.4545455), wk =   0.0022447
        k(  108) = (   0.0000000   0.4444444  -0.5000000), wk =   0.0011223
        k(  109) = (   0.0000000  -0.5000000   0.0000000), wk =   0.0005612
        k(  110) = (   0.0000000  -0.5000000   0.0454545), wk =   0.0011223
        k(  111) = (   0.0000000  -0.5000000   0.0909091), wk =   0.0011223
        k(  112) = (   0.0000000  -0.5000000   0.1363636), wk =   0.0011223
        k(  113) = (   0.0000000  -0.5000000   0.1818182), wk =   0.0011223
        k(  114) = (   0.0000000  -0.5000000   0.2272727), wk =   0.0011223
        k(  115) = (   0.0000000  -0.5000000   0.2727273), wk =   0.0011223
        k(  116) = (   0.0000000  -0.5000000   0.3181818), wk =   0.0011223
        k(  117) = (   0.0000000  -0.5000000   0.3636364), wk =   0.0011223
        k(  118) = (   0.0000000  -0.5000000   0.4090909), wk =   0.0011223
        k(  119) = (   0.0000000  -0.5000000   0.4545455), wk =   0.0011223
        k(  120) = (   0.0000000  -0.5000000  -0.5000000), wk =   0.0005612
        k(  121) = (   0.0555556   0.0555556   0.0000000), wk =   0.0011223
        k(  122) = (   0.0555556   0.0555556   0.0454545), wk =   0.0022447
        k(  123) = (   0.0555556   0.0555556   0.0909091), wk =   0.0022447
        k(  124) = (   0.0555556   0.0555556   0.1363636), wk =   0.0022447
        k(  125) = (   0.0555556   0.0555556   0.1818182), wk =   0.0022447
        k(  126) = (   0.0555556   0.0555556   0.2272727), wk =   0.0022447
        k(  127) = (   0.0555556   0.0555556   0.2727273), wk =   0.0022447
        k(  128) = (   0.0555556   0.0555556   0.3181818), wk =   0.0022447
        k(  129) = (   0.0555556   0.0555556   0.3636364), wk =   0.0022447
        k(  130) = (   0.0555556   0.0555556   0.4090909), wk =   0.0022447
        k(  131) = (   0.0555556   0.0555556   0.4545455), wk =   0.0022447
        k(  132) = (   0.0555556   0.0555556  -0.5000000), wk =   0.0011223
        k(  133) = (   0.0555556   0.1111111   0.0000000), wk =   0.0022447
        k(  134) = (   0.0555556   0.1111111   0.0454545), wk =   0.0044893
        k(  135) = (   0.0555556   0.1111111   0.0909091), wk =   0.0044893
        k(  136) = (   0.0555556   0.1111111   0.1363636), wk =   0.0044893
        k(  137) = (   0.0555556   0.1111111   0.1818182), wk =   0.0044893
        k(  138) = (   0.0555556   0.1111111   0.2272727), wk =   0.0044893
        k(  139) = (   0.0555556   0.1111111   0.2727273), wk =   0.0044893
        k(  140) = (   0.0555556   0.1111111   0.3181818), wk =   0.0044893
        k(  141) = (   0.0555556   0.1111111   0.3636364), wk =   0.0044893
        k(  142) = (   0.0555556   0.1111111   0.4090909), wk =   0.0044893
        k(  143) = (   0.0555556   0.1111111   0.4545455), wk =   0.0044893
        k(  144) = (   0.0555556   0.1111111  -0.5000000), wk =   0.0022447
        k(  145) = (   0.0555556   0.1666667   0.0000000), wk =   0.0022447
        k(  146) = (   0.0555556   0.1666667   0.0454545), wk =   0.0044893
        k(  147) = (   0.0555556   0.1666667   0.0909091), wk =   0.0044893
        k(  148) = (   0.0555556   0.1666667   0.1363636), wk =   0.0044893
        k(  149) = (   0.0555556   0.1666667   0.1818182), wk =   0.0044893
        k(  150) = (   0.0555556   0.1666667   0.2272727), wk =   0.0044893
        k(  151) = (   0.0555556   0.1666667   0.2727273), wk =   0.0044893
        k(  152) = (   0.0555556   0.1666667   0.3181818), wk =   0.0044893
        k(  153) = (   0.0555556   0.1666667   0.3636364), wk =   0.0044893
        k(  154) = (   0.0555556   0.1666667   0.4090909), wk =   0.0044893
        k(  155) = (   0.0555556   0.1666667   0.4545455), wk =   0.0044893
        k(  156) = (   0.0555556   0.1666667  -0.5000000), wk =   0.0022447
        k(  157) = (   0.0555556   0.2222222   0.0000000), wk =   0.0022447
        k(  158) = (   0.0555556   0.2222222   0.0454545), wk =   0.0044893
        k(  159) = (   0.0555556   0.2222222   0.0909091), wk =   0.0044893
        k(  160) = (   0.0555556   0.2222222   0.1363636), wk =   0.0044893
        k(  161) = (   0.0555556   0.2222222   0.1818182), wk =   0.0044893
        k(  162) = (   0.0555556   0.2222222   0.2272727), wk =   0.0044893
        k(  163) = (   0.0555556   0.2222222   0.2727273), wk =   0.0044893
        k(  164) = (   0.0555556   0.2222222   0.3181818), wk =   0.0044893
        k(  165) = (   0.0555556   0.2222222   0.3636364), wk =   0.0044893
        k(  166) = (   0.0555556   0.2222222   0.4090909), wk =   0.0044893
        k(  167) = (   0.0555556   0.2222222   0.4545455), wk =   0.0044893
        k(  168) = (   0.0555556   0.2222222  -0.5000000), wk =   0.0022447
        k(  169) = (   0.0555556   0.2777778   0.0000000), wk =   0.0022447
        k(  170) = (   0.0555556   0.2777778   0.0454545), wk =   0.0044893
        k(  171) = (   0.0555556   0.2777778   0.0909091), wk =   0.0044893
        k(  172) = (   0.0555556   0.2777778   0.1363636), wk =   0.0044893
        k(  173) = (   0.0555556   0.2777778   0.1818182), wk =   0.0044893
        k(  174) = (   0.0555556   0.2777778   0.2272727), wk =   0.0044893
        k(  175) = (   0.0555556   0.2777778   0.2727273), wk =   0.0044893
        k(  176) = (   0.0555556   0.2777778   0.3181818), wk =   0.0044893
        k(  177) = (   0.0555556   0.2777778   0.3636364), wk =   0.0044893
        k(  178) = (   0.0555556   0.2777778   0.4090909), wk =   0.0044893
        k(  179) = (   0.0555556   0.2777778   0.4545455), wk =   0.0044893
        k(  180) = (   0.0555556   0.2777778  -0.5000000), wk =   0.0022447
        k(  181) = (   0.0555556   0.3333333   0.0000000), wk =   0.0022447
        k(  182) = (   0.0555556   0.3333333   0.0454545), wk =   0.0044893
        k(  183) = (   0.0555556   0.3333333   0.0909091), wk =   0.0044893
        k(  184) = (   0.0555556   0.3333333   0.1363636), wk =   0.0044893
        k(  185) = (   0.0555556   0.3333333   0.1818182), wk =   0.0044893
        k(  186) = (   0.0555556   0.3333333   0.2272727), wk =   0.0044893
        k(  187) = (   0.0555556   0.3333333   0.2727273), wk =   0.0044893
        k(  188) = (   0.0555556   0.3333333   0.3181818), wk =   0.0044893
        k(  189) = (   0.0555556   0.3333333   0.3636364), wk =   0.0044893
        k(  190) = (   0.0555556   0.3333333   0.4090909), wk =   0.0044893
        k(  191) = (   0.0555556   0.3333333   0.4545455), wk =   0.0044893
        k(  192) = (   0.0555556   0.3333333  -0.5000000), wk =   0.0022447
        k(  193) = (   0.0555556   0.3888889   0.0000000), wk =   0.0022447
        k(  194) = (   0.0555556   0.3888889   0.0454545), wk =   0.0044893
        k(  195) = (   0.0555556   0.3888889   0.0909091), wk =   0.0044893
        k(  196) = (   0.0555556   0.3888889   0.1363636), wk =   0.0044893
        k(  197) = (   0.0555556   0.3888889   0.1818182), wk =   0.0044893
        k(  198) = (   0.0555556   0.3888889   0.2272727), wk =   0.0044893
        k(  199) = (   0.0555556   0.3888889   0.2727273), wk =   0.0044893
        k(  200) = (   0.0555556   0.3888889   0.3181818), wk =   0.0044893
        k(  201) = (   0.0555556   0.3888889   0.3636364), wk =   0.0044893
        k(  202) = (   0.0555556   0.3888889   0.4090909), wk =   0.0044893
        k(  203) = (   0.0555556   0.3888889   0.4545455), wk =   0.0044893
        k(  204) = (   0.0555556   0.3888889  -0.5000000), wk =   0.0022447
        k(  205) = (   0.0555556   0.4444444   0.0000000), wk =   0.0022447
        k(  206) = (   0.0555556   0.4444444   0.0454545), wk =   0.0044893
        k(  207) = (   0.0555556   0.4444444   0.0909091), wk =   0.0044893
        k(  208) = (   0.0555556   0.4444444   0.1363636), wk =   0.0044893
        k(  209) = (   0.0555556   0.4444444   0.1818182), wk =   0.0044893
        k(  210) = (   0.0555556   0.4444444   0.2272727), wk =   0.0044893
        k(  211) = (   0.0555556   0.4444444   0.2727273), wk =   0.0044893
        k(  212) = (   0.0555556   0.4444444   0.3181818), wk =   0.0044893
        k(  213) = (   0.0555556   0.4444444   0.3636364), wk =   0.0044893
        k(  214) = (   0.0555556   0.4444444   0.4090909), wk =   0.0044893
        k(  215) = (   0.0555556   0.4444444   0.4545455), wk =   0.0044893
        k(  216) = (   0.0555556   0.4444444  -0.5000000), wk =   0.0022447
        k(  217) = (   0.0555556  -0.5000000   0.0000000), wk =   0.0011223
        k(  218) = (   0.0555556  -0.5000000   0.0454545), wk =   0.0022447
        k(  219) = (   0.0555556  -0.5000000   0.0909091), wk =   0.0022447
        k(  220) = (   0.0555556  -0.5000000   0.1363636), wk =   0.0022447
        k(  221) = (   0.0555556  -0.5000000   0.1818182), wk =   0.0022447
        k(  222) = (   0.0555556  -0.5000000   0.2272727), wk =   0.0022447
        k(  223) = (   0.0555556  -0.5000000   0.2727273), wk =   0.0022447
        k(  224) = (   0.0555556  -0.5000000   0.3181818), wk =   0.0022447
        k(  225) = (   0.0555556  -0.5000000   0.3636364), wk =   0.0022447
        k(  226) = (   0.0555556  -0.5000000   0.4090909), wk =   0.0022447
        k(  227) = (   0.0555556  -0.5000000   0.4545455), wk =   0.0022447
        k(  228) = (   0.0555556  -0.5000000  -0.5000000), wk =   0.0011223
        k(  229) = (   0.1111111   0.1111111   0.0000000), wk =   0.0011223
        k(  230) = (   0.1111111   0.1111111   0.0454545), wk =   0.0022447
        k(  231) = (   0.1111111   0.1111111   0.0909091), wk =   0.0022447
        k(  232) = (   0.1111111   0.1111111   0.1363636), wk =   0.0022447
        k(  233) = (   0.1111111   0.1111111   0.1818182), wk =   0.0022447
        k(  234) = (   0.1111111   0.1111111   0.2272727), wk =   0.0022447
        k(  235) = (   0.1111111   0.1111111   0.2727273), wk =   0.0022447
        k(  236) = (   0.1111111   0.1111111   0.3181818), wk =   0.0022447
        k(  237) = (   0.1111111   0.1111111   0.3636364), wk =   0.0022447
        k(  238) = (   0.1111111   0.1111111   0.4090909), wk =   0.0022447
        k(  239) = (   0.1111111   0.1111111   0.4545455), wk =   0.0022447
        k(  240) = (   0.1111111   0.1111111  -0.5000000), wk =   0.0011223
        k(  241) = (   0.1111111   0.1666667   0.0000000), wk =   0.0022447
        k(  242) = (   0.1111111   0.1666667   0.0454545), wk =   0.0044893
        k(  243) = (   0.1111111   0.1666667   0.0909091), wk =   0.0044893
        k(  244) = (   0.1111111   0.1666667   0.1363636), wk =   0.0044893
        k(  245) = (   0.1111111   0.1666667   0.1818182), wk =   0.0044893
        k(  246) = (   0.1111111   0.1666667   0.2272727), wk =   0.0044893
        k(  247) = (   0.1111111   0.1666667   0.2727273), wk =   0.0044893
        k(  248) = (   0.1111111   0.1666667   0.3181818), wk =   0.0044893
[...]
    15.2691  15.6420

     occupation numbers 
     1.0000   1.0000   1.0000   1.0000   0.0000   0.0000   0.0000   0.0000
     0.0000   0.0000

          k = 0.3889 0.4444 0.0568 (   743 PWs)   bands (ev):

     0.7544   1.7334   2.7041   3.6667  12.5487  13.4202  14.3107  15.2150
    15.5245  15.5247

     occupation numbers 
     1.0000   1.0000   1.0000   1.0000   0.0000   0.0000   0.0000   0.0000
     0.0000   0.0000

          k = 0.3889 0.4444 0.1137 (   751 PWs)   bands (ev):

     0.8400   1.8183   2.7880   3.7492  11.6615  12.5456  13.4485  14.3669
    15.8260  16.2540

     occupation numbers 
     1.0000   1.0000   1.0000   1.0000   0.0000   0.0000   0.0000   0.0000
     0.0000   0.0000

          k = 0.3889 0.4444 0.1705 (   752 PWs)   bands (ev):

     0.9827   1.9595   2.9275   3.8864  10.7053  11.6021  12.5120  13.4335
    16.0521  16.6343

     occupation numbers 
     1.0000   1.0000   1.0000   1.0000   0.0005   0.0000   0.0000   0.0000
     0.0000   0.0000

          k = 0.3889 0.4444 0.2274 (   759 PWs)   bands (ev):

     1.1821   2.1569   3.1223   4.0772   9.7580  10.6631  11.5778  12.5007
    16.2731  16.8673

     occupation numbers 
     1.0000   1.0000   1.0000   1.0000   1.0000   0.0023   0.0000   0.0000
     0.0000   0.0000

          k = 0.3889 0.4444 0.2842 (   759 PWs)   bands (ev):

     1.4379   2.4099   3.3715   4.3197   8.8441   9.7529  10.6709  11.5952
    16.5218  17.1099

     occupation numbers 
     1.0000   1.0000   1.0000   1.0000   1.0000   1.0000   0.0017   0.0000
     0.0000   0.0000

          k = 0.3889 0.4444 0.3411 (   759 PWs)   bands (ev):

     1.7496   2.7178   3.6737   4.6096   7.9774   8.8830   9.8023  10.7278
    16.8085  17.3894

     occupation numbers 
     1.0000   1.0000   1.0000   1.0000   1.0000   1.0000   1.0000   0.0002
     0.0000   0.0000

          k = 0.3889 0.4444 0.3979 (   764 PWs)   bands (ev):

     2.1164   3.0794   4.0261   4.9337   7.1754   8.0612   8.9784   9.9045
    17.1368  17.7119

     occupation numbers 
     1.0000   1.0000   1.0000   1.0000   1.0000   1.0000   1.0000   1.0000
     0.0000   0.0000

          k = 0.3889 0.4444 0.4548 (   764 PWs)   bands (ev):

     2.5375   3.4928   4.4219   5.2329   6.5000   7.2975   8.2042   9.1289
    17.5055  18.0793

     occupation numbers 
     1.0000   1.0000   1.0000   1.0000   1.0000   1.0000   1.0000   1.0000
     0.0000   0.0000

          k = 0.3889 0.4444 0.5116 (   759 PWs)   bands (ev):

     3.0111   3.9538   4.8370   5.1969   6.2632   6.6174   7.4857   8.4044
    17.9081  18.4909

     occupation numbers 
     1.0000   1.0000   1.0000   1.0000   1.0000   1.0000   1.0000   1.0000
     0.0000   0.0000

          k = 0.3889 0.4444 0.5685 (   755 PWs)   bands (ev):

     3.5345   4.4509   4.6906   5.1401   6.1534   6.6009   6.8352   7.7347
    18.3275  18.9437

     occupation numbers 
     1.0000   1.0000   1.0000   1.0000   1.0000   1.0000   1.0000   1.0000
     0.0000   0.0000

          k = 0.3889 0.4444-0.6253 (   756 PWs)   bands (ev):

     4.1012   4.1012   4.9361   4.9361   6.3013   6.3013   7.1266   7.1266
    18.7035  18.7036

     occupation numbers 
     1.0000   1.0000   1.0000   1.0000   1.0000   1.0000   1.0000   1.0000
     0.0000   0.0000

          k = 0.3889-0.5000 0.0000 (   744 PWs)   bands (ev):

     1.1892   1.1894   3.1320   3.1321  13.4304  13.4304  15.1806  15.1806
    15.2620  15.2621

     occupation numbers 
     1.0000   1.0000   1.0000   1.0000   0.0000   0.0000   0.0000   0.0000
     0.0000   0.0000

          k = 0.3889-0.5000 0.0568 (   742 PWs)   bands (ev):

     1.2177   1.2178   3.1598   3.1599  12.9634  12.9634  14.7421  14.7422
    15.6187  15.6188

     occupation numbers 
     1.0000   1.0000   1.0000   1.0000   0.0000   0.0000   0.0000   0.0000
     0.0000   0.0000

          k = 0.3889-0.5000 0.1137 (   744 PWs)   bands (ev):

     1.3030   1.3032   3.2431   3.2432  12.0819  12.0820  13.8866  13.8866
    16.0751  16.0752

     occupation numbers 
     1.0000   1.0000   1.0000   1.0000   0.0000   0.0000   0.0000   0.0000
     0.0000   0.0000

          k = 0.3889-0.5000 0.1705 (   748 PWs)   bands (ev):

     1.4450   1.4452   3.3816   3.3817  11.1307  11.1308  12.9503  12.9504
    16.3574  16.3574

     occupation numbers 
     1.0000   1.0000   1.0000   1.0000   0.0000   0.0000   0.0000   0.0000
     0.0000   0.0000

          k = 0.3889-0.5000 0.2274 (   754 PWs)   bands (ev):

     1.6435   1.6437   3.5747   3.5748  10.1863  10.1865  12.0159  12.0160
    16.5932  16.5933

     occupation numbers 
     1.0000   1.0000   1.0000   1.0000   1.0520   1.0521   0.0000   0.0000
     0.0000   0.0000

          k = 0.3889-0.5000 0.2842 (   756 PWs)   bands (ev):

     1.8980   1.8982   3.8212   3.8214   9.2731   9.2732  11.1090  11.1091
    16.8457  16.8457

     occupation numbers 
     1.0000   1.0000   1.0000   1.0000   1.0000   1.0000   0.0000   0.0000
     0.0000   0.0000

          k = 0.3889-0.5000 0.3411 (   758 PWs)   bands (ev):

     2.2080   2.2082   4.1189   4.1190   8.4028   8.4029  10.2404  10.2405
    17.1337  17.1337

     occupation numbers 
     1.0000   1.0000   1.0000   1.0000   1.0000   1.0000   1.0822   1.0822
     0.0000   0.0000

          k = 0.3889-0.5000 0.3979 (   764 PWs)   bands (ev):

     2.5727   2.5728   4.4622   4.4623   7.5856   7.5858   9.4162   9.4163
    17.4631  17.4631

     occupation numbers 
     1.0000   1.0000   1.0000   1.0000   1.0000   1.0000   1.0000   1.0000
     0.0000   0.0000

          k = 0.3889-0.5000 0.4548 (   766 PWs)   bands (ev):

     2.9905   2.9907   4.8336   4.8338   6.8419   6.8420   8.6405   8.6407
    17.8349  17.8349

     occupation numbers 
     1.0000   1.0000   1.0000   1.0000   1.0000   1.0000   1.0000   1.0000
     0.0000   0.0000

          k = 0.3889-0.5000 0.5116 (   762 PWs)   bands (ev):

     3.4593   3.4594   5.1455   5.1456   6.2611   6.2612   7.9174   7.9176
    18.2473  18.2473

     occupation numbers 
     1.0000   1.0000   1.0000   1.0000   1.0000   1.0000   1.0000   1.0000
     0.0000   0.0000

          k = 0.3889-0.5000 0.5685 (   756 PWs)   bands (ev):

     3.9738   3.9739   5.0235   5.0236   6.2182   6.2183   7.2531   7.2532
    18.6934  18.6935

     occupation numbers 
     1.0000   1.0000   1.0000   1.0000   1.0000   1.0000   1.0000   1.0000
     0.0000   0.0000

          k = 0.3889-0.5000-0.6253 (   756 PWs)   bands (ev):

     4.5188   4.5188   4.5189   4.5189   6.6630   6.6630   6.6631   6.6631
    19.1531  19.1531

     occupation numbers 
     1.0000   1.0000   1.0000   1.0000   1.0000   1.0000   1.0000   1.0000
     0.0000   0.0000

          k = 0.4444 0.4444 0.0000 (   734 PWs)   bands (ev):

     1.1350   2.1110   2.1110   3.0789  13.3820  14.2572  14.2572  15.1323
    15.5490  16.1648

     occupation numbers 
     1.0000   1.0000   1.0000   1.0000   0.0000   0.0000   0.0000   0.0000
     0.0000   0.0000

          k = 0.4444 0.4444 0.0568 (   743 PWs)   bands (ev):

     1.1635   2.1392   2.1392   3.1067  12.9221  13.8046  13.8046  14.7000
    16.0316  16.5007

     occupation numbers 
     1.0000   1.0000   1.0000   1.0000   0.0000   0.0000   0.0000   0.0000
     0.0000   0.0000

          k = 0.4444 0.4444 0.1137 (   751 PWs)   bands (ev):

     1.2488   2.2237   2.2237   3.1901  12.0407  12.9356  12.9356  13.8452
    16.9272  16.9718

     occupation numbers 
     1.0000   1.0000   1.0000   1.0000   0.0000   0.0000   0.0000   0.0000
     0.0000   0.0000

          k = 0.4444 0.4444 0.1705 (   749 PWs)   bands (ev):

     1.3909   2.3642   2.3643   3.3287  11.0868  11.9914  11.9914  12.9069
    17.1927  17.3936

     occupation numbers 
     1.0000   1.0000   1.0000   1.0000   0.0000   0.0000   0.0000   0.0000
     0.0000   0.0000

          k = 0.4444 0.4444 0.2274 (   752 PWs)   bands (ev):

     1.5895   2.5606   2.5606   3.5219  10.1401  11.0514  11.0514  11.9706
    17.4203  17.5621

     occupation numbers 
     1.0000   1.0000   1.0000   1.0000   1.0241   0.0000   0.0000   0.0000
     0.0000   0.0000

          k = 0.4444 0.4444 0.2842 (   755 PWs)   bands (ev):

     1.8442   2.8121   2.8121   3.7686   9.2251  10.1402  10.1402  11.0621
    17.6666  17.7789

     occupation numbers 
     1.0000   1.0000   1.0000   1.0000   1.0000   1.0242   1.0242   0.0000
     0.0000   0.0000

          k = 0.4444 0.4444 0.3411 (   757 PWs)   bands (ev):

     2.1543   3.1177   3.1177   4.0664   8.3535   9.2688   9.2688  10.1923
    17.9480  18.0428

     occupation numbers 
     1.0000   1.0000   1.0000   1.0000   1.0000   1.0000   1.0000   1.0562
     0.0000   0.0000

          k = 0.4444 0.4444 0.3979 (   758 PWs)   bands (ev):

     2.5191   3.4760   3.4760   4.4100   7.5354   8.4438   8.4438   9.3672
    18.2682  18.3539

     occupation numbers 
     1.0000   1.0000   1.0000   1.0000   1.0000   1.0000   1.0000   1.0000
     0.0000   0.0000

          k = 0.4444 0.4444 0.4548 (   768 PWs)   bands (ev):

     2.9372   3.8833   3.8833   4.7817   6.7908   7.6713   7.6713   8.5909
    18.6243  18.7110

     occupation numbers 
     1.0000   1.0000   1.0000   1.0000   1.0000   1.0000   1.0000   1.0000
     0.0000   0.0000

          k = 0.4444 0.4444 0.5116 (   764 PWs)   bands (ev):

     3.4063   4.3310   4.3310   5.0938   6.2093   6.9620   6.9620   7.8672
    19.0043  19.1113

     occupation numbers 
     1.0000   1.0000   1.0000   1.0000   1.0000   1.0000   1.0000   1.0000
     0.0000   0.0000

          k = 0.4444 0.4444 0.5685 (   763 PWs)   bands (ev):

     3.9211   4.7856   4.7856   4.9717   6.1665   6.3499   6.3499   7.2022
    19.3652  19.3653

     occupation numbers 
     1.0000   1.0000   1.0000   1.0000   1.0000   1.0000   1.0000   1.0000
     0.0000   0.0000

          k = 0.4444 0.4444-0.6253 (   760 PWs)   bands (ev):

     4.4665   4.4665   5.0535   5.0535   6.0295   6.0295   6.6117   6.6117
    19.5487  19.5487

     occupation numbers 
     1.0000   1.0000   1.0000   1.0000   1.0000   1.0000   1.0000   1.0000
     0.0000   0.0000

          k = 0.4444-0.5000 0.0000 (   742 PWs)   bands (ev):

     1.5969   1.5971   2.5691   2.5693  13.7954  13.7955  14.6707  14.6707
    15.9296  15.9298

     occupation numbers 
     1.0000   1.0000   1.0000   1.0000   0.0000   0.0000   0.0000   0.0000
     0.0000   0.0000

          k = 0.4444-0.5000 0.0568 (   742 PWs)   bands (ev):

     1.6253   1.6254   2.5972   2.5973  13.3408  13.3409  14.2300  14.2301
    16.3718  16.3719

     occupation numbers 
     1.0000   1.0000   1.0000   1.0000   0.0000   0.0000   0.0000   0.0000
     0.0000   0.0000

          k = 0.4444-0.5000 0.1137 (   748 PWs)   bands (ev):

     1.7102   1.7104   2.6812   2.6813  12.4656  12.4657  13.3681  13.3682
    17.0670  17.0670

     occupation numbers 
     1.0000   1.0000   1.0000   1.0000   0.0000   0.0000   0.0000   0.0000
     0.0000   0.0000

          k = 0.4444-0.5000 0.1705 (   746 PWs)   bands (ev):

     1.8516   1.8518   2.8209   2.8210  11.5158  11.5159  12.4261  12.4262
    17.4102  17.4103

     occupation numbers 
     1.0000   1.0000   1.0000   1.0000   0.0000   0.0000   0.0000   0.0000
     0.0000   0.0000

          k = 0.4444-0.5000 0.2274 (   752 PWs)   bands (ev):

     2.0492   2.0493   3.0159   3.0160  10.5716  10.5717  11.4872  11.4873
    17.6327  17.6327

     occupation numbers 
     1.0000   1.0000   1.0000   1.0000   0.0352   0.0351   0.0000   0.0000
     0.0000   0.0000

          k = 0.4444-0.5000 0.2842 (   758 PWs)   bands (ev):

     2.3025   2.3026   3.2653   3.2655   9.6577   9.6578  10.5767  10.5768
    17.8703  17.8704

     occupation numbers 
     1.0000   1.0000   1.0000   1.0000   1.0000   1.0000   0.0309   0.0308
     0.0000   0.0000

          k = 0.4444-0.5000 0.3411 (   756 PWs)   bands (ev):

     2.6107   2.6108   3.5679   3.5680   8.7850   8.7852   9.7055   9.7056
    18.1455  18.1456

     occupation numbers 
     1.0000   1.0000   1.0000   1.0000   1.0000   1.0000   1.0000   1.0000
     0.0000   0.0000

          k = 0.4444-0.5000 0.3979 (   760 PWs)   bands (ev):

     2.9727   2.9729   3.9208   3.9209   7.9613   7.9614   8.8797   8.8798
    18.4627  18.4629

     occupation numbers 
     1.0000   1.0000   1.0000   1.0000   1.0000   1.0000   1.0000   1.0000
     0.0000   0.0000

          k = 0.4444-0.5000 0.4548 (   768 PWs)   bands (ev):

     3.3866   3.3868   4.3170   4.3172   7.1959   7.1960   8.1040   8.1041
    18.8218  18.8219

     occupation numbers 
     1.0000   1.0000   1.0000   1.0000   1.0000   1.0000   1.0000   1.0000
     0.0000   0.0000

          k = 0.4444-0.5000 0.5116 (   764 PWs)   bands (ev):

     3.8482   3.8484   4.7329   4.7330   6.5144   6.5145   7.3841   7.3843
    19.2180  19.2181

     occupation numbers 
     1.0000   1.0000   1.0000   1.0000   1.0000   1.0000   1.0000   1.0000
     0.0000   0.0000

          k = 0.4444-0.5000 0.5685 (   764 PWs)   bands (ev):

     4.3460   4.3462   5.0368   5.0369   6.0493   6.0494   6.7325   6.7327
    19.6371  19.6372

     occupation numbers 
     1.0000   1.0000   1.0000   1.0000   1.0000   1.0000   1.0000   1.0000
     0.0000   0.0000

          k = 0.4444-0.5000-0.6253 (   768 PWs)   bands (ev):

     4.8321   4.8322   4.8322   4.8323   6.1976   6.1977   6.1977   6.1978
    20.0256  20.0257

     occupation numbers 
     1.0000   1.0000   1.0000   1.0000   1.0000   1.0000   1.0000   1.0000
     0.0000   0.0000

          k =-0.5000-0.5000 0.0000 (   752 PWs)   bands (ev):

     2.0571   2.0572   2.0572   2.0574  14.2089  14.2089  14.2089  14.2090
    16.4650  16.4650

     occupation numbers 
     1.0000   1.0000   1.0000   1.0000   0.0000   0.0000   0.0000   0.0000
     0.0000   0.0000

          k =-0.5000-0.5000 0.0568 (   736 PWs)   bands (ev):

     2.0853   2.0854   2.0854   2.0856  13.7627  13.7628  13.7628  13.7629
    16.9353  16.9354

     occupation numbers 
     1.0000   1.0000   1.0000   1.0000   0.0000   0.0000   0.0000   0.0000
     0.0000   0.0000

          k =-0.5000-0.5000 0.1137 (   748 PWs)   bands (ev):

     2.1698   2.1699   2.1699   2.1701  12.8942  12.8943  12.8943  12.8944
    17.8678  17.8680

     occupation numbers 
     1.0000   1.0000   1.0000   1.0000   0.0000   0.0000   0.0000   0.0000
     0.0000   0.0000

          k =-0.5000-0.5000 0.1705 (   748 PWs)   bands (ev):

     2.3105   2.3106   2.3106   2.3107  11.9476  11.9477  11.9477  11.9478
    18.1888  18.1890

     occupation numbers 
     1.0000   1.0000   1.0000   1.0000   0.0000   0.0000   0.0000   0.0000
     0.0000   0.0000

          k =-0.5000-0.5000 0.2274 (   752 PWs)   bands (ev):

     2.5069   2.5070   2.5070   2.5072  11.0054  11.0055  11.0055  11.0055
    18.3565  18.3568

     occupation numbers 
     1.0000   1.0000   1.0000   1.0000   0.0000   0.0000   0.0000   0.0000
     0.0000   0.0000

          k =-0.5000-0.5000 0.2842 (   764 PWs)   bands (ev):

     2.7585   2.7586   2.7586   2.7588  10.0925  10.0926  10.0926  10.0927
    18.5714  18.5718

     occupation numbers 
     1.0000   1.0000   1.0000   1.0000   1.0081   1.0082   1.0082   1.0082
     0.0000   0.0000

          k =-0.5000-0.5000 0.3411 (   748 PWs)   bands (ev):

     3.0644   3.0645   3.0645   3.0647   9.2199   9.2200   9.2200   9.2201
    18.8330  18.8332

     occupation numbers 
     1.0000   1.0000   1.0000   1.0000   1.0000   1.0000   1.0000   1.0000
     0.0000   0.0000

          k =-0.5000-0.5000 0.3979 (   756 PWs)   bands (ev):

     3.4228   3.4229   3.4229   3.4231   8.3939   8.3940   8.3940   8.3941
    19.1386  19.1389

     occupation numbers 
     1.0000   1.0000   1.0000   1.0000   1.0000   1.0000   1.0000   1.0000
     0.0000   0.0000

          k =-0.5000-0.5000 0.4548 (   772 PWs)   bands (ev):

     3.8304   3.8305   3.8305   3.8307   7.6207   7.6208   7.6208   7.6209
    19.4848  19.4849

     occupation numbers 
     1.0000   1.0000   1.0000   1.0000   1.0000   1.0000   1.0000   1.0000
     0.0000   0.0000

          k =-0.5000-0.5000 0.5116 (   764 PWs)   bands (ev):

     4.2784   4.2785   4.2785   4.2787   6.9106   6.9108   6.9108   6.9109
    19.8602  19.8605

     occupation numbers 
     1.0000   1.0000   1.0000   1.0000   1.0000   1.0000   1.0000   1.0000
     0.0000   0.0000

          k =-0.5000-0.5000 0.5685 (   768 PWs)   bands (ev):

     4.7334   4.7336   4.7336   4.7337   6.2980   6.2981   6.2981   6.2983
    20.2263  20.2265

     occupation numbers 
     1.0000   1.0000   1.0000   1.0000   1.0000   1.0000   1.0000   1.0000
     0.0000   0.0000

          k =-0.5000-0.5000-0.6253 (   760 PWs)   bands (ev):

     5.0018   5.0019   5.0019   5.0020   5.9771   5.9772   5.9772   5.9774
    20.4209  20.4211

     occupation numbers 
     1.0000   1.0000   1.0000   1.0000   1.0000   1.0000   1.0000   1.0000
     0.0000   0.0000

     the Fermi energy is    10.4424 ev

!    total energy              =     -26.72788062 Ry
     Harris-Foulkes estimate   =     -26.72788066 Ry
     estimated scf accuracy    <       0.00000008 Ry

     The total energy is the sum of the following terms:

     one-electron contribution =      14.22846668 Ry
     hartree contribution      =       0.04264079 Ry
     xc contribution           =     -17.70138550 Ry
     ewald contribution        =     -23.29766165 Ry
     smearing contrib. (-TS)   =       0.00005906 Ry

     convergence has been achieved in   5 iterations
 
     init_run     :    133.51s CPU      5.85s WALL (       1 calls)
     electrons    :   1595.74s CPU     68.06s WALL (       1 calls)

     Called by init_run:
     wfcinit      :    133.27s CPU      5.69s WALL (       1 calls)
     wfcinit:atom :      2.81s CPU      0.12s WALL (     660 calls)
     wfcinit:wfcr :    119.02s CPU      5.08s WALL (     660 calls)
     potinit      :      0.03s CPU      0.01s WALL (       1 calls)

     Called by electrons:
     c_bands      :   1370.90s CPU     58.46s WALL (       6 calls)
     sum_band     :    222.96s CPU      9.51s WALL (       6 calls)
     v_of_rho     :      0.57s CPU      0.03s WALL (       6 calls)
     v_h          :      0.03s CPU      0.00s WALL (       6 calls)
     v_xc         :      0.54s CPU      0.03s WALL (       6 calls)
     newd         :      0.64s CPU      0.04s WALL (       6 calls)
     mix_rho      :      0.14s CPU      0.01s WALL (       6 calls)

     Called by c_bands:
     init_us_2    :     44.99s CPU      1.92s WALL (    8580 calls)
     cegterg      :   1245.29s CPU     53.05s WALL (    3960 calls)

     Called by sum_band:
     sum_band:bec :      1.35s CPU      0.06s WALL (    3960 calls)
     addusdens    :      0.63s CPU      0.03s WALL (       6 calls)

     Called by *egterg:
     h_psi        :   1183.08s CPU     50.43s WALL (   13688 calls)
     s_psi        :     10.18s CPU      0.43s WALL (   13688 calls)
     g_psi        :      5.23s CPU      0.23s WALL (    9068 calls)
     cdiaghg      :     65.93s CPU      2.87s WALL (   12368 calls)
     cegterg:over :     15.21s CPU      0.66s WALL (    9068 calls)
     cegterg:upda :     16.27s CPU      0.72s WALL (    9068 calls)
     cegterg:last :      6.94s CPU      0.32s WALL (    3963 calls)

     Called by h_psi:
     h_psi:pot    :   1171.79s CPU     49.93s WALL (   13688 calls)
     h_psi:calbec :     42.72s CPU      1.81s WALL (   13688 calls)
     vloc_psi     :   1101.77s CPU     46.99s WALL (   13688 calls)
     add_vuspsi   :     15.90s CPU      0.70s WALL (   13688 calls)

     General routines
     calbec       :     43.90s CPU      1.97s WALL (   17648 calls)
     fft          :      0.23s CPU      0.03s WALL (      80 calls)
     fftw         :   1043.66s CPU     44.63s WALL (  259152 calls)
 
     Parallel routines
 
     PWSCF        : 28m49.52s CPU     1m14.00s WALL

 
   This run was terminated on:  17:21:15  24Jan2019            

=------------------------------------------------------------------------------=
   JOB DONE.
=------------------------------------------------------------------------------=
