
     Program PWSCF v.6.2 (svn rev. 14038) starts on 30Jan2019 at 22:11:17 

     This program is part of the open-source Quantum ESPRESSO suite
     for quantum simulation of materials; please cite
         "P. Giannozzi et al., J. Phys.:Condens. Matter 21 395502 (2009);
         "P. Giannozzi et al., J. Phys.:Condens. Matter 29 465901 (2017);
          URL http://www.quantum-espresso.org", 
     in publications or presentations arising from this work. More details at
     http://www.quantum-espresso.org/quote

     Parallel version (MPI), running on     2 processors

     MPI processes distributed on     1 nodes
     R & G space division:  proc/nbgrp/npool/nimage =       2
     Reading input from ./Alecut25.in
Warning: card &IONS ignored
Warning: card / ignored
Warning: card &CELL ignored
Warning: card / ignored

     Current dimensions of program PWSCF are:
     Max number of different atomic species (ntypx) = 10
     Max number of k-points (npk) =  40000
     Max angular momentum in pseudopotentials (lmaxx) =  3
     Message from routine iosys:
     minimal I/O required, wf_collect reset to FALSE

     Subspace diagonalization in iterative solution of the eigenvalue problem:
     a serial algorithm will be used

 
     Parallelization info
     --------------------
     sticks:   dense  smooth     PW     G-vecs:    dense   smooth      PW
     Min         102     102     47                  932      932     301
     Max         103     103     48                  933      933     302
     Sum         205     205     95                 1865     1865     603
 


     bravais-lattice index     =            0
     lattice parameter (alat)  =       5.2705  a.u.
     unit-cell volume          =     112.7033 (a.u.)^3
     number of atoms/cell      =            1
     number of atomic types    =            1
     number of electrons       =         3.00
     number of Kohn-Sham states=            6
     kinetic-energy cutoff     =      25.0000  Ry
     charge density cutoff     =     100.0000  Ry
     convergence threshold     =      1.0E-06
     mixing beta               =       0.7000
     number of iterations used =            8  plain     mixing
     Exchange-correlation      = SLA  PW   PBE  PBE ( 1  4  3  4 0 0)

     celldm(1)=   5.270512  celldm(2)=   0.000000  celldm(3)=   0.000000
     celldm(4)=   0.000000  celldm(5)=   0.000000  celldm(6)=   0.000000

     crystal axes: (cart. coord. in units of alat)
               a(1) = (   0.577350   0.577350   0.577350 )  
               a(2) = (   0.577350  -0.577350  -0.577350 )  
               a(3) = (  -0.577350   0.577350  -0.577350 )  

     reciprocal axes: (cart. coord. in units 2 pi/alat)
               b(1) = (  0.866025  0.866025  0.000000 )  
               b(2) = (  0.866025  0.000000 -0.866025 )  
               b(3) = (  0.000000  0.866025 -0.866025 )  


     PseudoPot. # 1 for Al read from file:
     ./al_pbe_v1.uspp.F.UPF
     MD5 check sum: 0a6289f5291fc8f409219462bc851e1f
     Pseudo is Ultrasoft + core correction, Zval =  3.0
     Generated by new atomic code, or converted to UPF format
     Using radial grid of  893 points,  3 beta functions with: 
                l(1) =   0
                l(2) =   1
                l(3) =   2
     Q(r) pseudized with  8 coefficients,  rinner =    0.900   0.900   0.900
                                                       0.900   0.900

     atomic species   valence    mass     pseudopotential
        Al             3.00    26.98150     Al( 1.00)

     48 Sym. Ops., with inversion, found


                                    s                        frac. trans.

      isym =  1     identity                                     

 cryst.   s( 1) = (     1          0          0      )
                  (     0          1          0      )
                  (     0          0          1      )

 cart.    s( 1) = (  1.0000000  0.0000000  0.0000000 )
                  (  0.0000000  1.0000000  0.0000000 )
                  (  0.0000000  0.0000000  1.0000000 )


      isym =  2     180 deg rotation - cart. axis [0,0,1]        

 cryst.   s( 2) = (    -1         -1         -1      )
                  (     0          0          1      )
                  (     0          1          0      )

 cart.    s( 2) = ( -1.0000000  0.0000000  0.0000000 )
                  (  0.0000000 -1.0000000  0.0000000 )
                  (  0.0000000  0.0000000  1.0000000 )


      isym =  3     180 deg rotation - cart. axis [0,1,0]        

 cryst.   s( 3) = (     0          0          1      )
                  (    -1         -1         -1      )
                  (     1          0          0      )

 cart.    s( 3) = ( -1.0000000  0.0000000  0.0000000 )
                  (  0.0000000  1.0000000  0.0000000 )
                  (  0.0000000  0.0000000 -1.0000000 )


      isym =  4     180 deg rotation - cart. axis [1,0,0]        

 cryst.   s( 4) = (     0          1          0      )
                  (     1          0          0      )
                  (    -1         -1         -1      )

 cart.    s( 4) = (  1.0000000  0.0000000  0.0000000 )
                  (  0.0000000 -1.0000000  0.0000000 )
                  (  0.0000000  0.0000000 -1.0000000 )


      isym =  5     180 deg rotation - cart. axis [1,1,0]        

 cryst.   s( 5) = (     1          1          1      )
                  (     0         -1          0      )
                  (     0          0         -1      )

 cart.    s( 5) = (  0.0000000  1.0000000  0.0000000 )
                  (  1.0000000  0.0000000  0.0000000 )
                  (  0.0000000  0.0000000 -1.0000000 )


      isym =  6     180 deg rotation - cart. axis [1,-1,0]       

 cryst.   s( 6) = (    -1          0          0      )
                  (     0          0         -1      )
                  (     0         -1          0      )

 cart.    s( 6) = (  0.0000000 -1.0000000  0.0000000 )
                  ( -1.0000000  0.0000000  0.0000000 )
                  (  0.0000000  0.0000000 -1.0000000 )


      isym =  7      90 deg rotation - cart. axis [0,0,-1]       

 cryst.   s( 7) = (     0          0         -1      )
                  (    -1          0          0      )
                  (     1          1          1      )

 cart.    s( 7) = (  0.0000000  1.0000000  0.0000000 )
                  ( -1.0000000  0.0000000  0.0000000 )
                  (  0.0000000  0.0000000  1.0000000 )


      isym =  8      90 deg rotation - cart. axis [0,0,1]        

 cryst.   s( 8) = (     0         -1          0      )
                  (     1          1          1      )
                  (    -1          0          0      )

 cart.    s( 8) = (  0.0000000 -1.0000000  0.0000000 )
                  (  1.0000000  0.0000000  0.0000000 )
                  (  0.0000000  0.0000000  1.0000000 )


      isym =  9     180 deg rotation - cart. axis [1,0,1]        

 cryst.   s( 9) = (     0          0         -1      )
                  (     0         -1          0      )
                  (    -1          0          0      )

 cart.    s( 9) = (  0.0000000  0.0000000  1.0000000 )
                  (  0.0000000 -1.0000000  0.0000000 )
                  (  1.0000000  0.0000000  0.0000000 )


      isym = 10     180 deg rotation - cart. axis [-1,0,1]       

 cryst.   s(10) = (    -1          0          0      )
                  (     1          1          1      )
                  (     0          0         -1      )

 cart.    s(10) = (  0.0000000  0.0000000 -1.0000000 )
                  (  0.0000000 -1.0000000  0.0000000 )
                  ( -1.0000000  0.0000000  0.0000000 )


      isym = 11      90 deg rotation - cart. axis [0,1,0]        

 cryst.   s(11) = (     1          1          1      )
                  (    -1          0          0      )
                  (     0         -1          0      )

 cart.    s(11) = (  0.0000000  0.0000000  1.0000000 )
                  (  0.0000000  1.0000000  0.0000000 )
                  ( -1.0000000  0.0000000  0.0000000 )


      isym = 12      90 deg rotation - cart. axis [0,-1,0]       

 cryst.   s(12) = (     0         -1          0      )
                  (     0          0         -1      )
                  (     1          1          1      )

 cart.    s(12) = (  0.0000000  0.0000000 -1.0000000 )
                  (  0.0000000  1.0000000  0.0000000 )
                  (  1.0000000  0.0000000  0.0000000 )


      isym = 13     180 deg rotation - cart. axis [0,1,1]        

 cryst.   s(13) = (     0         -1          0      )
                  (    -1          0          0      )
                  (     0          0         -1      )

 cart.    s(13) = ( -1.0000000  0.0000000  0.0000000 )
                  (  0.0000000  0.0000000  1.0000000 )
                  (  0.0000000  1.0000000  0.0000000 )


      isym = 14     180 deg rotation - cart. axis [0,1,-1]       

 cryst.   s(14) = (    -1          0          0      )
                  (     0         -1          0      )
                  (     1          1          1      )

 cart.    s(14) = ( -1.0000000  0.0000000  0.0000000 )
                  (  0.0000000  0.0000000 -1.0000000 )
                  (  0.0000000 -1.0000000  0.0000000 )


      isym = 15      90 deg rotation - cart. axis [-1,0,0]       

 cryst.   s(15) = (     1          1          1      )
                  (     0          0         -1      )
                  (    -1          0          0      )

 cart.    s(15) = (  1.0000000  0.0000000  0.0000000 )
                  (  0.0000000  0.0000000  1.0000000 )
                  (  0.0000000 -1.0000000  0.0000000 )


      isym = 16      90 deg rotation - cart. axis [1,0,0]        

 cryst.   s(16) = (     0          0         -1      )
                  (     1          1          1      )
                  (     0         -1          0      )

 cart.    s(16) = (  1.0000000  0.0000000  0.0000000 )
                  (  0.0000000  0.0000000 -1.0000000 )
                  (  0.0000000  1.0000000  0.0000000 )


      isym = 17     120 deg rotation - cart. axis [-1,-1,-1]     

 cryst.   s(17) = (     1          0          0      )
                  (    -1         -1         -1      )
                  (     0          1          0      )

 cart.    s(17) = (  0.0000000  1.0000000  0.0000000 )
                  (  0.0000000  0.0000000  1.0000000 )
                  (  1.0000000  0.0000000  0.0000000 )


      isym = 18     120 deg rotation - cart. axis [-1,1,1]       

 cryst.   s(18) = (     0          0          1      )
                  (     0          1          0      )
                  (    -1         -1         -1      )

 cart.    s(18) = (  0.0000000 -1.0000000  0.0000000 )
                  (  0.0000000  0.0000000  1.0000000 )
                  ( -1.0000000  0.0000000  0.0000000 )


      isym = 19     120 deg rotation - cart. axis [1,1,-1]       

 cryst.   s(19) = (     0          1          0      )
                  (     0          0          1      )
                  (     1          0          0      )

 cart.    s(19) = (  0.0000000  1.0000000  0.0000000 )
                  (  0.0000000  0.0000000 -1.0000000 )
                  ( -1.0000000  0.0000000  0.0000000 )


      isym = 20     120 deg rotation - cart. axis [1,-1,1]       

 cryst.   s(20) = (    -1         -1         -1      )
                  (     1          0          0      )
                  (     0          0          1      )

 cart.    s(20) = (  0.0000000 -1.0000000  0.0000000 )
                  (  0.0000000  0.0000000 -1.0000000 )
                  (  1.0000000  0.0000000  0.0000000 )


      isym = 21     120 deg rotation - cart. axis [1,1,1]        

 cryst.   s(21) = (     1          0          0      )
                  (     0          0          1      )
                  (    -1         -1         -1      )

 cart.    s(21) = (  0.0000000  0.0000000  1.0000000 )
                  (  1.0000000  0.0000000  0.0000000 )
                  (  0.0000000  1.0000000  0.0000000 )


      isym = 22     120 deg rotation - cart. axis [-1,1,-1]      

 cryst.   s(22) = (     0          1          0      )
                  (    -1         -1         -1      )
                  (     0          0          1      )

 cart.    s(22) = (  0.0000000  0.0000000  1.0000000 )
                  ( -1.0000000  0.0000000  0.0000000 )
                  (  0.0000000 -1.0000000  0.0000000 )


      isym = 23     120 deg rotation - cart. axis [1,-1,-1]      

 cryst.   s(23) = (    -1         -1         -1      )
                  (     0          1          0      )
                  (     1          0          0      )

 cart.    s(23) = (  0.0000000  0.0000000 -1.0000000 )
                  ( -1.0000000  0.0000000  0.0000000 )
                  (  0.0000000  1.0000000  0.0000000 )


      isym = 24     120 deg rotation - cart. axis [-1,-1,1]      

 cryst.   s(24) = (     0          0          1      )
                  (     1          0          0      )
                  (     0          1          0      )

 cart.    s(24) = (  0.0000000  0.0000000 -1.0000000 )
                  (  1.0000000  0.0000000  0.0000000 )
                  (  0.0000000 -1.0000000  0.0000000 )


      isym = 25     inversion                                    

 cryst.   s(25) = (    -1          0          0      )
                  (     0         -1          0      )
                  (     0          0         -1      )

 cart.    s(25) = ( -1.0000000  0.0000000  0.0000000 )
                  (  0.0000000 -1.0000000  0.0000000 )
                  (  0.0000000  0.0000000 -1.0000000 )


      isym = 26     inv. 180 deg rotation - cart. axis [0,0,1]   

 cryst.   s(26) = (     1          1          1      )
                  (     0          0         -1      )
                  (     0         -1          0      )

 cart.    s(26) = (  1.0000000  0.0000000  0.0000000 )
                  (  0.0000000  1.0000000  0.0000000 )
                  (  0.0000000  0.0000000 -1.0000000 )


      isym = 27     inv. 180 deg rotation - cart. axis [0,1,0]   

 cryst.   s(27) = (     0          0         -1      )
                  (     1          1          1      )
                  (    -1          0          0      )

 cart.    s(27) = (  1.0000000  0.0000000  0.0000000 )
                  (  0.0000000 -1.0000000  0.0000000 )
                  (  0.0000000  0.0000000  1.0000000 )


      isym = 28     inv. 180 deg rotation - cart. axis [1,0,0]   

 cryst.   s(28) = (     0         -1          0      )
                  (    -1          0          0      )
                  (     1          1          1      )

 cart.    s(28) = ( -1.0000000  0.0000000  0.0000000 )
                  (  0.0000000  1.0000000  0.0000000 )
                  (  0.0000000  0.0000000  1.0000000 )


      isym = 29     inv. 180 deg rotation - cart. axis [1,1,0]   

 cryst.   s(29) = (    -1         -1         -1      )
                  (     0          1          0      )
                  (     0          0          1      )

 cart.    s(29) = (  0.0000000 -1.0000000  0.0000000 )
                  ( -1.0000000  0.0000000  0.0000000 )
                  (  0.0000000  0.0000000  1.0000000 )


      isym = 30     inv. 180 deg rotation - cart. axis [1,-1,0]  

 cryst.   s(30) = (     1          0          0      )
                  (     0          0          1      )
                  (     0          1          0      )

 cart.    s(30) = (  0.0000000  1.0000000  0.0000000 )
                  (  1.0000000  0.0000000  0.0000000 )
                  (  0.0000000  0.0000000  1.0000000 )


      isym = 31     inv.  90 deg rotation - cart. axis [0,0,-1]  

 cryst.   s(31) = (     0          0          1      )
                  (     1          0          0      )
                  (    -1         -1         -1      )

 cart.    s(31) = (  0.0000000 -1.0000000  0.0000000 )
                  (  1.0000000  0.0000000  0.0000000 )
                  (  0.0000000  0.0000000 -1.0000000 )


      isym = 32     inv.  90 deg rotation - cart. axis [0,0,1]   

 cryst.   s(32) = (     0          1          0      )
                  (    -1         -1         -1      )
                  (     1          0          0      )

 cart.    s(32) = (  0.0000000  1.0000000  0.0000000 )
                  ( -1.0000000  0.0000000  0.0000000 )
                  (  0.0000000  0.0000000 -1.0000000 )


      isym = 33     inv. 180 deg rotation - cart. axis [1,0,1]   

 cryst.   s(33) = (     0          0          1      )
                  (     0          1          0      )
                  (     1          0          0      )

 cart.    s(33) = (  0.0000000  0.0000000 -1.0000000 )
                  (  0.0000000  1.0000000  0.0000000 )
                  ( -1.0000000  0.0000000  0.0000000 )


      isym = 34     inv. 180 deg rotation - cart. axis [-1,0,1]  

 cryst.   s(34) = (     1          0          0      )
                  (    -1         -1         -1      )
                  (     0          0          1      )

 cart.    s(34) = (  0.0000000  0.0000000  1.0000000 )
                  (  0.0000000  1.0000000  0.0000000 )
                  (  1.0000000  0.0000000  0.0000000 )


      isym = 35     inv.  90 deg rotation - cart. axis [0,1,0]   

 cryst.   s(35) = (    -1         -1         -1      )
                  (     1          0          0      )
                  (     0          1          0      )

 cart.    s(35) = (  0.0000000  0.0000000 -1.0000000 )
                  (  0.0000000 -1.0000000  0.0000000 )
                  (  1.0000000  0.0000000  0.0000000 )


      isym = 36     inv.  90 deg rotation - cart. axis [0,-1,0]  

 cryst.   s(36) = (     0          1          0      )
                  (     0          0          1      )
                  (    -1         -1         -1      )

 cart.    s(36) = (  0.0000000  0.0000000  1.0000000 )
                  (  0.0000000 -1.0000000  0.0000000 )
                  ( -1.0000000  0.0000000  0.0000000 )


      isym = 37     inv. 180 deg rotation - cart. axis [0,1,1]   

 cryst.   s(37) = (     0          1          0      )
                  (     1          0          0      )
                  (     0          0          1      )

 cart.    s(37) = (  1.0000000  0.0000000  0.0000000 )
                  (  0.0000000  0.0000000 -1.0000000 )
                  (  0.0000000 -1.0000000  0.0000000 )


      isym = 38     inv. 180 deg rotation - cart. axis [0,1,-1]  

 cryst.   s(38) = (     1          0          0      )
                  (     0          1          0      )
                  (    -1         -1         -1      )

 cart.    s(38) = (  1.0000000  0.0000000  0.0000000 )
                  (  0.0000000  0.0000000  1.0000000 )
                  (  0.0000000  1.0000000  0.0000000 )


      isym = 39     inv.  90 deg rotation - cart. axis [-1,0,0]  

 cryst.   s(39) = (    -1         -1         -1      )
                  (     0          0          1      )
                  (     1          0          0      )

 cart.    s(39) = ( -1.0000000  0.0000000  0.0000000 )
                  (  0.0000000  0.0000000 -1.0000000 )
                  (  0.0000000  1.0000000  0.0000000 )


      isym = 40     inv.  90 deg rotation - cart. axis [1,0,0]   

 cryst.   s(40) = (     0          0          1      )
                  (    -1         -1         -1      )
                  (     0          1          0      )

 cart.    s(40) = ( -1.0000000  0.0000000  0.0000000 )
                  (  0.0000000  0.0000000  1.0000000 )
                  (  0.0000000 -1.0000000  0.0000000 )


      isym = 41     inv. 120 deg rotation - cart. axis [-1,-1,-1]

 cryst.   s(41) = (    -1          0          0      )
                  (     1          1          1      )
                  (     0         -1          0      )

 cart.    s(41) = (  0.0000000 -1.0000000  0.0000000 )
                  (  0.0000000  0.0000000 -1.0000000 )
                  ( -1.0000000  0.0000000  0.0000000 )


      isym = 42     inv. 120 deg rotation - cart. axis [-1,1,1]  

 cryst.   s(42) = (     0          0         -1      )
                  (     0         -1          0      )
                  (     1          1          1      )

 cart.    s(42) = (  0.0000000  1.0000000  0.0000000 )
                  (  0.0000000  0.0000000 -1.0000000 )
                  (  1.0000000  0.0000000  0.0000000 )


      isym = 43     inv. 120 deg rotation - cart. axis [1,1,-1]  

 cryst.   s(43) = (     0         -1          0      )
                  (     0          0         -1      )
                  (    -1          0          0      )

 cart.    s(43) = (  0.0000000 -1.0000000  0.0000000 )
                  (  0.0000000  0.0000000  1.0000000 )
                  (  1.0000000  0.0000000  0.0000000 )


      isym = 44     inv. 120 deg rotation - cart. axis [1,-1,1]  

 cryst.   s(44) = (     1          1          1      )
                  (    -1          0          0      )
                  (     0          0         -1      )

 cart.    s(44) = (  0.0000000  1.0000000  0.0000000 )
                  (  0.0000000  0.0000000  1.0000000 )
                  ( -1.0000000  0.0000000  0.0000000 )


      isym = 45     inv. 120 deg rotation - cart. axis [1,1,1]   

 cryst.   s(45) = (    -1          0          0      )
                  (     0          0         -1      )
                  (     1          1          1      )

 cart.    s(45) = (  0.0000000  0.0000000 -1.0000000 )
                  ( -1.0000000  0.0000000  0.0000000 )
                  (  0.0000000 -1.0000000  0.0000000 )


      isym = 46     inv. 120 deg rotation - cart. axis [-1,1,-1] 

 cryst.   s(46) = (     0         -1          0      )
                  (     1          1          1      )
                  (     0          0         -1      )

 cart.    s(46) = (  0.0000000  0.0000000 -1.0000000 )
                  (  1.0000000  0.0000000  0.0000000 )
                  (  0.0000000  1.0000000  0.0000000 )


      isym = 47     inv. 120 deg rotation - cart. axis [1,-1,-1] 

 cryst.   s(47) = (     1          1          1      )
                  (     0         -1          0      )
                  (    -1          0          0      )

 cart.    s(47) = (  0.0000000  0.0000000  1.0000000 )
                  (  1.0000000  0.0000000  0.0000000 )
                  (  0.0000000 -1.0000000  0.0000000 )


      isym = 48     inv. 120 deg rotation - cart. axis [-1,-1,1] 

 cryst.   s(48) = (     0          0         -1      )
                  (    -1          0          0      )
                  (     0         -1          0      )

 cart.    s(48) = (  0.0000000  0.0000000  1.0000000 )
                  ( -1.0000000  0.0000000  0.0000000 )
                  (  0.0000000  1.0000000  0.0000000 )


   Cartesian axes

     site n.     atom                  positions (alat units)
         1           Al  tau(   1) = (   0.0000000   0.0000000   0.0000000  )

   Crystallographic axes

     site n.     atom                  positions (cryst. coord.)
         1           Al  tau(   1) = (  0.0000000  0.0000000  0.0000000  )

     number of k points=   195  Marzari-Vanderbilt smearing, width (Ry)=  0.0100
                       cart. coord. in units 2pi/alat
        k(    1) = (   0.0000000   0.0000000   0.0000000), wk =   0.0003429
        k(    2) = (   0.0000000   0.0481125  -0.0481125), wk =   0.0041152
        k(    3) = (   0.0000000   0.0962250  -0.0962250), wk =   0.0041152
        k(    4) = (   0.0000000   0.1443376  -0.1443376), wk =   0.0041152
        k(    5) = (   0.0000000   0.1924501  -0.1924501), wk =   0.0041152
        k(    6) = (   0.0000000   0.2405626  -0.2405626), wk =   0.0041152
        k(    7) = (   0.0000000   0.2886751  -0.2886751), wk =   0.0041152
        k(    8) = (   0.0000000   0.3367877  -0.3367877), wk =   0.0041152
        k(    9) = (   0.0000000   0.3849002  -0.3849002), wk =   0.0041152
        k(   10) = (   0.0000000  -0.4330127   0.4330127), wk =   0.0020576
        k(   11) = (   0.0481125   0.0481125  -0.0962250), wk =   0.0082305
        k(   12) = (   0.0481125   0.0962250  -0.1443376), wk =   0.0164609
        k(   13) = (   0.0481125   0.1443376  -0.1924501), wk =   0.0164609
        k(   14) = (   0.0481125   0.1924501  -0.2405626), wk =   0.0164609
        k(   15) = (   0.0481125   0.2405626  -0.2886751), wk =   0.0164609
        k(   16) = (   0.0481125   0.2886751  -0.3367877), wk =   0.0164609
        k(   17) = (   0.0481125   0.3367877  -0.3849002), wk =   0.0164609
        k(   18) = (   0.0481125   0.3849002  -0.4330127), wk =   0.0164609
        k(   19) = (   0.0962250   0.0962250  -0.1924501), wk =   0.0082305
        k(   20) = (   0.0962250   0.1443376  -0.2405626), wk =   0.0164609
        k(   21) = (   0.0962250   0.1924501  -0.2886751), wk =   0.0164609
        k(   22) = (   0.0962250   0.2405626  -0.3367877), wk =   0.0164609
        k(   23) = (   0.0962250   0.2886751  -0.3849002), wk =   0.0164609
        k(   24) = (   0.0962250   0.3367877  -0.4330127), wk =   0.0164609
        k(   25) = (   0.0962250   0.3849002  -0.4811252), wk =   0.0082305
        k(   26) = (   0.1443376   0.1443376  -0.2886751), wk =   0.0082305
        k(   27) = (   0.1443376   0.1924501  -0.3367877), wk =   0.0164609
        k(   28) = (   0.1443376   0.2405626  -0.3849002), wk =   0.0164609
        k(   29) = (   0.1443376   0.2886751  -0.4330127), wk =   0.0164609
        k(   30) = (   0.1443376   0.3367877  -0.4811252), wk =   0.0164609
        k(   31) = (   0.1924501   0.1924501  -0.3849002), wk =   0.0082305
        k(   32) = (   0.1924501   0.2405626  -0.4330127), wk =   0.0164609
        k(   33) = (   0.1924501   0.2886751  -0.4811252), wk =   0.0164609
        k(   34) = (   0.1924501   0.3367877  -0.5292377), wk =   0.0082305
        k(   35) = (   0.2405626   0.2405626  -0.4811252), wk =   0.0082305
        k(   36) = (   0.2405626   0.2886751  -0.5292377), wk =   0.0164609
        k(   37) = (   0.2886751   0.2886751  -0.5773503), wk =   0.0027435
        k(   38) = (   0.0962250   0.0962250  -0.0962250), wk =   0.0027435
        k(   39) = (   0.0962250   0.1443376  -0.1443376), wk =   0.0082305
        k(   40) = (   0.0962250   0.1924501  -0.1924501), wk =   0.0082305
        k(   41) = (   0.0962250   0.2405626  -0.2405626), wk =   0.0082305
        k(   42) = (   0.0962250   0.2886751  -0.2886751), wk =   0.0082305
        k(   43) = (   0.0962250   0.3367877  -0.3367877), wk =   0.0082305
        k(   44) = (   0.0962250   0.3849002  -0.3849002), wk =   0.0082305
        k(   45) = (   0.0962250   0.4330127  -0.4330127), wk =   0.0041152
        k(   46) = (   0.0962250  -0.0000000   0.0000000), wk =   0.0020576
        k(   47) = (   0.1443376   0.1443376  -0.1924501), wk =   0.0082305
        k(   48) = (   0.1443376   0.1924501  -0.2405626), wk =   0.0164609
        k(   49) = (   0.1443376   0.2405626  -0.2886751), wk =   0.0164609
        k(   50) = (   0.1443376   0.2886751  -0.3367877), wk =   0.0164609
        k(   51) = (   0.1443376   0.3367877  -0.3849002), wk =   0.0164609
        k(   52) = (   0.1443376   0.3849002  -0.4330127), wk =   0.0164609
        k(   53) = (   0.1443376  -0.0481125   0.0000000), wk =   0.0082305
        k(   54) = (   0.1924501   0.1924501  -0.2886751), wk =   0.0082305
        k(   55) = (   0.1924501   0.2405626  -0.3367877), wk =   0.0164609
        k(   56) = (   0.1924501   0.2886751  -0.3849002), wk =   0.0164609
        k(   57) = (   0.1924501   0.3367877  -0.4330127), wk =   0.0164609
        k(   58) = (   0.1924501   0.3849002  -0.4811252), wk =   0.0082305
        k(   59) = (   0.1924501  -0.0962250   0.0000000), wk =   0.0082305
        k(   60) = (   0.1924501  -0.0481125  -0.0481125), wk =   0.0082305
        k(   61) = (   0.2405626   0.2405626  -0.3849002), wk =   0.0082305
        k(   62) = (   0.2405626   0.2886751  -0.4330127), wk =   0.0164609
        k(   63) = (   0.2405626   0.3367877  -0.4811252), wk =   0.0164609
        k(   64) = (   0.2405626  -0.1443376   0.0000000), wk =   0.0082305
        k(   65) = (   0.2405626  -0.0962250  -0.0481125), wk =   0.0164609
        k(   66) = (   0.2886751   0.2886751  -0.4811252), wk =   0.0082305
        k(   67) = (   0.2886751   0.3367877  -0.5292377), wk =   0.0082305
        k(   68) = (   0.2886751  -0.1924501   0.0000000), wk =   0.0082305
        k(   69) = (   0.2886751  -0.1443376  -0.0481125), wk =   0.0164609
        k(   70) = (   0.2886751  -0.0962250  -0.0962250), wk =   0.0082305
        k(   71) = (   0.3367877  -0.2405626   0.0000000), wk =   0.0082305
        k(   72) = (   0.3367877  -0.1924501  -0.0481125), wk =   0.0164609
        k(   73) = (   0.3367877  -0.1443376  -0.0962250), wk =   0.0164609
        k(   74) = (   0.3849002  -0.2886751  -0.0000000), wk =   0.0082305
        k(   75) = (   0.3849002  -0.2405626  -0.0481125), wk =   0.0164609
        k(   76) = (   0.3849002  -0.1924501  -0.0962250), wk =   0.0164609
        k(   77) = (   0.3849002  -0.1443376  -0.1443376), wk =   0.0082305
        k(   78) = (   0.4330127  -0.3367877   0.0000000), wk =   0.0082305
        k(   79) = (   0.4330127  -0.2886751  -0.0481125), wk =   0.0164609
        k(   80) = (   0.4330127  -0.2405626  -0.0962250), wk =   0.0164609
        k(   81) = (   0.4330127  -0.1924501  -0.1443376), wk =   0.0164609
        k(   82) = (  -0.3849002  -0.3849002   0.8660254), wk =   0.0041152
        k(   83) = (  -0.3849002  -0.3367877   0.8179129), wk =   0.0164609
        k(   84) = (  -0.3849002  -0.2886751   0.7698004), wk =   0.0164609
        k(   85) = (  -0.3849002  -0.2405626   0.7216878), wk =   0.0164609
        k(   86) = (  -0.3849002  -0.1924501   0.6735753), wk =   0.0082305
        k(   87) = (  -0.3367877  -0.3367877   0.7698004), wk =   0.0082305
        k(   88) = (  -0.3367877  -0.2886751   0.7216878), wk =   0.0164609
        k(   89) = (  -0.3367877  -0.2405626   0.6735753), wk =   0.0164609
        k(   90) = (  -0.2886751  -0.2886751   0.6735753), wk =   0.0082305
        k(   91) = (  -0.2886751  -0.2405626   0.6254628), wk =   0.0082305
        k(   92) = (   0.1924501   0.1924501  -0.1924501), wk =   0.0027435
        k(   93) = (   0.1924501   0.2405626  -0.2405626), wk =   0.0082305
        k(   94) = (   0.1924501   0.2886751  -0.2886751), wk =   0.0082305
        k(   95) = (   0.1924501   0.3367877  -0.3367877), wk =   0.0082305
        k(   96) = (   0.1924501   0.3849002  -0.3849002), wk =   0.0082305
        k(   97) = (   0.1924501   0.4330127  -0.4330127), wk =   0.0041152
        k(   98) = (   0.1924501  -0.0000000   0.0000000), wk =   0.0020576
        k(   99) = (   0.2405626   0.2405626  -0.2886751), wk =   0.0082305
        k(  100) = (   0.2405626   0.2886751  -0.3367877), wk =   0.0164609
        k(  101) = (   0.2405626   0.3367877  -0.3849002), wk =   0.0164609
        k(  102) = (   0.2405626   0.3849002  -0.4330127), wk =   0.0164609
        k(  103) = (   0.2405626  -0.0481125   0.0000000), wk =   0.0082305
        k(  104) = (   0.2886751   0.2886751  -0.3849002), wk =   0.0082305
        k(  105) = (   0.2886751   0.3367877  -0.4330127), wk =   0.0164609
        k(  106) = (   0.2886751   0.3849002  -0.4811252), wk =   0.0082305
        k(  107) = (   0.2886751  -0.0962250   0.0000000), wk =   0.0082305
        k(  108) = (   0.2886751  -0.0481125  -0.0481125), wk =   0.0082305
        k(  109) = (   0.3367877   0.3367877  -0.4811252), wk =   0.0082305
        k(  110) = (   0.3367877  -0.1443376   0.0000000), wk =   0.0082305
        k(  111) = (   0.3367877  -0.0962250  -0.0481125), wk =   0.0164609
        k(  112) = (   0.3849002  -0.1924501   0.0000000), wk =   0.0082305
        k(  113) = (   0.3849002  -0.1443376  -0.0481125), wk =   0.0164609
        k(  114) = (   0.3849002  -0.0962250  -0.0962250), wk =   0.0082305
        k(  115) = (   0.4330127  -0.2405626  -0.0000000), wk =   0.0082305
        k(  116) = (   0.4330127  -0.1924501  -0.0481125), wk =   0.0164609
        k(  117) = (   0.4330127  -0.1443376  -0.0962250), wk =   0.0164609
        k(  118) = (   0.4811252  -0.2886751   0.0000000), wk =   0.0082305
        k(  119) = (   0.4811252  -0.2405626  -0.0481125), wk =   0.0164609
        k(  120) = (   0.4811252  -0.1924501  -0.0962250), wk =   0.0164609
        k(  121) = (   0.4811252  -0.1443376  -0.1443376), wk =   0.0082305
        k(  122) = (  -0.3367877  -0.3367877   0.8660254), wk =   0.0041152
        k(  123) = (  -0.3367877  -0.2886751   0.8179129), wk =   0.0164609
        k(  124) = (  -0.3367877  -0.2405626   0.7698004), wk =   0.0164609
        k(  125) = (  -0.3367877  -0.1924501   0.7216878), wk =   0.0164609
        k(  126) = (  -0.2886751  -0.2886751   0.7698004), wk =   0.0082305
        k(  127) = (  -0.2886751  -0.2405626   0.7216878), wk =   0.0164609
        k(  128) = (  -0.2886751  -0.1924501   0.6735753), wk =   0.0082305
        k(  129) = (  -0.2405626  -0.2405626   0.6735753), wk =   0.0082305
        k(  130) = (   0.2886751   0.2886751  -0.2886751), wk =   0.0027435
        k(  131) = (   0.2886751   0.3367877  -0.3367877), wk =   0.0082305
        k(  132) = (   0.2886751   0.3849002  -0.3849002), wk =   0.0082305
        k(  133) = (   0.2886751   0.4330127  -0.4330127), wk =   0.0041152
        k(  134) = (   0.2886751   0.0000000   0.0000000), wk =   0.0020576
        k(  135) = (   0.3367877   0.3367877  -0.3849002), wk =   0.0082305
        k(  136) = (   0.3367877   0.3849002  -0.4330127), wk =   0.0164609
        k(  137) = (   0.3367877  -0.0481125   0.0000000), wk =   0.0082305
        k(  138) = (   0.3849002   0.3849002  -0.4811252), wk =   0.0027435
        k(  139) = (   0.3849002  -0.0962250   0.0000000), wk =   0.0082305
        k(  140) = (   0.3849002  -0.0481125  -0.0481125), wk =   0.0082305
        k(  141) = (   0.4330127  -0.1443376   0.0000000), wk =   0.0082305
        k(  142) = (   0.4330127  -0.0962250  -0.0481125), wk =   0.0164609
        k(  143) = (   0.4811252  -0.1924501  -0.0000000), wk =   0.0082305
        k(  144) = (   0.4811252  -0.1443376  -0.0481125), wk =   0.0164609
        k(  145) = (   0.4811252  -0.0962250  -0.0962250), wk =   0.0082305
        k(  146) = (   0.5292377  -0.2405626   0.0000000), wk =   0.0082305
        k(  147) = (   0.5292377  -0.1924501  -0.0481125), wk =   0.0164609
        k(  148) = (   0.5292377  -0.1443376  -0.0962250), wk =   0.0164609
        k(  149) = (  -0.2886751  -0.2886751   0.8660254), wk =   0.0041152
        k(  150) = (  -0.2886751  -0.2405626   0.8179129), wk =   0.0164609
        k(  151) = (  -0.2886751  -0.1924501   0.7698004), wk =   0.0164609
        k(  152) = (  -0.2886751  -0.1443376   0.7216878), wk =   0.0082305
        k(  153) = (  -0.2405626  -0.2405626   0.7698004), wk =   0.0082305
        k(  154) = (  -0.2405626  -0.1924501   0.7216878), wk =   0.0164609
        k(  155) = (  -0.1924501  -0.1924501   0.6735753), wk =   0.0027435
        k(  156) = (   0.3849002   0.3849002  -0.3849002), wk =   0.0027435
        k(  157) = (   0.3849002   0.4330127  -0.4330127), wk =   0.0041152
        k(  158) = (   0.3849002   0.0000000   0.0000000), wk =   0.0020576
        k(  159) = (   0.4330127  -0.0481125   0.0000000), wk =   0.0082305
        k(  160) = (   0.4811252  -0.0962250   0.0000000), wk =   0.0082305
        k(  161) = (   0.4811252  -0.0481125  -0.0481125), wk =   0.0082305
        k(  162) = (   0.5292377  -0.1443376  -0.0000000), wk =   0.0082305
        k(  163) = (   0.5292377  -0.0962250  -0.0481125), wk =   0.0164609
        k(  164) = (   0.5773503  -0.1924501   0.0000000), wk =   0.0082305
        k(  165) = (   0.5773503  -0.1443376  -0.0481125), wk =   0.0164609
        k(  166) = (   0.5773503  -0.0962250  -0.0962250), wk =   0.0082305
        k(  167) = (  -0.2405626  -0.2405626   0.8660254), wk =   0.0041152
        k(  168) = (  -0.2405626  -0.1924501   0.8179129), wk =   0.0164609
        k(  169) = (  -0.2405626  -0.1443376   0.7698004), wk =   0.0164609
        k(  170) = (  -0.1924501  -0.1924501   0.7698004), wk =   0.0082305
        k(  171) = (  -0.1924501  -0.1443376   0.7216878), wk =   0.0082305
        k(  172) = (   0.4811252   0.0000000   0.0000000), wk =   0.0020576
        k(  173) = (   0.5292377  -0.0481125   0.0000000), wk =   0.0082305
        k(  174) = (   0.5773503  -0.0962250  -0.0000000), wk =   0.0082305
        k(  175) = (   0.5773503  -0.0481125  -0.0481125), wk =   0.0082305
        k(  176) = (   0.6254628  -0.1443376   0.0000000), wk =   0.0082305
        k(  177) = (   0.6254628  -0.0962250  -0.0481125), wk =   0.0164609
        k(  178) = (  -0.1924501  -0.1924501   0.8660254), wk =   0.0041152
        k(  179) = (  -0.1924501  -0.1443376   0.8179129), wk =   0.0164609
        k(  180) = (  -0.1924501  -0.0962250   0.7698004), wk =   0.0082305
        k(  181) = (  -0.1443376  -0.1443376   0.7698004), wk =   0.0082305
        k(  182) = (   0.5773503  -0.0000000   0.0000000), wk =   0.0020576
        k(  183) = (   0.6254628  -0.0481125  -0.0000000), wk =   0.0082305
        k(  184) = (   0.6735753  -0.0962250   0.0000000), wk =   0.0082305
        k(  185) = (   0.6735753  -0.0481125  -0.0481125), wk =   0.0082305
        k(  186) = (  -0.1443376  -0.1443376   0.8660254), wk =   0.0041152
        k(  187) = (  -0.1443376  -0.0962250   0.8179129), wk =   0.0164609
        k(  188) = (  -0.0962250  -0.0962250   0.7698004), wk =   0.0027435
        k(  189) = (   0.6735753   0.0000000  -0.0000000), wk =   0.0020576
        k(  190) = (   0.7216878  -0.0481125   0.0000000), wk =   0.0082305
        k(  191) = (  -0.0962250  -0.0962250   0.8660254), wk =   0.0041152
        k(  192) = (  -0.0962250  -0.0481125   0.8179129), wk =   0.0082305
        k(  193) = (   0.7698004   0.0000000   0.0000000), wk =   0.0020576
        k(  194) = (  -0.0481125  -0.0481125   0.8660254), wk =   0.0041152
        k(  195) = (  -0.8660254  -0.8660254   0.8660254), wk =   0.0003429

                       cryst. coord.
        k(    1) = (   0.0000000   0.0000000   0.0000000), wk =   0.0003429
        k(    2) = (   0.0000000   0.0000000   0.0555556), wk =   0.0041152
        k(    3) = (   0.0000000   0.0000000   0.1111111), wk =   0.0041152
        k(    4) = (   0.0000000   0.0000000   0.1666667), wk =   0.0041152
        k(    5) = (   0.0000000   0.0000000   0.2222222), wk =   0.0041152
        k(    6) = (   0.0000000   0.0000000   0.2777778), wk =   0.0041152
        k(    7) = (   0.0000000   0.0000000   0.3333333), wk =   0.0041152
        k(    8) = (   0.0000000   0.0000000   0.3888889), wk =   0.0041152
        k(    9) = (   0.0000000   0.0000000   0.4444444), wk =   0.0041152
        k(   10) = (   0.0000000   0.0000000  -0.5000000), wk =   0.0020576
        k(   11) = (   0.0000000   0.0555556   0.0555556), wk =   0.0082305
        k(   12) = (   0.0000000   0.0555556   0.1111111), wk =   0.0164609
        k(   13) = (   0.0000000   0.0555556   0.1666667), wk =   0.0164609
        k(   14) = (   0.0000000   0.0555556   0.2222222), wk =   0.0164609
        k(   15) = (   0.0000000   0.0555556   0.2777778), wk =   0.0164609
        k(   16) = (   0.0000000   0.0555556   0.3333333), wk =   0.0164609
        k(   17) = (   0.0000000   0.0555556   0.3888889), wk =   0.0164609
        k(   18) = (   0.0000000   0.0555556   0.4444444), wk =   0.0164609
        k(   19) = (   0.0000000   0.1111111   0.1111111), wk =   0.0082305
        k(   20) = (   0.0000000   0.1111111   0.1666667), wk =   0.0164609
        k(   21) = (   0.0000000   0.1111111   0.2222222), wk =   0.0164609
        k(   22) = (  -0.0000000   0.1111111   0.2777778), wk =   0.0164609
        k(   23) = (   0.0000000   0.1111111   0.3333333), wk =   0.0164609
        k(   24) = (  -0.0000000   0.1111111   0.3888889), wk =   0.0164609
        k(   25) = (   0.0000000   0.1111111   0.4444444), wk =   0.0082305
        k(   26) = (   0.0000000   0.1666667   0.1666667), wk =   0.0082305
        k(   27) = (   0.0000000   0.1666667   0.2222222), wk =   0.0164609
        k(   28) = (   0.0000000   0.1666667   0.2777778), wk =   0.0164609
        k(   29) = (   0.0000000   0.1666667   0.3333333), wk =   0.0164609
        k(   30) = (   0.0000000   0.1666667   0.3888889), wk =   0.0164609
        k(   31) = (   0.0000000   0.2222222   0.2222222), wk =   0.0082305
        k(   32) = (   0.0000000   0.2222222   0.2777778), wk =   0.0164609
        k(   33) = (   0.0000000   0.2222222   0.3333333), wk =   0.0164609
        k(   34) = (   0.0000000   0.2222222   0.3888889), wk =   0.0082305
        k(   35) = (   0.0000000   0.2777778   0.2777778), wk =   0.0082305
        k(   36) = (   0.0000000   0.2777778   0.3333333), wk =   0.0164609
        k(   37) = (   0.0000000   0.3333333   0.3333333), wk =   0.0027435
        k(   38) = (   0.0555556   0.0555556   0.0555556), wk =   0.0027435
        k(   39) = (   0.0555556   0.0555556   0.1111111), wk =   0.0082305
        k(   40) = (   0.0555556   0.0555556   0.1666667), wk =   0.0082305
        k(   41) = (   0.0555556   0.0555556   0.2222222), wk =   0.0082305
        k(   42) = (   0.0555556   0.0555556   0.2777778), wk =   0.0082305
        k(   43) = (   0.0555556   0.0555556   0.3333333), wk =   0.0082305
        k(   44) = (   0.0555556   0.0555556   0.3888889), wk =   0.0082305
        k(   45) = (   0.0555556   0.0555556   0.4444444), wk =   0.0041152
        k(   46) = (   0.0555556   0.0555556  -0.0555556), wk =   0.0020576
        k(   47) = (   0.0555556   0.1111111   0.1111111), wk =   0.0082305
        k(   48) = (   0.0555556   0.1111111   0.1666667), wk =   0.0164609
        k(   49) = (   0.0555556   0.1111111   0.2222222), wk =   0.0164609
        k(   50) = (   0.0555556   0.1111111   0.2777778), wk =   0.0164609
        k(   51) = (   0.0555556   0.1111111   0.3333333), wk =   0.0164609
        k(   52) = (   0.0555556   0.1111111   0.3888889), wk =   0.0164609
        k(   53) = (   0.0555556   0.1111111  -0.1111111), wk =   0.0082305
        k(   54) = (   0.0555556   0.1666667   0.1666667), wk =   0.0082305
        k(   55) = (   0.0555556   0.1666667   0.2222222), wk =   0.0164609
        k(   56) = (   0.0555556   0.1666667   0.2777778), wk =   0.0164609
        k(   57) = (   0.0555556   0.1666667   0.3333333), wk =   0.0164609
        k(   58) = (   0.0555556   0.1666667   0.3888889), wk =   0.0082305
        k(   59) = (   0.0555556   0.1666667  -0.1666667), wk =   0.0082305
        k(   60) = (   0.0555556   0.1666667  -0.1111111), wk =   0.0082305
        k(   61) = (   0.0555556   0.2222222   0.2222222), wk =   0.0082305
        k(   62) = (   0.0555556   0.2222222   0.2777778), wk =   0.0164609
        k(   63) = (   0.0555556   0.2222222   0.3333333), wk =   0.0164609
        k(   64) = (   0.0555556   0.2222222  -0.2222222), wk =   0.0082305
        k(   65) = (   0.0555556   0.2222222  -0.1666667), wk =   0.0164609
        k(   66) = (   0.0555556   0.2777778   0.2777778), wk =   0.0082305
        k(   67) = (   0.0555556   0.2777778   0.3333333), wk =   0.0082305
        k(   68) = (   0.0555556   0.2777778  -0.2777778), wk =   0.0082305
        k(   69) = (   0.0555556   0.2777778  -0.2222222), wk =   0.0164609
        k(   70) = (   0.0555556   0.2777778  -0.1666667), wk =   0.0082305
        k(   71) = (   0.0555556   0.3333333  -0.3333333), wk =   0.0082305
        k(   72) = (   0.0555556   0.3333333  -0.2777778), wk =   0.0164609
        k(   73) = (   0.0555556   0.3333333  -0.2222222), wk =   0.0164609
        k(   74) = (   0.0555556   0.3888889  -0.3888889), wk =   0.0082305
        k(   75) = (   0.0555556   0.3888889  -0.3333333), wk =   0.0164609
        k(   76) = (   0.0555556   0.3888889  -0.2777778), wk =   0.0164609
        k(   77) = (   0.0555556   0.3888889  -0.2222222), wk =   0.0082305
        k(   78) = (   0.0555556   0.4444444  -0.4444444), wk =   0.0082305
        k(   79) = (   0.0555556   0.4444444  -0.3888889), wk =   0.0164609
        k(   80) = (   0.0555556   0.4444444  -0.3333333), wk =   0.0164609
        k(   81) = (   0.0555556   0.4444444  -0.2777778), wk =   0.0164609
        k(   82) = (   0.0555556  -0.5000000  -0.5000000), wk =   0.0041152
        k(   83) = (   0.0555556  -0.5000000  -0.4444444), wk =   0.0164609
        k(   84) = (   0.0555556  -0.5000000  -0.3888889), wk =   0.0164609
        k(   85) = (   0.0555556  -0.5000000  -0.3333333), wk =   0.0164609
        k(   86) = (   0.0555556  -0.5000000  -0.2777778), wk =   0.0082305
        k(   87) = (   0.0555556  -0.4444444  -0.4444444), wk =   0.0082305
        k(   88) = (   0.0555556  -0.4444444  -0.3888889), wk =   0.0164609
        k(   89) = (   0.0555556  -0.4444444  -0.3333333), wk =   0.0164609
        k(   90) = (   0.0555556  -0.3888889  -0.3888889), wk =   0.0082305
        k(   91) = (   0.0555556  -0.3888889  -0.3333333), wk =   0.0082305
        k(   92) = (   0.1111111   0.1111111   0.1111111), wk =   0.0027435
        k(   93) = (   0.1111111   0.1111111   0.1666667), wk =   0.0082305
        k(   94) = (   0.1111111   0.1111111   0.2222222), wk =   0.0082305
        k(   95) = (   0.1111111   0.1111111   0.2777778), wk =   0.0082305
        k(   96) = (   0.1111111   0.1111111   0.3333333), wk =   0.0082305
        k(   97) = (   0.1111111   0.1111111   0.3888889), wk =   0.0041152
        k(   98) = (   0.1111111   0.1111111  -0.1111111), wk =   0.0020576
        k(   99) = (   0.1111111   0.1666667   0.1666667), wk =   0.0082305
        k(  100) = (   0.1111111   0.1666667   0.2222222), wk =   0.0164609
        k(  101) = (   0.1111111   0.1666667   0.2777778), wk =   0.0164609
        k(  102) = (   0.1111111   0.1666667   0.3333333), wk =   0.0164609
        k(  103) = (   0.1111111   0.1666667  -0.1666667), wk =   0.0082305
        k(  104) = (   0.1111111   0.2222222   0.2222222), wk =   0.0082305
        k(  105) = (   0.1111111   0.2222222   0.2777778), wk =   0.0164609
        k(  106) = (   0.1111111   0.2222222   0.3333333), wk =   0.0082305
        k(  107) = (   0.1111111   0.2222222  -0.2222222), wk =   0.0082305
        k(  108) = (   0.1111111   0.2222222  -0.1666667), wk =   0.0082305
        k(  109) = (   0.1111111   0.2777778   0.2777778), wk =   0.0082305
        k(  110) = (   0.1111111   0.2777778  -0.2777778), wk =   0.0082305
        k(  111) = (   0.1111111   0.2777778  -0.2222222), wk =   0.0164609
        k(  112) = (   0.1111111   0.3333333  -0.3333333), wk =   0.0082305
        k(  113) = (   0.1111111   0.3333333  -0.2777778), wk =   0.0164609
        k(  114) = (   0.1111111   0.3333333  -0.2222222), wk =   0.0082305
        k(  115) = (   0.1111111   0.3888889  -0.3888889), wk =   0.0082305
        k(  116) = (   0.1111111   0.3888889  -0.3333333), wk =   0.0164609
        k(  117) = (   0.1111111   0.3888889  -0.2777778), wk =   0.0164609
        k(  118) = (   0.1111111   0.4444444  -0.4444444), wk =   0.0082305
        k(  119) = (   0.1111111   0.4444444  -0.3888889), wk =   0.0164609
        k(  120) = (   0.1111111   0.4444444  -0.3333333), wk =   0.0164609
        k(  121) = (   0.1111111   0.4444444  -0.2777778), wk =   0.0082305
        k(  122) = (   0.1111111  -0.5000000  -0.5000000), wk =   0.0041152
        k(  123) = (   0.1111111  -0.5000000  -0.4444444), wk =   0.0164609
        k(  124) = (   0.1111111  -0.5000000  -0.3888889), wk =   0.0164609
        k(  125) = (   0.1111111  -0.5000000  -0.3333333), wk =   0.0164609
        k(  126) = (   0.1111111  -0.4444444  -0.4444444), wk =   0.0082305
        k(  127) = (   0.1111111  -0.4444444  -0.3888889), wk =   0.0164609
        k(  128) = (   0.1111111  -0.4444444  -0.3333333), wk =   0.0082305
        k(  129) = (   0.1111111  -0.3888889  -0.3888889), wk =   0.0082305
        k(  130) = (   0.1666667   0.1666667   0.1666667), wk =   0.0027435
        k(  131) = (   0.1666667   0.1666667   0.2222222), wk =   0.0082305
        k(  132) = (   0.1666667   0.1666667   0.2777778), wk =   0.0082305
        k(  133) = (   0.1666667   0.1666667   0.3333333), wk =   0.0041152
        k(  134) = (   0.1666667   0.1666667  -0.1666667), wk =   0.0020576
        k(  135) = (   0.1666667   0.2222222   0.2222222), wk =   0.0082305
        k(  136) = (   0.1666667   0.2222222   0.2777778), wk =   0.0164609
        k(  137) = (   0.1666667   0.2222222  -0.2222222), wk =   0.0082305
        k(  138) = (   0.1666667   0.2777778   0.2777778), wk =   0.0027435
        k(  139) = (   0.1666667   0.2777778  -0.2777778), wk =   0.0082305
        k(  140) = (   0.1666667   0.2777778  -0.2222222), wk =   0.0082305
        k(  141) = (   0.1666667   0.3333333  -0.3333333), wk =   0.0082305
        k(  142) = (   0.1666667   0.3333333  -0.2777778), wk =   0.0164609
        k(  143) = (   0.1666667   0.3888889  -0.3888889), wk =   0.0082305
        k(  144) = (   0.1666667   0.3888889  -0.3333333), wk =   0.0164609
        k(  145) = (   0.1666667   0.3888889  -0.2777778), wk =   0.0082305
        k(  146) = (   0.1666667   0.4444444  -0.4444444), wk =   0.0082305
        k(  147) = (   0.1666667   0.4444444  -0.3888889), wk =   0.0164609
        k(  148) = (   0.1666667   0.4444444  -0.3333333), wk =   0.0164609
        k(  149) = (   0.1666667  -0.5000000  -0.5000000), wk =   0.0041152
        k(  150) = (   0.1666667  -0.5000000  -0.4444444), wk =   0.0164609
        k(  151) = (   0.1666667  -0.5000000  -0.3888889), wk =   0.0164609
        k(  152) = (   0.1666667  -0.5000000  -0.3333333), wk =   0.0082305
        k(  153) = (   0.1666667  -0.4444444  -0.4444444), wk =   0.0082305
        k(  154) = (   0.1666667  -0.4444444  -0.3888889), wk =   0.0164609
        k(  155) = (   0.1666667  -0.3888889  -0.3888889), wk =   0.0027435
        k(  156) = (   0.2222222   0.2222222   0.2222222), wk =   0.0027435
        k(  157) = (   0.2222222   0.2222222   0.2777778), wk =   0.0041152
        k(  158) = (   0.2222222   0.2222222  -0.2222222), wk =   0.0020576
        k(  159) = (   0.2222222   0.2777778  -0.2777778), wk =   0.0082305
        k(  160) = (   0.2222222   0.3333333  -0.3333333), wk =   0.0082305
        k(  161) = (   0.2222222   0.3333333  -0.2777778), wk =   0.0082305
        k(  162) = (   0.2222222   0.3888889  -0.3888889), wk =   0.0082305
        k(  163) = (   0.2222222   0.3888889  -0.3333333), wk =   0.0164609
        k(  164) = (   0.2222222   0.4444444  -0.4444444), wk =   0.0082305
        k(  165) = (   0.2222222   0.4444444  -0.3888889), wk =   0.0164609
        k(  166) = (   0.2222222   0.4444444  -0.3333333), wk =   0.0082305
        k(  167) = (   0.2222222  -0.5000000  -0.5000000), wk =   0.0041152
        k(  168) = (   0.2222222  -0.5000000  -0.4444444), wk =   0.0164609
        k(  169) = (   0.2222222  -0.5000000  -0.3888889), wk =   0.0164609
        k(  170) = (   0.2222222  -0.4444444  -0.4444444), wk =   0.0082305
        k(  171) = (   0.2222222  -0.4444444  -0.3888889), wk =   0.0082305
        k(  172) = (   0.2777778   0.2777778  -0.2777778), wk =   0.0020576
        k(  173) = (   0.2777778   0.3333333  -0.3333333), wk =   0.0082305
        k(  174) = (   0.2777778   0.3888889  -0.3888889), wk =   0.0082305
        k(  175) = (   0.2777778   0.3888889  -0.3333333), wk =   0.0082305
        k(  176) = (   0.2777778   0.4444444  -0.4444444), wk =   0.0082305
        k(  177) = (   0.2777778   0.4444444  -0.3888889), wk =   0.0164609
        k(  178) = (   0.2777778  -0.5000000  -0.5000000), wk =   0.0041152
        k(  179) = (   0.2777778  -0.5000000  -0.4444444), wk =   0.0164609
        k(  180) = (   0.2777778  -0.5000000  -0.3888889), wk =   0.0082305
        k(  181) = (   0.2777778  -0.4444444  -0.4444444), wk =   0.0082305
        k(  182) = (   0.3333333   0.3333333  -0.3333333), wk =   0.0020576
        k(  183) = (   0.3333333   0.3888889  -0.3888889), wk =   0.0082305
        k(  184) = (   0.3333333   0.4444444  -0.4444444), wk =   0.0082305
        k(  185) = (   0.3333333   0.4444444  -0.3888889), wk =   0.0082305
        k(  186) = (   0.3333333  -0.5000000  -0.5000000), wk =   0.0041152
        k(  187) = (   0.3333333  -0.5000000  -0.4444444), wk =   0.0164609
        k(  188) = (   0.3333333  -0.4444444  -0.4444444), wk =   0.0027435
        k(  189) = (   0.3888889   0.3888889  -0.3888889), wk =   0.0020576
        k(  190) = (   0.3888889   0.4444444  -0.4444444), wk =   0.0082305
        k(  191) = (   0.3888889  -0.5000000  -0.5000000), wk =   0.0041152
        k(  192) = (   0.3888889  -0.5000000  -0.4444444), wk =   0.0082305
        k(  193) = (   0.4444444   0.4444444  -0.4444444), wk =   0.0020576
        k(  194) = (   0.4444444  -0.5000000  -0.5000000), wk =   0.0041152
        k(  195) = (  -0.5000000  -0.5000000  -0.5000000), wk =   0.0003429

     Dense  grid:     1865 G-vectors     FFT dimensions: (  18,  18,  18)

     Dynamical RAM for                 wfc:       0.01 MB

     Dynamical RAM for     wfc (w. buffer):       2.14 MB

     Dynamical RAM for           str. fact:       0.01 MB

     Dynamical RAM for           local pot:       0.00 MB

     Dynamical RAM for          nlocal pot:       0.02 MB

     Dynamical RAM for                qrad:       0.19 MB

     Dynamical RAM for          rho,v,vnew:       0.11 MB

     Dynamical RAM for               rhoin:       0.04 MB

     Dynamical RAM for            rho*nmix:       0.23 MB

     Dynamical RAM for           G-vectors:       0.06 MB

     Dynamical RAM for          h,s,v(r/c):       0.03 MB

     Dynamical RAM for          <psi|beta>:       0.00 MB

     Dynamical RAM for                 psi:       0.04 MB

     Dynamical RAM for                hpsi:       0.04 MB

     Dynamical RAM for                spsi:       0.04 MB

     Dynamical RAM for      wfcinit/wfcrot:       0.02 MB

     Dynamical RAM for           addusdens:       0.87 MB

     Estimated static dynamical RAM per process >       2.93 MB

     Estimated max dynamical RAM per process >       3.80 MB

     Estimated total dynamical RAM >       7.60 MB

     Initial potential from superposition of free atoms

     starting charge    2.99753, renormalised to    3.00000
     Starting wfc are    4 randomized atomic wfcs +    2 random wfc

     total cpu time spent up to now is        0.4 secs

     Self-consistent Calculation

     iteration #  1     ecut=    25.00 Ry     beta= 0.70
     Davidson diagonalization with overlap
     ethr =  1.00E-02,  avg # of iterations =  4.7

     Threshold (ethr) on eigenvalues was too large:
     Diagonalizing with lowered threshold

     Davidson diagonalization with overlap
     ethr =  1.91E-04,  avg # of iterations =  1.5

     total cpu time spent up to now is        1.7 secs

     total energy              =      -6.70063860 Ry
     Harris-Foulkes estimate   =      -6.70269795 Ry
     estimated scf accuracy    <       0.00570604 Ry

     iteration #  2     ecut=    25.00 Ry     beta= 0.70
     Davidson diagonalization with overlap
     ethr =  1.90E-04,  avg # of iterations =  1.0

     total cpu time spent up to now is        2.2 secs

     total energy              =      -6.70067661 Ry
     Harris-Foulkes estimate   =      -6.70078176 Ry
     estimated scf accuracy    <       0.00030443 Ry

     iteration #  3     ecut=    25.00 Ry     beta= 0.70
     Davidson diagonalization with overlap
     ethr =  1.01E-05,  avg # of iterations =  1.7

     total cpu time spent up to now is        2.8 secs

     End of self-consistent calculation

          k = 0.0000 0.0000 0.0000 (   225 PWs)   bands (ev):

    -3.2978  20.9699  20.9701  22.0558  22.0558  22.0558

     occupation numbers 
     1.0000   0.0000   0.0000   0.0000   0.0000   0.0000

          k = 0.0000 0.0481-0.0481 (   229 PWs)   bands (ev):

    -3.2096  19.7487  20.1993  20.6052  21.7441  22.6122

     occupation numbers 
     1.0000   0.0000   0.0000   0.0000   0.0000   0.0000

          k = 0.0000 0.0962-0.0962 (   231 PWs)   bands (ev):

    -2.9452  17.6456  19.1939  19.7995  21.0213  22.1756

     occupation numbers 
     1.0000   0.0000   0.0000   0.0000   0.0000   0.0000

          k = 0.0000 0.1443-0.1443 (   229 PWs)   bands (ev):

    -2.5055  15.3767  18.2971  18.9042  20.2049  21.4117

     occupation numbers 
     1.0000   0.0000   0.0000   0.0000   0.0000   0.0000

          k = 0.0000 0.1925-0.1925 (   235 PWs)   bands (ev):

    -1.8918  13.1364  17.5336  18.0719  19.4460  20.7304

     occupation numbers 
     1.0000   0.0000   0.0000   0.0000   0.0000   0.0000

          k = 0.0000 0.2406-0.2406 (   241 PWs)   bands (ev):

    -1.1061  10.9899  16.9080  17.3601  18.7988  20.1378

     occupation numbers 
     1.0000   0.0000   0.0000   0.0000   0.0000   0.0000

          k = 0.0000 0.2887-0.2887 (   241 PWs)   bands (ev):

    -0.1510   8.9639  16.4214  16.7937  18.2849  19.6534

     occupation numbers 
     1.0000   0.0000   0.0000   0.0000   0.0000   0.0000

          k = 0.0000 0.3368-0.3368 (   247 PWs)   bands (ev):

     0.9697   7.0732  16.0740  16.3838  17.9138  19.2943

     occupation numbers 
     1.0000   1.0000   0.0000   0.0000   0.0000   0.0000

          k = 0.0000 0.3849-0.3849 (   242 PWs)   bands (ev):

     2.2482   5.3310  15.8657  16.1361  17.6899  19.0738

     occupation numbers 
     1.0000   1.0000   0.0000   0.0000   0.0000   0.0000

          k = 0.0000-0.4330 0.4330 (   234 PWs)   bands (ev):

     3.4820   3.9424  15.7963  16.0534  17.6150  18.9995

     occupation numbers 
     1.0000   1.0000   0.0000   0.0000   0.0000   0.0000

          k = 0.0481 0.0481-0.0962 (   232 PWs)   bands (ev):

    -3.0333  18.7268  18.7551  19.9241  21.7276  22.4939

     occupation numbers 
     1.0000   0.0000   0.0000   0.0000   0.0000   0.0000

          k = 0.0481 0.0962-0.1443 (   230 PWs)   bands (ev):

    -2.6813  16.5571  17.7562  19.0474  21.2065  22.0581

     occupation numbers 
     1.0000   0.0000   0.0000   0.0000   0.0000   0.0000

          k = 0.0481 0.1443-0.1925 (   232 PWs)   bands (ev):

    -2.1546  14.2994  16.8799  18.2092  20.4380  21.6488

     occupation numbers 
     1.0000   0.0000   0.0000   0.0000   0.0000   0.0000

          k = 0.0481 0.1925-0.2406 (   236 PWs)   bands (ev):

    -1.4549  12.1056  16.1335  17.4818  19.7311  21.1507

     occupation numbers 
     1.0000   0.0000   0.0000   0.0000   0.0000   0.0000

          k = 0.0481 0.2406-0.2887 (   241 PWs)   bands (ev):

    -0.5844  10.0197  15.5277  16.8896  19.1419  20.6769

     occupation numbers 
     1.0000   0.0000   0.0000   0.0000   0.0000   0.0000

          k = 0.0481 0.2887-0.3368 (   242 PWs)   bands (ev):

     0.4536   8.0616  15.0687  16.4418  18.6902  20.2902

     occupation numbers 
     1.0000   0.0003   0.0000   0.0000   0.0000   0.0000

          k = 0.0481 0.3368-0.3849 (   243 PWs)   bands (ev):

     1.6543   6.2444  14.7607  16.1421  18.3851  20.0205

     occupation numbers 
     1.0000   1.0000   0.0000   0.0000   0.0000   0.0000

          k = 0.0481 0.3849-0.4330 (   242 PWs)   bands (ev):

     2.9985   4.5911  14.6061  15.9920  18.2316  19.8823

     occupation numbers 
     1.0000   1.0000   0.0000   0.0000   0.0000   0.0000

          k = 0.0962 0.0962-0.1925 (   230 PWs)   bands (ev):

    -2.2422  15.4515  15.7107  18.2292  21.4856  21.5893

     occupation numbers 
     1.0000   0.0000   0.0000   0.0000   0.0000   0.0000

          k = 0.0962 0.1443-0.2406 (   236 PWs)   bands (ev):

    -1.6295  13.3444  14.7617  17.4691  20.8493  21.8620

     occupation numbers 
     1.0000   0.0000   0.0000   0.0000   0.0000   0.0000

          k = 0.0962 0.1925-0.2887 (   241 PWs)   bands (ev):

    -0.8450  11.2176  14.0559  16.8207  20.2208  22.0741

     occupation numbers 
     1.0000   0.0000   0.0000   0.0000   0.0000   0.0000

          k = 0.0962 0.2406-0.3368 (   241 PWs)   bands (ev):

     0.1085   9.2020  13.5050  16.3059  19.7098  22.0251

     occupation numbers 
     1.0000   0.0000   0.0000   0.0000   0.0000   0.0000

          k = 0.0962 0.2887-0.3849 (   244 PWs)   bands (ev):

     1.2272   7.3180  13.1098  15.9338  19.3361  21.8538

     occupation numbers 
     1.0000   1.0002   0.0000   0.0000   0.0000   0.0000

          k = 0.0962 0.3368-0.4330 (   240 PWs)   bands (ev):

     2.5031   5.5808  12.8719  15.7092  19.1089  21.7124

     occupation numbers 
     1.0000   1.0000   0.0000   0.0000   0.0000   0.0000

          k = 0.0962 0.3849-0.4811 (   240 PWs)   bands (ev):

     3.7306   4.1993  12.7925  15.6341  19.0328  21.6608

     occupation numbers 
     1.0000   1.0000   0.0000   0.0000   0.0000   0.0000

          k = 0.1443 0.1443-0.2887 (   236 PWs)   bands (ev):

    -0.9320  12.3482  12.8140  16.7830  21.2990  21.4682

     occupation numbers 
     1.0000   0.0000   0.0000   0.0000   0.0000   0.0000

          k = 0.1443 0.1925-0.3368 (   239 PWs)   bands (ev):

    -0.0644  10.4663  11.9929  16.2071  20.8495  22.0412

     occupation numbers 
     1.0000   0.0000   0.0000   0.0000   0.0000   0.0000

          k = 0.1443 0.2406-0.3849 (   241 PWs)   bands (ev):

     0.9700   8.5384  11.4948  15.7648  20.4297  22.7122

     occupation numbers 
     1.0000   0.0000   0.0000   0.0000   0.0000   0.0000

          k = 0.1443 0.2887-0.4330 (   239 PWs)   bands (ev):

     2.1661   6.7361  11.1677  15.4660  20.1396  23.2243

     occupation numbers 
     1.0000   1.0000   0.0000   0.0000   0.0000   0.0000

          k = 0.1443 0.3368-0.4811 (   238 PWs)   bands (ev):

     3.5035   5.0937  11.0046  15.3156  19.9922  23.4294

     occupation numbers 
     1.0000   1.0000   0.0000   0.0000   0.0000   0.0000

          k = 0.1925 0.1925-0.3849 (   240 PWs)   bands (ev):

     0.8842   9.6635  10.2337  15.7036  21.5174  21.7809

     occupation numbers 
     1.0000   0.0000   0.0000   0.0000   0.0000   0.0000

          k = 0.1925 0.2406-0.4330 (   238 PWs)   bands (ev):

     1.9966   8.0185   9.6023  15.3346  21.3060  22.5776

     occupation numbers 
     1.0000   0.0015   0.0000   0.0000   0.0000   0.0000

          k = 0.1925 0.2887-0.4811 (   235 PWs)   bands (ev):

     3.2642   6.3172   9.3341  15.1103  21.1048  23.5609

     occupation numbers 
     1.0000   1.0000   0.0000   0.0000   0.0000   0.0000

          k = 0.1925 0.3368-0.5292 (   236 PWs)   bands (ev):

     4.4757   4.9574   9.2478  15.0350  21.0354  24.3092

     occupation numbers 
     1.0000   1.0000   0.0000   0.0000   0.0000   0.0000

          k = 0.2406 0.2406-0.4811 (   238 PWs)   bands (ev):

     3.1821   7.4473   8.0556  15.0401  22.2236  22.4690

     occupation numbers 
     1.0000   1.0106   0.0004   0.0000   0.0000   0.0000

          k = 0.2406 0.2887-0.5292 (   237 PWs)   bands (ev):

     4.5038   6.0545   7.6583  14.8909  22.2135  23.4993

     occupation numbers 
     1.0000   1.0000   1.0080   0.0000   0.0000   0.0000

          k = 0.2887 0.2887-0.5774 (   240 PWs)   bands (ev):

     5.7158   5.7158   6.5512  14.8170  23.4050  23.5340

     occupation numbers 
     1.0000   1.0000   1.0000   0.0000   0.0000   0.0000

          k = 0.0962 0.0962-0.0962 (   231 PWs)   bands (ev):

    -2.7692  17.7867  17.7867  17.8126  22.7961  22.7961

     occupation numbers 
     1.0000   0.0000   0.0000   0.0000   0.0000   0.0000

          k = 0.0962 0.1443-0.1443 (   230 PWs)   bands (ev):

    -2.3300  15.5220  16.8234  16.9250  22.3144  22.8533

     occupation numbers 
     1.0000   0.0000   0.0000   0.0000   0.0000   0.0000

          k = 0.0962 0.1925-0.1925 (   239 PWs)   bands (ev):

    -1.7169  13.2868  15.9688  16.1510  21.7099  22.2486

     occupation numbers 
     1.0000   0.0000   0.0000   0.0000   0.0000   0.0000

          k = 0.0962 0.2406-0.2406 (   239 PWs)   bands (ev):

    -0.9320  11.1457  15.2541  15.5053  21.1274  21.7109

     occupation numbers 
     1.0000   0.0000   0.0000   0.0000   0.0000   0.0000

          k = 0.0962 0.2887-0.2887 (   241 PWs)   bands (ev):

     0.0220   9.1242  14.6916  14.9969  20.6397  21.2671

     occupation numbers 
     1.0000   0.0000   0.0000   0.0000   0.0000   0.0000

          k = 0.0962 0.3368-0.3368 (   245 PWs)   bands (ev):

     1.1414   7.2371  14.2870  14.6308  20.2788  20.9373

     occupation numbers 
     1.0000   1.0000   0.0000   0.0000   0.0000   0.0000

          k = 0.0962 0.3849-0.3849 (   240 PWs)   bands (ev):

     2.4182   5.4979  14.0435  14.4101  20.0582  20.7344

     occupation numbers 
     1.0000   1.0000   0.0000   0.0000   0.0000   0.0000

          k = 0.0962 0.4330-0.4330 (   242 PWs)   bands (ev):

     3.6477   4.1139  13.9621  14.3363  19.9840  20.6660

     occupation numbers 
     1.0000   1.0000   0.0000   0.0000   0.0000   0.0000

          k = 0.0962-0.0000 0.0000 (   229 PWs)   bands (ev):

    -3.1214  19.2859  19.2860  21.0991  21.1409  21.9229

     occupation numbers 
     1.0000   0.0000   0.0000   0.0000   0.0000   0.0000

          k = 0.1443 0.1443-0.1925 (   235 PWs)   bands (ev):

    -1.8044  14.4498  14.7730  16.0394  22.8402  23.1435

     occupation numbers 
     1.0000   0.0000   0.0000   0.0000   0.0000   0.0000

          k = 0.1443 0.1925-0.2406 (   239 PWs)   bands (ev):

    -1.1061  12.3986  13.8636  15.3023  22.4694  23.1793

     occupation numbers 
     1.0000   0.0000   0.0000   0.0000   0.0000   0.0000

          k = 0.1443 0.2406-0.2887 (   241 PWs)   bands (ev):

    -0.2376  10.3314  13.2231  14.7007  21.9711  23.0267

     occupation numbers 
     1.0000   0.0000   0.0000   0.0000   0.0000   0.0000

          k = 0.1443 0.2887-0.3368 (   242 PWs)   bands (ev):

     0.7981   8.3838  12.7428  14.2441  21.5659  22.7778

     occupation numbers 
     1.0000   0.0000   0.0000   0.0000   0.0000   0.0000

          k = 0.1443 0.3368-0.3849 (   244 PWs)   bands (ev):

     1.9958   6.5740  12.4217  13.9375  21.2860  22.5708

     occupation numbers 
     1.0000   1.0000   0.0000   0.0000   0.0000   0.0000

          k = 0.1443 0.3849-0.4330 (   240 PWs)   bands (ev):

     3.3355   4.9272  12.2609  13.7837  21.1435  22.4585

     occupation numbers 
     1.0000   1.0000   0.0000   0.0000   0.0000   0.0000

          k = 0.1443-0.0481 0.0000 (   233 PWs)   bands (ev):

    -2.8572  17.6059  18.2352  20.4142  20.7917  21.1002

     occupation numbers 
     1.0000   0.0000   0.0000   0.0000   0.0000   0.0000

          k = 0.1925 0.1925-0.2887 (   239 PWs)   bands (ev):

    -0.3242  11.4637  11.9650  14.6309  23.0654  23.1414

     occupation numbers 
     1.0000   0.0000   0.0000   0.0000   0.0000   0.0000

          k = 0.1925 0.2406-0.3368 (   239 PWs)   bands (ev):

     0.6261   9.6558  11.2050  14.0984  22.7226  23.7214

     occupation numbers 
     1.0000   0.0000   0.0000   0.0000   0.0000   0.0000

          k = 0.1925 0.2887-0.3849 (   238 PWs)   bands (ev):

     1.7407   7.7999  10.7817  13.7135  22.4040  24.1698

     occupation numbers 
     1.0000   0.3360   0.0000   0.0000   0.0000   0.0000

          k = 0.1925 0.3368-0.4330 (   241 PWs)   bands (ev):

     3.0113   6.0763  10.5329  13.4810  22.2028  24.3379

     occupation numbers 
     1.0000   1.0000   0.0000   0.0000   0.0000   0.0000

          k = 0.1925 0.3849-0.4811 (   244 PWs)   bands (ev):

     4.2275   4.7082  10.4504  13.4033  22.1346  24.3658

     occupation numbers 
     1.0000   1.0000   0.0000   0.0000   0.0000   0.0000

          k = 0.1925-0.0962 0.0000 (   227 PWs)   bands (ev):

    -2.4177  15.4205  17.2904  19.5357  20.0285  21.0335

     occupation numbers 
     1.0000   0.0000   0.0000   0.0000   0.0000   0.0000

          k = 0.1925-0.0481-0.0481 (   230 PWs)   bands (ev):

    -2.5055  16.5030  16.6306  19.8661  20.1550  20.7299

     occupation numbers 
     1.0000   0.0000   0.0000   0.0000   0.0000   0.0000

          k = 0.2406 0.2406-0.3849 (   239 PWs)   bands (ev):

     1.6555   8.9286   9.5117  13.6387  23.5633  23.5783

     occupation numbers 
     1.0000   0.0000   0.0000   0.0000   0.0000   0.0000

          k = 0.2406 0.2887-0.4330 (   240 PWs)   bands (ev):

     2.8451   7.3617   8.9552  13.3290  23.3588  24.4875

     occupation numbers 
     1.0000   1.0008   0.0000   0.0000   0.0000   0.0000

          k = 0.2406 0.3368-0.4811 (   240 PWs)   bands (ev):

     4.1730   5.7514   8.7689  13.1733  23.2391  25.3280

     occupation numbers 
     1.0000   1.0000   0.0000   0.0000   0.0000   0.0000

          k = 0.2406-0.1443 0.0000 (   234 PWs)   bands (ev):

    -1.8043  13.2025  16.4769  18.7285  19.2694  20.9651

     occupation numbers 
     1.0000   0.0000   0.0000   0.0000   0.0000   0.0000

          k = 0.2406-0.0962-0.0481 (   234 PWs)   bands (ev):

    -1.9794  14.4056  15.6711  19.0934  19.8028  20.5594

     occupation numbers 
     1.0000   0.0000   0.0000   0.0000   0.0000   0.0000

          k = 0.2887 0.2887-0.4811 (   238 PWs)   bands (ev):

     4.1005   6.8717   7.4890  13.0962  24.4124  24.4333

     occupation numbers 
     1.0000   1.0000   1.0265   0.0000   0.0000   0.0000

          k = 0.2887 0.3368-0.5292 (   238 PWs)   bands (ev):

     5.3030   5.7311   7.1927  13.0183  24.3821  25.4243

     occupation numbers 
     1.0000   1.0000   1.0000   0.0000   0.0000   0.0000

          k = 0.2887-0.1925 0.0000 (   237 PWs)   bands (ev):

    -1.0190  11.0646  15.8041  18.0512  18.6135  20.7084

     occupation numbers 
     1.0000   0.0000   0.0000   0.0000   0.0000   0.0000

          k = 0.2887-0.1443-0.0481 (   236 PWs)   bands (ev):

    -1.2804  12.2450  14.9045  18.3610  19.2208  20.8431

     occupation numbers 
     1.0000   0.0000   0.0000   0.0000   0.0000   0.0000

          k = 0.2887-0.0962-0.0962 (   236 PWs)   bands (ev):

    -1.3676  13.3710  13.7498  18.7634  19.5456  20.1995

     occupation numbers 
     1.0000   0.0000   0.0000   0.0000   0.0000   0.0000

          k = 0.3368-0.2406 0.0000 (   242 PWs)   bands (ev):

    -0.0645   9.0429  15.2769  17.5162  18.0911  20.3789

     occupation numbers 
     1.0000   0.0000   0.0000   0.0000   0.0000   0.0000

          k = 0.3368-0.1925-0.0481 (   238 PWs)   bands (ev):

    -0.4109  10.1726  14.2869  17.7665  18.6631  21.1407

     occupation numbers 
     1.0000   0.0000   0.0000   0.0000   0.0000   0.0000

          k = 0.3368-0.1443-0.0962 (   238 PWs)   bands (ev):

    -0.5844  11.4230  12.8907  18.1960  19.2016  20.4594

     occupation numbers 
     1.0000   0.0000   0.0000   0.0000   0.0000   0.0000

          k = 0.3849-0.2887-0.0000 (   244 PWs)   bands (ev):

     1.0556   7.1547  14.8984  17.1301  17.7139  20.0943

     occupation numbers 
     1.0000   1.0000   0.0000   0.0000   0.0000   0.0000

          k = 0.3849-0.2406-0.0481 (   237 PWs)   bands (ev):

     0.6260   8.2217  13.8213  17.3174  18.2206  21.2186

     occupation numbers 
     1.0000   0.0000   0.0000   0.0000   0.0000   0.0000

          k = 0.3849-0.1925-0.0962 (   239 PWs)   bands (ev):

     0.3675   9.4324  12.3237  17.7088  18.7413  21.1093

     occupation numbers 
     1.0000   0.0000   0.0000   0.0000   0.0000   0.0000

          k = 0.3849-0.1443-0.1443 (   240 PWs)   bands (ev):

     0.2813  10.5550  11.0855  17.7594  19.5598  20.1782

     occupation numbers 
     1.0000   0.0000   0.0000   0.0000   0.0000   0.0000

          k = 0.4330-0.3368 0.0000 (   241 PWs)   bands (ev):

     2.3333   5.4143  14.6705  16.8970  17.4865  19.9089

     occupation numbers 
     1.0000   1.0000   0.0000   0.0000   0.0000   0.0000

          k = 0.4330-0.2887-0.0481 (   241 PWs)   bands (ev):

     1.8251   6.4089  13.5096  17.0164  17.9180  21.1468

     occupation numbers 
     1.0000   1.0000   0.0000   0.0000   0.0000   0.0000

          k = 0.4330-0.2406-0.0962 (   238 PWs)   bands (ev):

     1.4842   7.5595  11.9218  17.3525  18.3772  21.8388

     occupation numbers 
     1.0000   1.0713   0.0000   0.0000   0.0000   0.0000

          k = 0.4330-0.1925-0.1443 (   238 PWs)   bands (ev):

     1.3132   8.8340  10.3921  17.3621  19.3782  20.7668

     occupation numbers 
     1.0000   0.0000   0.0000   0.0000   0.0000   0.0000

          k =-0.3849-0.3849 0.8660 (   242 PWs)   bands (ev):

     3.5648   4.0281  14.5945  16.8191  17.4105  19.8450

     occupation numbers 
     1.0000   1.0000   0.0000   0.0000   0.0000   0.0000

          k =-0.3849-0.3368 0.8179 (   239 PWs)   bands (ev):

     3.1670   4.7591  13.3535  16.8656  17.7648  21.0787

     occupation numbers 
     1.0000   1.0000   0.0000   0.0000   0.0000   0.0000

          k =-0.3849-0.2887 0.7698 (   238 PWs)   bands (ev):

     2.7574   5.8288  11.6807  17.1368  18.1504  22.4126

     occupation numbers 
     1.0000   1.0000   0.0000   0.0000   0.0000   0.0000

          k =-0.3849-0.2406 0.7217 (   236 PWs)   bands (ev):

     2.5061   7.0566  10.0464  17.0836  19.1161  21.7134

     occupation numbers 
     1.0000   1.0000   0.0000   0.0000   0.0000   0.0000

          k =-0.3849-0.1925 0.6736 (   235 PWs)   bands (ev):

     2.4218   8.1850   8.7784  17.0422  20.0958  20.6448

     occupation numbers 
     1.0000   0.0000   0.0000   0.0000   0.0000   0.0000

          k =-0.3368-0.3368 0.7698 (   240 PWs)   bands (ev):

     3.9789   4.4544  11.6003  17.0646  18.0737  22.6078

     occupation numbers 
     1.0000   1.0000   0.0000   0.0000   0.0000   0.0000

          k =-0.3368-0.2887 0.7217 (   235 PWs)   bands (ev):

     3.8388   5.4249   9.8784  16.9418  18.9742  22.7680

     occupation numbers 
     1.0000   1.0000   0.0000   0.0000   0.0000   0.0000

          k =-0.3368-0.2406 0.6736 (   234 PWs)   bands (ev):

     3.6840   6.7024   8.3003  16.8375  20.1100  21.5074

     occupation numbers 
     1.0000   1.0000   0.0000   0.0000   0.0000   0.0000

          k =-0.2887-0.2887 0.6736 (   233 PWs)   bands (ev):

     4.8890   5.3642   8.1999  16.7678  20.0564  22.6376

     occupation numbers 
     1.0000   1.0000   0.0000   0.0000   0.0000   0.0000

          k =-0.2887-0.2406 0.6255 (   235 PWs)   bands (ev):

     4.9903   6.2927   6.9387  16.7051  21.1279  21.5095

     occupation numbers 
     1.0000   1.0000   1.0000   0.0000   0.0000   0.0000

          k = 0.1925 0.1925-0.1925 (   234 PWs)   bands (ev):

    -1.1932  13.5763  13.5763  14.2223  24.1856  24.1856

     occupation numbers 
     1.0000   0.0000   0.0000   0.0000   0.0000   0.0000

          k = 0.1925 0.2406-0.2406 (   242 PWs)   bands (ev):

    -0.4109  11.5834  12.8516  13.4161  23.9954  24.2249

     occupation numbers 
     1.0000   0.0000   0.0000   0.0000   0.0000   0.0000

          k = 0.1925 0.2887-0.2887 (   243 PWs)   bands (ev):

     0.5400   9.5940  12.2840  12.8633  23.6959  23.9198

     occupation numbers 
     1.0000   0.0000   0.0000   0.0000   0.0000   0.0000

          k = 0.1925 0.3368-0.3368 (   243 PWs)   bands (ev):

     1.6553   7.7233  11.8769  12.4719  23.4244  23.6664

     occupation numbers 
     1.0000   0.7425   0.0000   0.0000   0.0000   0.0000

          k = 0.1925 0.3849-0.3849 (   244 PWs)   bands (ev):

     2.9269   5.9951  11.6321  12.2369  23.2446  23.5032

     occupation numbers 
     1.0000   1.0000   0.0000   0.0000   0.0000   0.0000

          k = 0.1925 0.4330-0.4330 (   244 PWs)   bands (ev):

     4.1448   4.6245  11.5504  12.1584  23.1823  23.4471

     occupation numbers 
     1.0000   1.0000   0.0000   0.0000   0.0000   0.0000

          k = 0.1925-0.0000 0.0000 (   237 PWs)   bands (ev):

    -2.5934  17.1402  17.1402  19.3837  19.5002  21.6541

     occupation numbers 
     1.0000   0.0000   0.0000   0.0000   0.0000   0.0000

          k = 0.2406 0.2406-0.2887 (   236 PWs)   bands (ev):

     0.4538  10.7330  11.1958  12.5990  24.7095  24.9188

     occupation numbers 
     1.0000   0.0000   0.0000   0.0000   0.0000   0.0000

          k = 0.2406 0.2887-0.3368 (   238 PWs)   bands (ev):

     1.4846   8.9982  10.5299  12.1055  24.6323  25.2388

     occupation numbers 
     1.0000   0.0000   0.0000   0.0000   0.0000   0.0000

          k = 0.2406 0.3368-0.3849 (   241 PWs)   bands (ev):

     2.6760   7.2215  10.1882  11.7825  24.4430  25.3522

     occupation numbers 
     1.0000   1.0000   0.0000   0.0000   0.0000   0.0000

          k = 0.2406 0.3849-0.4330 (   241 PWs)   bands (ev):

     4.0067   5.5920  10.0209  11.6214  24.3354  25.3559

     occupation numbers 
     1.0000   1.0000   0.0000   0.0000   0.0000   0.0000

          k = 0.2406-0.0481 0.0000 (   233 PWs)   bands (ev):

    -2.1546  15.4966  16.1686  18.4464  19.1367  21.4478

     occupation numbers 
     1.0000   0.0000   0.0000   0.0000   0.0000   0.0000

          k = 0.2887 0.2887-0.3849 (   238 PWs)   bands (ev):

     2.5919   8.3549   8.9256  11.6864  25.4293  25.5951

     occupation numbers 
     1.0000   0.0000   0.0000   0.0000   0.0000   0.0000

          k = 0.2887 0.3368-0.4330 (   239 PWs)   bands (ev):

     3.8524   6.8681   8.4568  11.4410  25.4362  26.3331

     occupation numbers 
     1.0000   1.0000   0.0000   0.0000   0.0000   0.0000

          k = 0.2887 0.3849-0.4811 (   241 PWs)   bands (ev):

     5.0552   5.5317   8.3576  11.3595  25.4007  26.7461

     occupation numbers 
     1.0000   1.0000   0.0000   0.0000   0.0000   0.0000

          k = 0.2887-0.0962 0.0000 (   235 PWs)   bands (ev):

    -1.5421  13.3890  15.3376  17.6348  19.4280  20.8200

     occupation numbers 
     1.0000   0.0000   0.0000   0.0000   0.0000   0.0000

          k = 0.2887-0.0481-0.0481 (   236 PWs)   bands (ev):

    -1.6295  14.4694  14.6784  17.9956  18.4304  21.3574

     occupation numbers 
     1.0000   0.0000   0.0000   0.0000   0.0000   0.0000

          k = 0.3368 0.3368-0.4811 (   234 PWs)   bands (ev):

     5.1572   6.4598   7.0982  11.2754  26.3484  26.6197

     occupation numbers 
     1.0000   1.0000   1.0000   0.0000   0.0000   0.0000

          k = 0.3368-0.1443 0.0000 (   236 PWs)   bands (ev):

    -0.7581  11.2849  14.6532  16.9454  19.9292  20.2094

     occupation numbers 
     1.0000   0.0000   0.0000   0.0000   0.0000   0.0000

          k = 0.3368-0.0962-0.0481 (   235 PWs)   bands (ev):

    -0.9320  12.5047  13.8202  17.4165  18.6515  20.8485

     occupation numbers 
     1.0000   0.0000   0.0000   0.0000   0.0000   0.0000

          k = 0.3849-0.1925 0.0000 (   236 PWs)   bands (ev):

     0.1949   9.2781  14.1186  16.3983  19.7068  20.4608

     occupation numbers 
     1.0000   0.0000   0.0000   0.0000   0.0000   0.0000

          k = 0.3849-0.1443-0.0481 (   235 PWs)   bands (ev):

    -0.0644  10.4724  13.1920  16.8207  19.2126  20.4004

     occupation numbers 
     1.0000   0.0000   0.0000   0.0000   0.0000   0.0000

          k = 0.3849-0.0962-0.0962 (   236 PWs)   bands (ev):

    -0.1509  11.5911  12.0365  17.7452  18.1299  20.4490

     occupation numbers 
     1.0000   0.0000   0.0000   0.0000   0.0000   0.0000

          k = 0.4330-0.2406-0.0000 (   238 PWs)   bands (ev):

     1.3129   7.3983  13.7356  16.0026  19.3397  20.8310

     occupation numbers 
     1.0000   1.0028   0.0000   0.0000   0.0000   0.0000

          k = 0.4330-0.1925-0.0481 (   237 PWs)   bands (ev):

     0.9701   8.5391  12.7206  16.3590  19.5454  20.4339

     occupation numbers 
     1.0000   0.0000   0.0000   0.0000   0.0000   0.0000

          k = 0.4330-0.1443-0.0962 (   236 PWs)   bands (ev):

     0.7983   9.8002  11.3022  17.3861  18.6208  20.1080

     occupation numbers 
     1.0000   0.0000   0.0000   0.0000   0.0000   0.0000

          k = 0.4811-0.2887 0.0000 (   236 PWs)   bands (ev):

     2.5879   5.6635  13.5055  15.7634  19.1169  20.9619

     occupation numbers 
     1.0000   1.0000   0.0000   0.0000   0.0000   0.0000

          k = 0.4811-0.2406-0.0481 (   237 PWs)   bands (ev):

     2.1661   6.7363  12.4059  16.0472  19.4125  21.1115

     occupation numbers 
     1.0000   1.0000   0.0000   0.0000   0.0000   0.0000

          k = 0.4811-0.1925-0.0962 (   234 PWs)   bands (ev):

     1.9115   7.9565  10.8851  17.0170  19.0828  20.2196

     occupation numbers 
     1.0000   0.0115   0.0000   0.0000   0.0000   0.0000

          k = 0.4811-0.1443-0.1443 (   235 PWs)   bands (ev):

     1.8264   9.0814   9.6405  18.0961  18.2209  19.8386

     occupation numbers 
     1.0000   0.0000   0.0000   0.0000   0.0000   0.0000

          k =-0.3368-0.3368 0.8660 (   236 PWs)   bands (ev):

     3.8133   4.2845  13.4287  15.6833  19.0424  20.9815

     occupation numbers 
     1.0000   1.0000   0.0000   0.0000   0.0000   0.0000

          k =-0.3368-0.2887 0.8179 (   239 PWs)   bands (ev):

     3.5035   5.0939  12.2483  15.8903  19.2956  21.7316

     occupation numbers 
     1.0000   1.0000   0.0000   0.0000   0.0000   0.0000

          k =-0.3368-0.2406 0.7698 (   235 PWs)   bands (ev):

     3.1801   6.2394  10.6391  16.7899  19.1031  21.0400

     occupation numbers 
     1.0000   1.0000   0.0000   0.0000   0.0000   0.0000

          k =-0.3368-0.1925 0.7217 (   238 PWs)   bands (ev):

     3.0141   7.5197   9.0948  17.8674  18.7686  19.9657

     occupation numbers 
     1.0000   1.0446   0.0000   0.0000   0.0000   0.0000

          k =-0.2887-0.2887 0.7698 (   236 PWs)   bands (ev):

     4.3926   4.8763  10.5574  16.7136  19.0701  22.1180

     occupation numbers 
     1.0000   1.0000   0.0000   0.0000   0.0000   0.0000

          k =-0.2887-0.2406 0.7217 (   237 PWs)   bands (ev):

     4.3395   5.9151   8.9106  17.7190  18.9116  20.8016

     occupation numbers 
     1.0000   1.0000   0.0000   0.0000   0.0000   0.0000

          k =-0.2887-0.1925 0.6736 (   237 PWs)   bands (ev):

     4.2673   7.0324   7.6406  18.3577  18.9653  19.9222

     occupation numbers 
     1.0000   1.0000   1.0465   0.0000   0.0000   0.0000

          k =-0.2406-0.2406 0.6736 (   236 PWs)   bands (ev):

     5.4668   5.8947   7.3478  18.3435  19.2565  20.3293

     occupation numbers 
     1.0000   1.0000   1.0005   0.0000   0.0000   0.0000

          k = 0.2887 0.2887-0.2887 (   234 PWs)   bands (ev):

     1.3991  10.1618  10.1618  11.0876  26.1338  26.1338

     occupation numbers 
     1.0000   0.0000   0.0000   0.0000   0.0000   0.0000

          k = 0.2887 0.3368-0.3368 (   238 PWs)   bands (ev):

     2.5072   8.4876   9.7525  10.4992  26.3882  26.4213

     occupation numbers 
     1.0000   0.0000   0.0000   0.0000   0.0000   0.0000

          k = 0.2887 0.3849-0.3849 (   235 PWs)   bands (ev):

     3.7693   6.8049   9.5066  10.2232  26.4042  26.4102

     occupation numbers 
     1.0000   1.0000   0.0000   0.0000   0.0000   0.0000

          k = 0.2887 0.4330-0.4330 (   238 PWs)   bands (ev):

     4.9725   5.4569   9.4246  10.1352  26.3881  26.4032

     occupation numbers 
     1.0000   1.0000   0.0000   0.0000   0.0000   0.0000

          k = 0.2887 0.0000 0.0000 (   241 PWs)   bands (ev):

    -1.7169  15.1812  15.1812  17.1314  17.8527  22.5074

     occupation numbers 
     1.0000   0.0000   0.0000   0.0000   0.0000   0.0000

          k = 0.3368 0.3368-0.3849 (   235 PWs)   bands (ev):

     3.6877   7.9441   8.4399   9.9189  27.2362  27.3897

     occupation numbers 
     1.0000   0.0165   0.0000   0.0000   0.0000   0.0000

          k = 0.3368 0.3849-0.4330 (   235 PWs)   bands (ev):

     5.0030   6.5445   8.0897   9.7231  27.4195  27.8878

     occupation numbers 
     1.0000   1.0000   0.0001   0.0000   0.0000   0.0000

          k = 0.3368-0.0481 0.0000 (   240 PWs)   bands (ev):

    -1.1061  13.6293  14.3402  16.4711  17.4813  22.4354

     occupation numbers 
     1.0000   0.0000   0.0000   0.0000   0.0000   0.0000

          k = 0.3849 0.3849-0.4811 (   240 PWs)   bands (ev):

     6.2124   6.2124   7.0031   9.6171  28.0773  28.5104

     occupation numbers 
     1.0000   1.0000   1.0000   0.0000   0.0000   0.0000

          k = 0.3849-0.0962 0.0000 (   240 PWs)   bands (ev):

    -0.3241  11.6345  13.6494  15.8749  17.8820  21.9395

     occupation numbers 
     1.0000   0.0000   0.0000   0.0000   0.0000   0.0000

          k = 0.3849-0.0481-0.0481 (   238 PWs)   bands (ev):

    -0.4108  12.7208  12.9825  16.1430  16.9295  22.4547

     occupation numbers 
     1.0000   0.0000   0.0000   0.0000   0.0000   0.0000

          k = 0.4330-0.1443 0.0000 (   236 PWs)   bands (ev):

     0.6261   9.6635  13.1108  15.3441  18.6055  21.4724

     occupation numbers 
     1.0000   0.0000   0.0000   0.0000   0.0000   0.0000

          k = 0.4330-0.0962-0.0481 (   238 PWs)   bands (ev):

     0.4539  10.8975  12.2530  15.8084  17.2335  22.0431

     occupation numbers 
     1.0000   0.0000   0.0000   0.0000   0.0000   0.0000

          k = 0.4811-0.1925-0.0000 (   237 PWs)   bands (ev):

     1.7408   7.8009  12.7253  14.9497  19.4928  21.1194

     occupation numbers 
     1.0000   0.3317   0.0000   0.0000   0.0000   0.0000

          k = 0.4811-0.1443-0.0481 (   237 PWs)   bands (ev):

     1.4846   9.0062  11.7735  15.3857  18.0228  21.6481

     occupation numbers 
     1.0000   0.0000   0.0000   0.0000   0.0000   0.0000

          k = 0.4811-0.0962-0.0962 (   238 PWs)   bands (ev):

     1.3991  10.1265  10.6081  16.2540  16.9273  21.6919

     occupation numbers 
     1.0000   0.0000   0.0000   0.0000   0.0000   0.0000

          k = 0.5292-0.2406 0.0000 (   240 PWs)   bands (ev):

     3.0113   6.0766  12.4938  14.7091  20.4591  20.9025

     occupation numbers 
     1.0000   1.0000   0.0000   0.0000   0.0000   0.0000

          k = 0.5292-0.1925-0.0481 (   238 PWs)   bands (ev):

     2.6760   7.2227  11.4554  15.0812  19.0013  21.3497

     occupation numbers 
     1.0000   1.0000   0.0000   0.0000   0.0000   0.0000

          k = 0.5292-0.1443-0.0962 (   237 PWs)   bands (ev):

     2.5073   8.4922  10.0163  16.1296  17.5883  21.3017

     occupation numbers 
     1.0000   0.0000   0.0000   0.0000   0.0000   0.0000

          k =-0.2887-0.2887 0.8660 (   246 PWs)   bands (ev):

     4.2270   4.7089  12.4166  14.6284  20.8294  21.1531

     occupation numbers 
     1.0000   1.0000   0.0000   0.0000   0.0000   0.0000

          k =-0.2887-0.2406 0.8179 (   239 PWs)   bands (ev):

     4.0065   5.5926  11.2963  14.9255  20.0515  21.0635

     occupation numbers 
     1.0000   1.0000   0.0000   0.0000   0.0000   0.0000

          k =-0.2887-0.1925 0.7698 (   237 PWs)   bands (ev):

     3.7692   6.8062   9.7564  15.9288  18.6308  20.7748

     occupation numbers 
     1.0000   1.0000   0.0000   0.0000   0.0000   0.0000

          k =-0.2887-0.1443 0.7217 (   233 PWs)   bands (ev):

     3.6876   7.9321   8.5051  16.9456  17.4735  20.6892

     occupation numbers 
     1.0000   0.0230   0.0000   0.0000   0.0000   0.0000

          k =-0.2406-0.2406 0.7698 (   235 PWs)   bands (ev):

     4.9709   5.4592   9.6721  15.8566  19.7135  19.8463

     occupation numbers 
     1.0000   1.0000   0.0000   0.0000   0.0000   0.0000

          k =-0.2406-0.1925 0.7217 (   236 PWs)   bands (ev):

     5.0023   6.5451   8.1229  17.0133  18.4024  19.6192

     occupation numbers 
     1.0000   1.0000   0.0000   0.0000   0.0000   0.0000

          k =-0.1925-0.1925 0.6736 (   240 PWs)   bands (ev):

     6.2079   6.2079   7.0296  18.1500  18.1500  18.5860

     occupation numbers 
     1.0000   1.0000   1.0000   0.0000   0.0000   0.0000

          k = 0.3849 0.3849-0.3849 (   234 PWs)   bands (ev):

     4.9311   7.6973   7.6973   8.7191  28.6397  28.6412

     occupation numbers 
     1.0000   0.8691   0.8691   0.0000   0.0000   0.0000

          k = 0.3849 0.4330-0.4330 (   240 PWs)   bands (ev):

     6.1299   6.5133   7.6150   8.4706  28.9279  29.1473

     occupation numbers 
     1.0000   1.0000   1.0768   0.0000   0.0000   0.0000

          k = 0.3849 0.0000 0.0000 (   233 PWs)   bands (ev):

    -0.4976  13.4929  13.4929  15.2127  16.3068  23.6984

     occupation numbers 
     1.0000   0.0000   0.0000   0.0000   0.0000   0.0000

          k = 0.4330-0.0481 0.0000 (   239 PWs)   bands (ev):

     0.2813  12.0496  12.7980  14.7751  16.0172  23.7445

     occupation numbers 
     1.0000   0.0000   0.0000   0.0000   0.0000   0.0000

          k = 0.4811-0.0962 0.0000 (   239 PWs)   bands (ev):

     1.2278  10.1825  12.2568  14.3808  16.5374  23.3728

     occupation numbers 
     1.0000   0.0000   0.0000   0.0000   0.0000   0.0000

          k = 0.4811-0.0481-0.0481 (   239 PWs)   bands (ev):

     1.1420  11.2783  11.5752  14.6211  15.5979  23.6557

     occupation numbers 
     1.0000   0.0000   0.0000   0.0000   0.0000   0.0000

          k = 0.5292-0.1443-0.0000 (   236 PWs)   bands (ev):

     2.3375   8.3556  11.8697  14.0163  17.4290  22.5005

     occupation numbers 
     1.0000   0.0000   0.0000   0.0000   0.0000   0.0000

          k = 0.5292-0.0962-0.0481 (   237 PWs)   bands (ev):

     2.1677   9.6010  10.9870  14.4868  16.0232  22.3848

     occupation numbers 
     1.0000   0.0000   0.0000   0.0000   0.0000   0.0000

          k = 0.5774-0.1925 0.0000 (   240 PWs)   bands (ev):

     3.6016   6.6496  11.6374  13.7829  18.5166  21.0918

     occupation numbers 
     1.0000   1.0000   0.0000   0.0000   0.0000   0.0000

          k = 0.5774-0.1443-0.0481 (   236 PWs)   bands (ev):

     3.3525   7.8598  10.6617  14.2347  16.9703  20.9056

     occupation numbers 
     1.0000   0.1239   0.0000   0.0000   0.0000   0.0000

          k = 0.5774-0.0962-0.0962 (   236 PWs)   bands (ev):

     3.2689   8.9835   9.4844  15.0886  15.8799  20.8376

     occupation numbers 
     1.0000   0.0000   0.0000   0.0000   0.0000   0.0000

          k =-0.2406-0.2406 0.8660 (   236 PWs)   bands (ev):

     4.8055   5.2969  11.5599  13.7036  19.6844  19.8154

     occupation numbers 
     1.0000   1.0000   0.0000   0.0000   0.0000   0.0000

          k =-0.2406-0.1925 0.8179 (   238 PWs)   bands (ev):

     4.6738   6.2501  10.5007  14.0902  18.1241  19.4911

     occupation numbers 
     1.0000   1.0000   0.0000   0.0000   0.0000   0.0000

          k =-0.2406-0.1443 0.7698 (   240 PWs)   bands (ev):

     4.5215   7.5109   9.0469  15.1491  16.6707  19.3453

     occupation numbers 
     1.0000   1.0390   0.0000   0.0000   0.0000   0.0000

          k =-0.1925-0.1925 0.7698 (   238 PWs)   bands (ev):

     5.7128   6.1910   8.9522  15.1028  17.6587  18.1900

     occupation numbers 
     1.0000   1.0000   0.0000   0.0000   0.0000   0.0000

          k =-0.1925-0.1443 0.7217 (   239 PWs)   bands (ev):

     5.8164   7.1098   7.7218  16.1199  16.6434  17.9518

     occupation numbers 
     1.0000   1.0000   0.7502   0.0000   0.0000   0.0000

          k = 0.4811 0.0000 0.0000 (   241 PWs)   bands (ev):

     1.0562  12.1005  12.1005  13.6380  14.9458  24.0189

     occupation numbers 
     1.0000   0.0000   0.0000   0.0000   0.0000   0.0000

          k = 0.5292-0.0481 0.0000 (   241 PWs)   bands (ev):

     1.9975  10.7748  11.5575  13.4052  14.7791  22.3691

     occupation numbers 
     1.0000   0.0000   0.0000   0.0000   0.0000   0.0000

          k = 0.5774-0.0962-0.0000 (   238 PWs)   bands (ev):

     3.1006   9.0456  11.1694  13.1935  15.4422  20.7444

     occupation numbers 
     1.0000   0.0000   0.0000   0.0000   0.0000   0.0000

          k = 0.5774-0.0481-0.0481 (   237 PWs)   bands (ev):

     3.0164  10.1506  10.4709  13.4362  14.4985  20.6814

     occupation numbers 
     1.0000   0.0000   0.0000   0.0000   0.0000   0.0000

          k = 0.6255-0.1443 0.0000 (   238 PWs)   bands (ev):

     4.3560   7.3746  10.9364  12.9945  16.4852  19.2207

     occupation numbers 
     1.0000   1.0013   0.0000   0.0000   0.0000   0.0000

          k = 0.6255-0.0962-0.0481 (   239 PWs)   bands (ev):

     4.1924   8.6247  10.0316  13.4809  15.0630  19.0772

     occupation numbers 
     1.0000   0.0000   0.0000   0.0000   0.0000   0.0000

          k =-0.1925-0.1925 0.8660 (   240 PWs)   bands (ev):

     5.5476   6.0408  10.8587  12.9217  17.4946  18.0589

     occupation numbers 
     1.0000   1.0000   0.0000   0.0000   0.0000   0.0000

          k =-0.1925-0.1443 0.8179 (   242 PWs)   bands (ev):

     5.5018   7.0561   9.8645  13.3894  16.1190  17.6403

     occupation numbers 
     1.0000   1.0000   0.0000   0.0000   0.0000   0.0000

          k =-0.1925-0.0962 0.7698 (   239 PWs)   bands (ev):

     5.4313   8.1652   8.6841  14.2545  15.0359  17.5472

     occupation numbers 
     1.0000   0.0000   0.0000   0.0000   0.0000   0.0000

          k =-0.1443-0.1443 0.7698 (   244 PWs)   bands (ev):

     6.6158   7.0350   8.4228  14.4467  15.6234  16.5218

     occupation numbers 
     1.0000   1.0000   0.0000   0.0000   0.0000   0.0000

          k = 0.5774-0.0000 0.0000 (   237 PWs)   bands (ev):

     2.9320  11.0133  11.0133  12.4115  13.8226  20.6191

     occupation numbers 
     1.0000   0.0000   0.0000   0.0000   0.0000   0.0000

          k = 0.6255-0.0481-0.0000 (   242 PWs)   bands (ev):

     4.0265   9.8135  10.6244  12.3719  13.7970  18.9342

     occupation numbers 
     1.0000   0.0000   0.0000   0.0000   0.0000   0.0000

          k = 0.6736-0.0962 0.0000 (   241 PWs)   bands (ev):

     5.2703   8.2342  10.3911  12.3271  14.5974  17.3884

     occupation numbers 
     1.0000   0.0000   0.0000   0.0000   0.0000   0.0000

          k = 0.6736-0.0481-0.0481 (   241 PWs)   bands (ev):

     5.1904   9.3426   9.6785  12.5899  13.6440  17.3066

     occupation numbers 
     1.0000   0.0000   0.0000   0.0000   0.0000   0.0000

          k =-0.1443-0.1443 0.8660 (   240 PWs)   bands (ev):

     6.4511   6.9268  10.3133  12.2804  15.4578  16.3244

     occupation numbers 
     1.0000   1.0000   0.0000   0.0000   0.0000   0.0000

          k =-0.1443-0.0962 0.8179 (   240 PWs)   bands (ev):

     6.4836   7.9851   9.3951  12.7896  14.2719  15.9138

     occupation numbers 
     1.0000   0.0047   0.0000   0.0000   0.0000   0.0000

          k =-0.0962-0.0962 0.7698 (   236 PWs)   bands (ev):

     7.6736   7.6736   8.3728  13.7537  13.7537  15.1536

     occupation numbers 
     0.9623   0.9623   0.0000   0.0000   0.0000   0.0000

          k = 0.6736 0.0000-0.0000 (   241 PWs)   bands (ev):

     5.1092  10.2351  10.2351  11.5347  12.9537  17.2265

     occupation numbers 
     1.0000   0.0000   0.0000   0.0000   0.0000   0.0000

          k = 0.7217-0.0481 0.0000 (   238 PWs)   bands (ev):

     6.3366   9.1720  10.0015  11.6756  13.0354  15.6993

     occupation numbers 
     1.0000   0.0000   0.0000   0.0000   0.0000   0.0000

          k =-0.0962-0.0962 0.8660 (   236 PWs)   bands (ev):

     7.5096   7.9271   9.9236  11.7512  13.5868  14.7627

     occupation numbers 
     1.0381   0.0263   0.0000   0.0000   0.0000   0.0000

          k =-0.0962-0.0481 0.8179 (   236 PWs)   bands (ev):

     7.6005   8.8568   9.2124  12.0823  12.7988  14.4494

     occupation numbers 
     1.0828   0.0000   0.0000   0.0000   0.0000   0.0000

          k = 0.7698 0.0000 0.0000 (   236 PWs)   bands (ev):

     7.5369   9.7677   9.7677  11.0084  12.1848  14.2731

     occupation numbers 
     1.0564   0.0000   0.0000   0.0000   0.0000   0.0000

          k =-0.0481-0.0481 0.8660 (   236 PWs)   bands (ev):

     8.6947   8.9624   9.6898  11.2426  11.9131  13.5741

     occupation numbers 
     0.0000   0.0000   0.0000   0.0000   0.0000   0.0000

          k =-0.8660-0.8660 0.8660 (   236 PWs)   bands (ev):

     9.6118   9.6118   9.6118  10.8329  10.8329  13.1128

     occupation numbers 
     0.0000   0.0000   0.0000   0.0000   0.0000   0.0000

     the Fermi energy is     7.7866 ev

!    total energy              =      -6.70069089 Ry
     Harris-Foulkes estimate   =      -6.70069085 Ry
     estimated scf accuracy    <       0.00000079 Ry

     The total energy is the sum of the following terms:

     one-electron contribution =       2.96225108 Ry
     hartree contribution      =       0.00558552 Ry
     xc contribution           =      -4.28673057 Ry
     ewald contribution        =      -5.38183356 Ry
     smearing contrib. (-TS)   =       0.00003665 Ry

     convergence has been achieved in   3 iterations
 
     init_run     :      2.26s CPU      0.32s WALL (       1 calls)
     electrons    :      9.29s CPU      2.39s WALL (       1 calls)

     Called by init_run:
     wfcinit      :      2.22s CPU      0.23s WALL (       1 calls)
     wfcinit:atom :      0.04s CPU      0.00s WALL (     195 calls)
     wfcinit:wfcr :      2.07s CPU      0.22s WALL (     195 calls)
     potinit      :      0.00s CPU      0.00s WALL (       1 calls)

     Called by electrons:
     c_bands      :      8.57s CPU      2.11s WALL (       4 calls)
     sum_band     :      0.62s CPU      0.26s WALL (       4 calls)
     v_of_rho     :      0.01s CPU      0.00s WALL (       4 calls)
     v_h          :      0.00s CPU      0.00s WALL (       4 calls)
     v_xc         :      0.01s CPU      0.00s WALL (       4 calls)
     newd         :      0.01s CPU      0.00s WALL (       4 calls)
     mix_rho      :      0.00s CPU      0.00s WALL (       4 calls)

     Called by c_bands:
     init_us_2    :      0.20s CPU      0.05s WALL (    1755 calls)
     cegterg      :      7.43s CPU      1.73s WALL (     780 calls)

     Called by sum_band:
     sum_band:bec :      0.01s CPU      0.00s WALL (     780 calls)
     addusdens    :      0.01s CPU      0.00s WALL (       4 calls)

     Called by *egterg:
     h_psi        :      7.99s CPU      1.63s WALL (    2699 calls)
     s_psi        :      0.07s CPU      0.01s WALL (    2699 calls)
     g_psi        :      0.02s CPU      0.01s WALL (    1724 calls)
     cdiaghg      :      0.75s CPU      0.18s WALL (    2309 calls)
     cegterg:over :      0.08s CPU      0.02s WALL (    1724 calls)
     cegterg:upda :      0.05s CPU      0.01s WALL (    1724 calls)
     cegterg:last :      0.03s CPU      0.01s WALL (     878 calls)

     Called by h_psi:
     h_psi:pot    :      7.93s CPU      1.61s WALL (    2699 calls)
     h_psi:calbec :      0.15s CPU      0.03s WALL (    2699 calls)
     vloc_psi     :      7.58s CPU      1.55s WALL (    2699 calls)
     add_vuspsi   :      0.11s CPU      0.02s WALL (    2699 calls)

     General routines
     calbec       :      0.11s CPU      0.03s WALL (    3479 calls)
     fft          :      0.01s CPU      0.02s WALL (      54 calls)
     fftw         :      7.51s CPU      1.66s WALL (   31394 calls)
 
     Parallel routines
     fft_scatt_xy :      0.66s CPU      0.12s WALL (   31448 calls)
     fft_scatt_yz :      1.27s CPU      0.28s WALL (   31448 calls)
 
     PWSCF        :    11.62s CPU         2.77s WALL

 
   This run was terminated on:  22:11:20  30Jan2019            

=------------------------------------------------------------------------------=
   JOB DONE.
=------------------------------------------------------------------------------=
