
     Program PWSCF v.6.2 (svn rev. 14038) starts on 24Jan2019 at 12:23:35 

     This program is part of the open-source Quantum ESPRESSO suite
     for quantum simulation of materials; please cite
         "P. Giannozzi et al., J. Phys.:Condens. Matter 21 395502 (2009);
         "P. Giannozzi et al., J. Phys.:Condens. Matter 29 465901 (2017);
          URL http://www.quantum-espresso.org", 
     in publications or presentations arising from this work. More details at
     http://www.quantum-espresso.org/quote

     Parallel version (MPI), running on     1 processors

     MPI processes distributed on     1 nodes
     Reading input from ./Al22.in
Warning: card &IONS ignored
Warning: card / ignored
Warning: card &CELL ignored
Warning: card / ignored

     Current dimensions of program PWSCF are:
     Max number of different atomic species (ntypx) = 10
     Max number of k-points (npk) =  40000
     Max angular momentum in pseudopotentials (lmaxx) =  3
     Message from routine iosys:
     minimal I/O required, wf_collect reset to FALSE

     Subspace diagonalization in iterative solution of the eigenvalue problem:
     a serial algorithm will be used

 
     G-vector sticks info
     --------------------
     sticks:   dense  smooth     PW     G-vecs:    dense   smooth      PW
     Sum         283     283     97                 3119     3119     645
 


     bravais-lattice index     =            0
     lattice parameter (alat)  =       5.3970  a.u.
     unit-cell volume          =     111.1567 (a.u.)^3
     number of atoms/cell      =            1
     number of atomic types    =            1
     number of electrons       =         3.00
     number of Kohn-Sham states=            6
     kinetic-energy cutoff     =      35.0000  Ry
     charge density cutoff     =     140.0000  Ry
     convergence threshold     =      1.0E-05
     mixing beta               =       0.7000
     number of iterations used =            8  plain     mixing
     Exchange-correlation      = SLA  PZ   NOGX NOGC ( 1  1  0  0 0 0)

     celldm(1)=   5.396971  celldm(2)=   0.000000  celldm(3)=   0.000000
     celldm(4)=   0.000000  celldm(5)=   0.000000  celldm(6)=   0.000000

     crystal axes: (cart. coord. in units of alat)
               a(1) = (   0.866025   0.000000   0.500000 )  
               a(2) = (   0.288675   0.816497   0.500000 )  
               a(3) = (   0.000000   0.000000   1.000000 )  

     reciprocal axes: (cart. coord. in units 2 pi/alat)
               b(1) = (  1.154701 -0.408248  0.000000 )  
               b(2) = (  0.000000  1.224745  0.000000 )  
               b(3) = ( -0.577350 -0.408248  1.000000 )  


     PseudoPot. # 1 for Al read from file:
     ./al_lda_v1.uspp.F.UPF
     MD5 check sum: 51a9e5980debfdd3404790b200e14add
     Pseudo is Ultrasoft + core correction, Zval =  3.0
     Generated by new atomic code, or converted to UPF format
     Using radial grid of  893 points,  3 beta functions with: 
                l(1) =   0
                l(2) =   1
                l(3) =   2
     Q(r) pseudized with  8 coefficients,  rinner =    0.900   0.900   0.900
                                                       0.900   0.900

     atomic species   valence    mass     pseudopotential
        Al             3.00    26.98150     Al( 1.00)

      4 Sym. Ops., with inversion, found


                                    s                        frac. trans.

      isym =  1     identity                                     

 cryst.   s( 1) = (     1          0          0      )
                  (     0          1          0      )
                  (     0          0          1      )

 cart.    s( 1) = (  1.0000000  0.0000000  0.0000000 )
                  (  0.0000000  1.0000000  0.0000000 )
                  (  0.0000000 -0.0000000  1.0000000 )


      isym =  2     180 deg rotation - cart. axis [0,0,1]        

 cryst.   s( 2) = (    -1          0          1      )
                  (     0         -1          1      )
                  (     0          0          1      )

 cart.    s( 2) = ( -1.0000000  0.0000000  0.0000000 )
                  (  0.0000000 -1.0000000  0.0000000 )
                  (  0.0000004  0.0000003  1.0000000 )


      isym =  3     inversion                                    

 cryst.   s( 3) = (    -1          0          0      )
                  (     0         -1          0      )
                  (     0          0         -1      )

 cart.    s( 3) = ( -1.0000000  0.0000000  0.0000000 )
                  (  0.0000000 -1.0000000  0.0000000 )
                  ( -0.0000000  0.0000000 -1.0000000 )


      isym =  4     inv. 180 deg rotation - cart. axis [0,0,1]   

 cryst.   s( 4) = (     1          0         -1      )
                  (     0          1         -1      )
                  (     0          0         -1      )

 cart.    s( 4) = (  1.0000000  0.0000000  0.0000000 )
                  (  0.0000000  1.0000000  0.0000000 )
                  ( -0.0000004 -0.0000003 -1.0000000 )


   Cartesian axes

     site n.     atom                  positions (alat units)
         1           Al  tau(   1) = (   0.0000000   0.0000000   0.0000000  )

   Crystallographic axes

     site n.     atom                  positions (cryst. coord.)
         1           Al  tau(   1) = (  0.0000000  0.0000000  0.0000000  )

     number of k points=  2796  Marzari-Vanderbilt smearing, width (Ry)=  0.0100
                       cart. coord. in units 2pi/alat
        k(    1) = (   0.0000000   0.0000000   0.0000000), wk =   0.0001878
        k(    2) = (  -0.0262432  -0.0185567   0.0454545), wk =   0.0007513
        k(    3) = (  -0.0524864  -0.0371135   0.0909091), wk =   0.0007513
        k(    4) = (  -0.0787296  -0.0556702   0.1363636), wk =   0.0007513
        k(    5) = (  -0.1049727  -0.0742269   0.1818181), wk =   0.0007513
        k(    6) = (  -0.1312159  -0.0927837   0.2272727), wk =   0.0007513
        k(    7) = (  -0.1574591  -0.1113404   0.2727272), wk =   0.0007513
        k(    8) = (  -0.1837023  -0.1298971   0.3181817), wk =   0.0007513
        k(    9) = (  -0.2099455  -0.1484539   0.3636363), wk =   0.0007513
        k(   10) = (  -0.2361887  -0.1670106   0.4090908), wk =   0.0007513
        k(   11) = (  -0.2624318  -0.1855673   0.4545453), wk =   0.0007513
        k(   12) = (   0.2886750   0.2041241  -0.4999999), wk =   0.0003757
        k(   13) = (   0.0000000   0.0556702   0.0000000), wk =   0.0003757
        k(   14) = (  -0.0262432   0.0371135   0.0454545), wk =   0.0007513
        k(   15) = (  -0.0524864   0.0185568   0.0909091), wk =   0.0007513
        k(   16) = (  -0.0787296   0.0000000   0.1363636), wk =   0.0007513
        k(   17) = (  -0.1049727  -0.0185567   0.1818181), wk =   0.0007513
        k(   18) = (  -0.1312159  -0.0371134   0.2272727), wk =   0.0007513
        k(   19) = (  -0.1574591  -0.0556702   0.2727272), wk =   0.0007513
        k(   20) = (  -0.1837023  -0.0742269   0.3181817), wk =   0.0007513
        k(   21) = (  -0.2099455  -0.0927836   0.3636363), wk =   0.0007513
        k(   22) = (  -0.2361887  -0.1113404   0.4090908), wk =   0.0007513
        k(   23) = (  -0.2624318  -0.1298971   0.4545453), wk =   0.0007513
        k(   24) = (   0.2886750   0.2597943  -0.4999999), wk =   0.0007513
        k(   25) = (   0.2624318   0.2412375  -0.4545453), wk =   0.0007513
        k(   26) = (   0.2361887   0.2226808  -0.4090908), wk =   0.0007513
        k(   27) = (   0.2099455   0.2041241  -0.3636363), wk =   0.0007513
        k(   28) = (   0.1837023   0.1855673  -0.3181817), wk =   0.0007513
        k(   29) = (   0.1574591   0.1670106  -0.2727272), wk =   0.0007513
        k(   30) = (   0.1312159   0.1484539  -0.2272727), wk =   0.0007513
        k(   31) = (   0.1049727   0.1298972  -0.1818181), wk =   0.0007513
        k(   32) = (   0.0787296   0.1113404  -0.1363636), wk =   0.0007513
        k(   33) = (   0.0524864   0.0927837  -0.0909091), wk =   0.0007513
        k(   34) = (   0.0262432   0.0742270  -0.0454545), wk =   0.0007513
        k(   35) = (   0.0000000   0.1113404   0.0000000), wk =   0.0003757
        k(   36) = (  -0.0262432   0.0927837   0.0454545), wk =   0.0007513
        k(   37) = (  -0.0524864   0.0742270   0.0909091), wk =   0.0007513
        k(   38) = (  -0.0787296   0.0556702   0.1363636), wk =   0.0007513
        k(   39) = (  -0.1049727   0.0371135   0.1818181), wk =   0.0007513
        k(   40) = (  -0.1312159   0.0185568   0.2272727), wk =   0.0007513
        k(   41) = (  -0.1574591   0.0000000   0.2727272), wk =   0.0007513
        k(   42) = (  -0.1837023  -0.0185567   0.3181817), wk =   0.0007513
        k(   43) = (  -0.2099455  -0.0371134   0.3636363), wk =   0.0007513
        k(   44) = (  -0.2361887  -0.0556702   0.4090908), wk =   0.0007513
        k(   45) = (  -0.2624318  -0.0742269   0.4545453), wk =   0.0007513
        k(   46) = (   0.2886750   0.3154645  -0.4999999), wk =   0.0007513
        k(   47) = (   0.2624318   0.2969078  -0.4545453), wk =   0.0007513
        k(   48) = (   0.2361887   0.2783510  -0.4090908), wk =   0.0007513
        k(   49) = (   0.2099455   0.2597943  -0.3636363), wk =   0.0007513
        k(   50) = (   0.1837023   0.2412376  -0.3181817), wk =   0.0007513
        k(   51) = (   0.1574591   0.2226808  -0.2727272), wk =   0.0007513
        k(   52) = (   0.1312159   0.2041241  -0.2272727), wk =   0.0007513
        k(   53) = (   0.1049727   0.1855674  -0.1818181), wk =   0.0007513
        k(   54) = (   0.0787296   0.1670106  -0.1363636), wk =   0.0007513
        k(   55) = (   0.0524864   0.1484539  -0.0909091), wk =   0.0007513
        k(   56) = (   0.0262432   0.1298972  -0.0454545), wk =   0.0007513
        k(   57) = (   0.0000000   0.1670107   0.0000000), wk =   0.0003757
        k(   58) = (  -0.0262432   0.1484539   0.0454545), wk =   0.0007513
        k(   59) = (  -0.0524864   0.1298972   0.0909091), wk =   0.0007513
        k(   60) = (  -0.0787296   0.1113405   0.1363636), wk =   0.0007513
        k(   61) = (  -0.1049727   0.0927837   0.1818181), wk =   0.0007513
        k(   62) = (  -0.1312159   0.0742270   0.2272727), wk =   0.0007513
        k(   63) = (  -0.1574591   0.0556703   0.2727272), wk =   0.0007513
        k(   64) = (  -0.1837023   0.0371135   0.3181817), wk =   0.0007513
        k(   65) = (  -0.2099455   0.0185568   0.3636363), wk =   0.0007513
        k(   66) = (  -0.2361887   0.0000001   0.4090908), wk =   0.0007513
        k(   67) = (  -0.2624318  -0.0185567   0.4545453), wk =   0.0007513
        k(   68) = (   0.2886750   0.3711347  -0.4999999), wk =   0.0007513
        k(   69) = (   0.2624318   0.3525780  -0.4545453), wk =   0.0007513
        k(   70) = (   0.2361887   0.3340213  -0.4090908), wk =   0.0007513
        k(   71) = (   0.2099455   0.3154645  -0.3636363), wk =   0.0007513
        k(   72) = (   0.1837023   0.2969078  -0.3181817), wk =   0.0007513
        k(   73) = (   0.1574591   0.2783511  -0.2727272), wk =   0.0007513
        k(   74) = (   0.1312159   0.2597943  -0.2272727), wk =   0.0007513
        k(   75) = (   0.1049727   0.2412376  -0.1818181), wk =   0.0007513
        k(   76) = (   0.0787296   0.2226809  -0.1363636), wk =   0.0007513
        k(   77) = (   0.0524864   0.2041241  -0.0909091), wk =   0.0007513
        k(   78) = (   0.0262432   0.1855674  -0.0454545), wk =   0.0007513
        k(   79) = (   0.0000000   0.2226809   0.0000000), wk =   0.0003757
        k(   80) = (  -0.0262432   0.2041241   0.0454545), wk =   0.0007513
        k(   81) = (  -0.0524864   0.1855674   0.0909091), wk =   0.0007513
        k(   82) = (  -0.0787296   0.1670107   0.1363636), wk =   0.0007513
        k(   83) = (  -0.1049727   0.1484539   0.1818181), wk =   0.0007513
        k(   84) = (  -0.1312159   0.1298972   0.2272727), wk =   0.0007513
        k(   85) = (  -0.1574591   0.1113405   0.2727272), wk =   0.0007513
        k(   86) = (  -0.1837023   0.0927837   0.3181817), wk =   0.0007513
        k(   87) = (  -0.2099455   0.0742270   0.3636363), wk =   0.0007513
        k(   88) = (  -0.2361887   0.0556703   0.4090908), wk =   0.0007513
        k(   89) = (  -0.2624318   0.0371135   0.4545453), wk =   0.0007513
        k(   90) = (   0.2886750   0.4268049  -0.4999999), wk =   0.0007513
        k(   91) = (   0.2624318   0.4082482  -0.4545453), wk =   0.0007513
        k(   92) = (   0.2361887   0.3896915  -0.4090908), wk =   0.0007513
        k(   93) = (   0.2099455   0.3711347  -0.3636363), wk =   0.0007513
        k(   94) = (   0.1837023   0.3525780  -0.3181817), wk =   0.0007513
        k(   95) = (   0.1574591   0.3340213  -0.2727272), wk =   0.0007513
        k(   96) = (   0.1312159   0.3154645  -0.2272727), wk =   0.0007513
        k(   97) = (   0.1049727   0.2969078  -0.1818181), wk =   0.0007513
        k(   98) = (   0.0787296   0.2783511  -0.1363636), wk =   0.0007513
        k(   99) = (   0.0524864   0.2597943  -0.0909091), wk =   0.0007513
        k(  100) = (   0.0262432   0.2412376  -0.0454545), wk =   0.0007513
        k(  101) = (   0.0000000   0.2783511   0.0000000), wk =   0.0003757
        k(  102) = (  -0.0262432   0.2597944   0.0454545), wk =   0.0007513
        k(  103) = (  -0.0524864   0.2412376   0.0909091), wk =   0.0007513
        k(  104) = (  -0.0787296   0.2226809   0.1363636), wk =   0.0007513
        k(  105) = (  -0.1049727   0.2041242   0.1818181), wk =   0.0007513
        k(  106) = (  -0.1312159   0.1855674   0.2272727), wk =   0.0007513
        k(  107) = (  -0.1574591   0.1670107   0.2727272), wk =   0.0007513
        k(  108) = (  -0.1837023   0.1484540   0.3181817), wk =   0.0007513
        k(  109) = (  -0.2099455   0.1298972   0.3636363), wk =   0.0007513
        k(  110) = (  -0.2361887   0.1113405   0.4090908), wk =   0.0007513
        k(  111) = (  -0.2624318   0.0927838   0.4545453), wk =   0.0007513
        k(  112) = (   0.2886750   0.4824752  -0.4999999), wk =   0.0007513
        k(  113) = (   0.2624318   0.4639184  -0.4545453), wk =   0.0007513
        k(  114) = (   0.2361887   0.4453617  -0.4090908), wk =   0.0007513
        k(  115) = (   0.2099455   0.4268050  -0.3636363), wk =   0.0007513
        k(  116) = (   0.1837023   0.4082482  -0.3181817), wk =   0.0007513
        k(  117) = (   0.1574591   0.3896915  -0.2727272), wk =   0.0007513
        k(  118) = (   0.1312159   0.3711348  -0.2272727), wk =   0.0007513
        k(  119) = (   0.1049727   0.3525780  -0.1818181), wk =   0.0007513
        k(  120) = (   0.0787296   0.3340213  -0.1363636), wk =   0.0007513
        k(  121) = (   0.0524864   0.3154646  -0.0909091), wk =   0.0007513
        k(  122) = (   0.0262432   0.2969078  -0.0454545), wk =   0.0007513
        k(  123) = (   0.0000000   0.3340213   0.0000000), wk =   0.0003757
        k(  124) = (  -0.0262432   0.3154646   0.0454545), wk =   0.0007513
        k(  125) = (  -0.0524864   0.2969078   0.0909091), wk =   0.0007513
        k(  126) = (  -0.0787296   0.2783511   0.1363636), wk =   0.0007513
        k(  127) = (  -0.1049727   0.2597944   0.1818181), wk =   0.0007513
        k(  128) = (  -0.1312159   0.2412376   0.2272727), wk =   0.0007513
        k(  129) = (  -0.1574591   0.2226809   0.2727272), wk =   0.0007513
        k(  130) = (  -0.1837023   0.2041242   0.3181817), wk =   0.0007513
        k(  131) = (  -0.2099455   0.1855674   0.3636363), wk =   0.0007513
        k(  132) = (  -0.2361887   0.1670107   0.4090908), wk =   0.0007513
        k(  133) = (  -0.2624318   0.1484540   0.4545453), wk =   0.0007513
        k(  134) = (   0.2886750   0.5381454  -0.4999999), wk =   0.0007513
        k(  135) = (   0.2624318   0.5195886  -0.4545453), wk =   0.0007513
        k(  136) = (   0.2361887   0.5010319  -0.4090908), wk =   0.0007513
        k(  137) = (   0.2099455   0.4824752  -0.3636363), wk =   0.0007513
        k(  138) = (   0.1837023   0.4639184  -0.3181817), wk =   0.0007513
        k(  139) = (   0.1574591   0.4453617  -0.2727272), wk =   0.0007513
        k(  140) = (   0.1312159   0.4268050  -0.2272727), wk =   0.0007513
        k(  141) = (   0.1049727   0.4082482  -0.1818181), wk =   0.0007513
        k(  142) = (   0.0787296   0.3896915  -0.1363636), wk =   0.0007513
        k(  143) = (   0.0524864   0.3711348  -0.0909091), wk =   0.0007513
        k(  144) = (   0.0262432   0.3525780  -0.0454545), wk =   0.0007513
        k(  145) = (   0.0000000   0.3896915   0.0000000), wk =   0.0003757
        k(  146) = (  -0.0262432   0.3711348   0.0454545), wk =   0.0007513
        k(  147) = (  -0.0524864   0.3525781   0.0909091), wk =   0.0007513
        k(  148) = (  -0.0787296   0.3340213   0.1363636), wk =   0.0007513
        k(  149) = (  -0.1049727   0.3154646   0.1818181), wk =   0.0007513
        k(  150) = (  -0.1312159   0.2969079   0.2272727), wk =   0.0007513
        k(  151) = (  -0.1574591   0.2783511   0.2727272), wk =   0.0007513
        k(  152) = (  -0.1837023   0.2597944   0.3181817), wk =   0.0007513
        k(  153) = (  -0.2099455   0.2412377   0.3636363), wk =   0.0007513
        k(  154) = (  -0.2361887   0.2226809   0.4090908), wk =   0.0007513
        k(  155) = (  -0.2624318   0.2041242   0.4545453), wk =   0.0007513
        k(  156) = (   0.2886750   0.5938156  -0.4999999), wk =   0.0007513
        k(  157) = (   0.2624318   0.5752589  -0.4545453), wk =   0.0007513
        k(  158) = (   0.2361887   0.5567021  -0.4090908), wk =   0.0007513
        k(  159) = (   0.2099455   0.5381454  -0.3636363), wk =   0.0007513
        k(  160) = (   0.1837023   0.5195887  -0.3181817), wk =   0.0007513
        k(  161) = (   0.1574591   0.5010319  -0.2727272), wk =   0.0007513
        k(  162) = (   0.1312159   0.4824752  -0.2272727), wk =   0.0007513
        k(  163) = (   0.1049727   0.4639185  -0.1818181), wk =   0.0007513
        k(  164) = (   0.0787296   0.4453617  -0.1363636), wk =   0.0007513
        k(  165) = (   0.0524864   0.4268050  -0.0909091), wk =   0.0007513
        k(  166) = (   0.0262432   0.4082483  -0.0454545), wk =   0.0007513
        k(  167) = (   0.0000000   0.4453617   0.0000000), wk =   0.0003757
        k(  168) = (  -0.0262432   0.4268050   0.0454545), wk =   0.0007513
        k(  169) = (  -0.0524864   0.4082483   0.0909091), wk =   0.0007513
        k(  170) = (  -0.0787296   0.3896915   0.1363636), wk =   0.0007513
        k(  171) = (  -0.1049727   0.3711348   0.1818181), wk =   0.0007513
        k(  172) = (  -0.1312159   0.3525781   0.2272727), wk =   0.0007513
        k(  173) = (  -0.1574591   0.3340213   0.2727272), wk =   0.0007513
        k(  174) = (  -0.1837023   0.3154646   0.3181817), wk =   0.0007513
        k(  175) = (  -0.2099455   0.2969079   0.3636363), wk =   0.0007513
        k(  176) = (  -0.2361887   0.2783512   0.4090908), wk =   0.0007513
        k(  177) = (  -0.2624318   0.2597944   0.4545453), wk =   0.0007513
        k(  178) = (   0.2886750   0.6494858  -0.4999999), wk =   0.0007513
        k(  179) = (   0.2624318   0.6309291  -0.4545453), wk =   0.0007513
        k(  180) = (   0.2361887   0.6123723  -0.4090908), wk =   0.0007513
        k(  181) = (   0.2099455   0.5938156  -0.3636363), wk =   0.0007513
        k(  182) = (   0.1837023   0.5752589  -0.3181817), wk =   0.0007513
        k(  183) = (   0.1574591   0.5567021  -0.2727272), wk =   0.0007513
        k(  184) = (   0.1312159   0.5381454  -0.2272727), wk =   0.0007513
        k(  185) = (   0.1049727   0.5195887  -0.1818181), wk =   0.0007513
        k(  186) = (   0.0787296   0.5010319  -0.1363636), wk =   0.0007513
        k(  187) = (   0.0524864   0.4824752  -0.0909091), wk =   0.0007513
        k(  188) = (   0.0262432   0.4639185  -0.0454545), wk =   0.0007513
        k(  189) = (   0.0000000   0.5010320   0.0000000), wk =   0.0003757
        k(  190) = (  -0.0262432   0.4824752   0.0454545), wk =   0.0007513
        k(  191) = (  -0.0524864   0.4639185   0.0909091), wk =   0.0007513
        k(  192) = (  -0.0787296   0.4453618   0.1363636), wk =   0.0007513
        k(  193) = (  -0.1049727   0.4268050   0.1818181), wk =   0.0007513
        k(  194) = (  -0.1312159   0.4082483   0.2272727), wk =   0.0007513
        k(  195) = (  -0.1574591   0.3896916   0.2727272), wk =   0.0007513
        k(  196) = (  -0.1837023   0.3711348   0.3181817), wk =   0.0007513
        k(  197) = (  -0.2099455   0.3525781   0.3636363), wk =   0.0007513
        k(  198) = (  -0.2361887   0.3340214   0.4090908), wk =   0.0007513
        k(  199) = (  -0.2624318   0.3154646   0.4545453), wk =   0.0007513
        k(  200) = (   0.2886750   0.7051560  -0.4999999), wk =   0.0007513
        k(  201) = (   0.2624318   0.6865993  -0.4545453), wk =   0.0007513
        k(  202) = (   0.2361887   0.6680426  -0.4090908), wk =   0.0007513
        k(  203) = (   0.2099455   0.6494858  -0.3636363), wk =   0.0007513
        k(  204) = (   0.1837023   0.6309291  -0.3181817), wk =   0.0007513
        k(  205) = (   0.1574591   0.6123724  -0.2727272), wk =   0.0007513
        k(  206) = (   0.1312159   0.5938156  -0.2272727), wk =   0.0007513
        k(  207) = (   0.1049727   0.5752589  -0.1818181), wk =   0.0007513
        k(  208) = (   0.0787296   0.5567022  -0.1363636), wk =   0.0007513
        k(  209) = (   0.0524864   0.5381454  -0.0909091), wk =   0.0007513
        k(  210) = (   0.0262432   0.5195887  -0.0454545), wk =   0.0007513
        k(  211) = (   0.0000000   0.5567022   0.0000000), wk =   0.0003757
        k(  212) = (  -0.0262432   0.5381455   0.0454545), wk =   0.0007513
        k(  213) = (  -0.0524864   0.5195887   0.0909091), wk =   0.0007513
        k(  214) = (  -0.0787296   0.5010320   0.1363636), wk =   0.0007513
        k(  215) = (  -0.1049727   0.4824753   0.1818181), wk =   0.0007513
        k(  216) = (  -0.1312159   0.4639185   0.2272727), wk =   0.0007513
        k(  217) = (  -0.1574591   0.4453618   0.2727272), wk =   0.0007513
        k(  218) = (  -0.1837023   0.4268051   0.3181817), wk =   0.0007513
        k(  219) = (  -0.2099455   0.4082483   0.3636363), wk =   0.0007513
        k(  220) = (  -0.2361887   0.3896916   0.4090908), wk =   0.0007513
        k(  221) = (  -0.2624318   0.3711349   0.4545453), wk =   0.0007513
        k(  222) = (   0.2886750   0.7608262  -0.4999999), wk =   0.0007513
        k(  223) = (   0.2624318   0.7422695  -0.4545453), wk =   0.0007513
        k(  224) = (   0.2361887   0.7237128  -0.4090908), wk =   0.0007513
        k(  225) = (   0.2099455   0.7051560  -0.3636363), wk =   0.0007513
        k(  226) = (   0.1837023   0.6865993  -0.3181817), wk =   0.0007513
        k(  227) = (   0.1574591   0.6680426  -0.2727272), wk =   0.0007513
        k(  228) = (   0.1312159   0.6494858  -0.2272727), wk =   0.0007513
        k(  229) = (   0.1049727   0.6309291  -0.1818181), wk =   0.0007513
        k(  230) = (   0.0787296   0.6123724  -0.1363636), wk =   0.0007513
        k(  231) = (   0.0524864   0.5938157  -0.0909091), wk =   0.0007513
        k(  232) = (   0.0262432   0.5752589  -0.0454545), wk =   0.0007513
        k(  233) = (   0.0000000  -0.6123724   0.0000000), wk =   0.0001878
        k(  234) = (  -0.0262432  -0.6309291   0.0454545), wk =   0.0007513
        k(  235) = (  -0.0524864  -0.6494859   0.0909091), wk =   0.0007513
        k(  236) = (  -0.0787296  -0.6680426   0.1363636), wk =   0.0007513
        k(  237) = (  -0.1049727  -0.6865993   0.1818181), wk =   0.0007513
        k(  238) = (  -0.1312159  -0.7051561   0.2272727), wk =   0.0007513
        k(  239) = (  -0.1574591  -0.7237128   0.2727272), wk =   0.0007513
        k(  240) = (  -0.1837023  -0.7422695   0.3181817), wk =   0.0007513
        k(  241) = (  -0.2099455  -0.7608263   0.3636363), wk =   0.0007513
        k(  242) = (  -0.2361887  -0.7793830   0.4090908), wk =   0.0007513
        k(  243) = (  -0.2624318  -0.7979397   0.4545453), wk =   0.0007513
        k(  244) = (   0.2886750  -0.4082483  -0.4999999), wk =   0.0003757
        k(  245) = (   0.0524864  -0.0185567   0.0000000), wk =   0.0003757
        k(  246) = (   0.0000000  -0.0556702   0.0909091), wk =   0.0007513
        k(  247) = (  -0.0262432  -0.0742269   0.1363636), wk =   0.0007513
        k(  248) = (  -0.0524863  -0.0927837   0.1818181), wk =   0.0007513
        k(  249) = (  -0.0787295  -0.1113404   0.2272727), wk =   0.0007513
        k(  250) = (  -0.1049727  -0.1298971   0.2727272), wk =   0.0007513
        k(  251) = (  -0.1312159  -0.1484539   0.3181817), wk =   0.0007513
        k(  252) = (  -0.1574591  -0.1670106   0.3636363), wk =   0.0007513
        k(  253) = (  -0.1837023  -0.1855673   0.4090908), wk =   0.0007513
        k(  254) = (  -0.2099455  -0.2041241   0.4545453), wk =   0.0007513
        k(  255) = (   0.3411614   0.1855673  -0.4999999), wk =   0.0007513
        k(  256) = (   0.3149182   0.1670106  -0.4545453), wk =   0.0007513
        k(  257) = (   0.2886750   0.1484539  -0.4090908), wk =   0.0007513
        k(  258) = (   0.2624319   0.1298971  -0.3636363), wk =   0.0007513
        k(  259) = (   0.2361887   0.1113404  -0.3181817), wk =   0.0007513
        k(  260) = (   0.2099455   0.0927837  -0.2727272), wk =   0.0007513
        k(  261) = (   0.1837023   0.0742269  -0.2272727), wk =   0.0007513
        k(  262) = (   0.1574591   0.0556702  -0.1818181), wk =   0.0007513
        k(  263) = (   0.1312159   0.0371135  -0.1363636), wk =   0.0007513
        k(  264) = (   0.1049728   0.0185567  -0.0909091), wk =   0.0007513
        k(  265) = (   0.0787296  -0.0000000  -0.0454545), wk =   0.0007513
        k(  266) = (   0.0524864   0.0371135   0.0000000), wk =   0.0003757
        k(  267) = (   0.0000000   0.0000000   0.0909091), wk =   0.0003757
        k(  268) = (  -0.0262432  -0.0185567   0.1363636), wk =   0.0007513
        k(  269) = (  -0.0524863  -0.0371135   0.1818181), wk =   0.0007513
        k(  270) = (  -0.0787295  -0.0556702   0.2272727), wk =   0.0007513
        k(  271) = (  -0.1049727  -0.0742269   0.2727272), wk =   0.0007513
        k(  272) = (  -0.1312159  -0.0927837   0.3181817), wk =   0.0007513
        k(  273) = (  -0.1574591  -0.1113404   0.3636363), wk =   0.0007513
        k(  274) = (  -0.1837023  -0.1298971   0.4090908), wk =   0.0007513
        k(  275) = (  -0.2099455  -0.1484539   0.4545453), wk =   0.0007513
        k(  276) = (   0.3411614   0.2412375  -0.4999999), wk =   0.0007513
        k(  277) = (   0.3149182   0.2226808  -0.4545453), wk =   0.0007513
        k(  278) = (   0.2886750   0.2041241  -0.4090908), wk =   0.0007513
        k(  279) = (   0.2624319   0.1855673  -0.3636363), wk =   0.0007513
        k(  280) = (   0.2361887   0.1670106  -0.3181817), wk =   0.0007513
        k(  281) = (   0.2099455   0.1484539  -0.2727272), wk =   0.0007513
        k(  282) = (   0.1837023   0.1298971  -0.2272727), wk =   0.0007513
        k(  283) = (   0.1574591   0.1113404  -0.1818181), wk =   0.0007513
        k(  284) = (   0.1312159   0.0927837  -0.1363636), wk =   0.0007513
        k(  285) = (   0.1049728   0.0742269  -0.0909091), wk =   0.0007513
        k(  286) = (   0.0787296   0.0556702  -0.0454545), wk =   0.0007513
        k(  287) = (   0.0524864   0.0927837   0.0000000), wk =   0.0003757
        k(  288) = (  -0.0262432   0.0371135   0.1363636), wk =   0.0007513
        k(  289) = (  -0.0524863   0.0185568   0.1818181), wk =   0.0007513
        k(  290) = (  -0.0787295   0.0000000   0.2272727), wk =   0.0007513
        k(  291) = (  -0.1049727  -0.0185567   0.2727272), wk =   0.0007513
        k(  292) = (  -0.1312159  -0.0371134   0.3181817), wk =   0.0007513
        k(  293) = (  -0.1574591  -0.0556702   0.3636363), wk =   0.0007513
        k(  294) = (  -0.1837023  -0.0742269   0.4090908), wk =   0.0007513
        k(  295) = (  -0.2099455  -0.0927836   0.4545453), wk =   0.0007513
        k(  296) = (   0.3411614   0.2969078  -0.4999999), wk =   0.0007513
        k(  297) = (   0.3149182   0.2783510  -0.4545453), wk =   0.0007513
        k(  298) = (   0.2886750   0.2597943  -0.4090908), wk =   0.0007513
        k(  299) = (   0.2624319   0.2412376  -0.3636363), wk =   0.0007513
        k(  300) = (   0.2361887   0.2226808  -0.3181817), wk =   0.0007513
        k(  301) = (   0.2099455   0.2041241  -0.2727272), wk =   0.0007513
        k(  302) = (   0.1837023   0.1855674  -0.2272727), wk =   0.0007513
        k(  303) = (   0.1574591   0.1670106  -0.1818181), wk =   0.0007513
        k(  304) = (   0.1312159   0.1484539  -0.1363636), wk =   0.0007513
        k(  305) = (   0.1049728   0.1298972  -0.0909091), wk =   0.0007513
        k(  306) = (   0.0787296   0.1113404  -0.0454545), wk =   0.0007513
        k(  307) = (   0.0524864   0.1484539   0.0000000), wk =   0.0003757
        k(  308) = (   0.0000000   0.1113404   0.0909091), wk =   0.0007513
        k(  309) = (  -0.0262432   0.0927837   0.1363636), wk =   0.0007513
        k(  310) = (  -0.0524863   0.0742270   0.1818181), wk =   0.0007513
        k(  311) = (  -0.0787295   0.0556703   0.2272727), wk =   0.0007513
        k(  312) = (  -0.1049727   0.0371135   0.2727272), wk =   0.0007513
        k(  313) = (  -0.1312159   0.0185568   0.3181817), wk =   0.0007513
        k(  314) = (  -0.1574591   0.0000001   0.3636363), wk =   0.0007513
        k(  315) = (  -0.1837023  -0.0185567   0.4090908), wk =   0.0007513
        k(  316) = (  -0.2099455  -0.0371134   0.4545453), wk =   0.0007513
        k(  317) = (   0.3411614   0.3525780  -0.4999999), wk =   0.0007513
        k(  318) = (   0.3149182   0.3340212  -0.4545453), wk =   0.0007513
        k(  319) = (   0.2886750   0.3154645  -0.4090908), wk =   0.0007513
        k(  320) = (   0.2624319   0.2969078  -0.3636363), wk =   0.0007513
        k(  321) = (   0.2361887   0.2783510  -0.3181817), wk =   0.0007513
        k(  322) = (   0.2099455   0.2597943  -0.2727272), wk =   0.0007513
        k(  323) = (   0.1837023   0.2412376  -0.2272727), wk =   0.0007513
        k(  324) = (   0.1574591   0.2226808  -0.1818181), wk =   0.0007513
        k(  325) = (   0.1312159   0.2041241  -0.1363636), wk =   0.0007513
        k(  326) = (   0.1049728   0.1855674  -0.0909091), wk =   0.0007513
        k(  327) = (   0.0787296   0.1670106  -0.0454545), wk =   0.0007513
        k(  328) = (   0.0524864   0.2041241   0.0000000), wk =   0.0003757
        k(  329) = (   0.0000000   0.1670107   0.0909091), wk =   0.0007513
        k(  330) = (  -0.0262432   0.1484539   0.1363636), wk =   0.0007513
        k(  331) = (  -0.0524863   0.1298972   0.1818181), wk =   0.0007513
        k(  332) = (  -0.0787295   0.1113405   0.2272727), wk =   0.0007513
        k(  333) = (  -0.1049727   0.0927837   0.2727272), wk =   0.0007513
        k(  334) = (  -0.1312159   0.0742270   0.3181817), wk =   0.0007513
        k(  335) = (  -0.1574591   0.0556703   0.3636363), wk =   0.0007513
        k(  336) = (  -0.1837023   0.0371135   0.4090908), wk =   0.0007513
        k(  337) = (  -0.2099455   0.0185568   0.4545453), wk =   0.0007513
        k(  338) = (   0.3411614   0.4082482  -0.4999999), wk =   0.0007513
        k(  339) = (   0.3149182   0.3896915  -0.4545453), wk =   0.0007513
        k(  340) = (   0.2886750   0.3711347  -0.4090908), wk =   0.0007513
        k(  341) = (   0.2624319   0.3525780  -0.3636363), wk =   0.0007513
        k(  342) = (   0.2361887   0.3340213  -0.3181817), wk =   0.0007513
        k(  343) = (   0.2099455   0.3154645  -0.2727272), wk =   0.0007513
        k(  344) = (   0.1837023   0.2969078  -0.2272727), wk =   0.0007513
        k(  345) = (   0.1574591   0.2783511  -0.1818181), wk =   0.0007513
        k(  346) = (   0.1312159   0.2597943  -0.1363636), wk =   0.0007513
        k(  347) = (   0.1049728   0.2412376  -0.0909091), wk =   0.0007513
        k(  348) = (   0.0787296   0.2226809  -0.0454545), wk =   0.0007513
        k(  349) = (   0.0524864   0.2597944   0.0000000), wk =   0.0003757
        k(  350) = (   0.0000000   0.2226809   0.0909091), wk =   0.0007513
        k(  351) = (  -0.0262432   0.2041242   0.1363636), wk =   0.0007513
        k(  352) = (  -0.0524863   0.1855674   0.1818181), wk =   0.0007513
        k(  353) = (  -0.0787295   0.1670107   0.2272727), wk =   0.0007513
        k(  354) = (  -0.1049727   0.1484540   0.2727272), wk =   0.0007513
        k(  355) = (  -0.1312159   0.1298972   0.3181817), wk =   0.0007513
        k(  356) = (  -0.1574591   0.1113405   0.3636363), wk =   0.0007513
        k(  357) = (  -0.1837023   0.0927838   0.4090908), wk =   0.0007513
        k(  358) = (  -0.2099455   0.0742270   0.4545453), wk =   0.0007513
        k(  359) = (   0.3411614   0.4639184  -0.4999999), wk =   0.0007513
        k(  360) = (   0.3149182   0.4453617  -0.4545453), wk =   0.0007513
        k(  361) = (   0.2886750   0.4268049  -0.4090908), wk =   0.0007513
        k(  362) = (   0.2624319   0.4082482  -0.3636363), wk =   0.0007513
        k(  363) = (   0.2361887   0.3896915  -0.3181817), wk =   0.0007513
        k(  364) = (   0.2099455   0.3711348  -0.2727272), wk =   0.0007513
        k(  365) = (   0.1837023   0.3525780  -0.2272727), wk =   0.0007513
        k(  366) = (   0.1574591   0.3340213  -0.1818181), wk =   0.0007513
        k(  367) = (   0.1312159   0.3154646  -0.1363636), wk =   0.0007513
        k(  368) = (   0.1049728   0.2969078  -0.0909091), wk =   0.0007513
        k(  369) = (   0.0787296   0.2783511  -0.0454545), wk =   0.0007513
        k(  370) = (   0.0524864   0.3154646   0.0000000), wk =   0.0003757
        k(  371) = (   0.0000000   0.2783511   0.0909091), wk =   0.0007513
        k(  372) = (  -0.0262432   0.2597944   0.1363636), wk =   0.0007513
        k(  373) = (  -0.0524863   0.2412376   0.1818181), wk =   0.0007513
        k(  374) = (  -0.0787295   0.2226809   0.2272727), wk =   0.0007513
        k(  375) = (  -0.1049727   0.2041242   0.2727272), wk =   0.0007513
        k(  376) = (  -0.1312159   0.1855674   0.3181817), wk =   0.0007513
        k(  377) = (  -0.1574591   0.1670107   0.3636363), wk =   0.0007513
        k(  378) = (  -0.1837023   0.1484540   0.4090908), wk =   0.0007513
        k(  379) = (  -0.2099455   0.1298972   0.4545453), wk =   0.0007513
        k(  380) = (   0.3411614   0.5195886  -0.4999999), wk =   0.0007513
        k(  381) = (   0.3149182   0.5010319  -0.4545453), wk =   0.0007513
        k(  382) = (   0.2886750   0.4824752  -0.4090908), wk =   0.0007513
        k(  383) = (   0.2624319   0.4639184  -0.3636363), wk =   0.0007513
        k(  384) = (   0.2361887   0.4453617  -0.3181817), wk =   0.0007513
        k(  385) = (   0.2099455   0.4268050  -0.2727272), wk =   0.0007513
        k(  386) = (   0.1837023   0.4082482  -0.2272727), wk =   0.0007513
        k(  387) = (   0.1574591   0.3896915  -0.1818181), wk =   0.0007513
        k(  388) = (   0.1312159   0.3711348  -0.1363636), wk =   0.0007513
        k(  389) = (   0.1049728   0.3525780  -0.0909091), wk =   0.0007513
        k(  390) = (   0.0787296   0.3340213  -0.0454545), wk =   0.0007513
        k(  391) = (   0.0524864   0.3711348   0.0000000), wk =   0.0003757
        k(  392) = (   0.0000000   0.3340213   0.0909091), wk =   0.0007513
        k(  393) = (  -0.0262432   0.3154646   0.1363636), wk =   0.0007513
        k(  394) = (  -0.0524863   0.2969079   0.1818181), wk =   0.0007513
        k(  395) = (  -0.0787295   0.2783511   0.2272727), wk =   0.0007513
        k(  396) = (  -0.1049727   0.2597944   0.2727272), wk =   0.0007513
        k(  397) = (  -0.1312159   0.2412377   0.3181817), wk =   0.0007513
        k(  398) = (  -0.1574591   0.2226809   0.3636363), wk =   0.0007513
        k(  399) = (  -0.1837023   0.2041242   0.4090908), wk =   0.0007513
        k(  400) = (  -0.2099455   0.1855675   0.4545453), wk =   0.0007513
        k(  401) = (   0.3411614   0.5752589  -0.4999999), wk =   0.0007513
        k(  402) = (   0.3149182   0.5567021  -0.4545453), wk =   0.0007513
        k(  403) = (   0.2886750   0.5381454  -0.4090908), wk =   0.0007513
        k(  404) = (   0.2624319   0.5195887  -0.3636363), wk =   0.0007513
        k(  405) = (   0.2361887   0.5010319  -0.3181817), wk =   0.0007513
        k(  406) = (   0.2099455   0.4824752  -0.2727272), wk =   0.0007513
        k(  407) = (   0.1837023   0.4639185  -0.2272727), wk =   0.0007513
        k(  408) = (   0.1574591   0.4453617  -0.1818181), wk =   0.0007513
        k(  409) = (   0.1312159   0.4268050  -0.1363636), wk =   0.0007513
        k(  410) = (   0.1049728   0.4082483  -0.0909091), wk =   0.0007513
        k(  411) = (   0.0787296   0.3896915  -0.0454545), wk =   0.0007513
        k(  412) = (   0.0524864   0.4268050   0.0000000), wk =   0.0003757
        k(  413) = (   0.0000000   0.3896915   0.0909091), wk =   0.0007513
        k(  414) = (  -0.0262432   0.3711348   0.1363636), wk =   0.0007513
        k(  415) = (  -0.0524863   0.3525781   0.1818181), wk =   0.0007513
        k(  416) = (  -0.0787295   0.3340213   0.2272727), wk =   0.0007513
        k(  417) = (  -0.1049727   0.3154646   0.2727272), wk =   0.0007513
        k(  418) = (  -0.1312159   0.2969079   0.3181817), wk =   0.0007513
        k(  419) = (  -0.1574591   0.2783511   0.3636363), wk =   0.0007513
        k(  420) = (  -0.1837023   0.2597944   0.4090908), wk =   0.0007513
        k(  421) = (  -0.2099455   0.2412377   0.4545453), wk =   0.0007513
        k(  422) = (   0.3411614   0.6309291  -0.4999999), wk =   0.0007513
        k(  423) = (   0.3149182   0.6123723  -0.4545453), wk =   0.0007513
        k(  424) = (   0.2886750   0.5938156  -0.4090908), wk =   0.0007513
        k(  425) = (   0.2624319   0.5752589  -0.3636363), wk =   0.0007513
        k(  426) = (   0.2361887   0.5567021  -0.3181817), wk =   0.0007513
        k(  427) = (   0.2099455   0.5381454  -0.2727272), wk =   0.0007513
        k(  428) = (   0.1837023   0.5195887  -0.2272727), wk =   0.0007513
        k(  429) = (   0.1574591   0.5010319  -0.1818181), wk =   0.0007513
        k(  430) = (   0.1312159   0.4824752  -0.1363636), wk =   0.0007513
        k(  431) = (   0.1049728   0.4639185  -0.0909091), wk =   0.0007513
        k(  432) = (   0.0787296   0.4453617  -0.0454545), wk =   0.0007513
        k(  433) = (   0.0524864   0.4824752   0.0000000), wk =   0.0003757
        k(  434) = (   0.0000000   0.4453618   0.0909091), wk =   0.0007513
        k(  435) = (  -0.0262432   0.4268050   0.1363636), wk =   0.0007513
        k(  436) = (  -0.0524863   0.4082483   0.1818181), wk =   0.0007513
        k(  437) = (  -0.0787295   0.3896916   0.2272727), wk =   0.0007513
        k(  438) = (  -0.1049727   0.3711348   0.2727272), wk =   0.0007513
        k(  439) = (  -0.1312159   0.3525781   0.3181817), wk =   0.0007513
        k(  440) = (  -0.1574591   0.3340214   0.3636363), wk =   0.0007513
        k(  441) = (  -0.1837023   0.3154646   0.4090908), wk =   0.0007513
        k(  442) = (  -0.2099455   0.2969079   0.4545453), wk =   0.0007513
        k(  443) = (   0.3411614   0.6865993  -0.4999999), wk =   0.0007513
        k(  444) = (   0.3149182   0.6680426  -0.4545453), wk =   0.0007513
        k(  445) = (   0.2886750   0.6494858  -0.4090908), wk =   0.0007513
        k(  446) = (   0.2624319   0.6309291  -0.3636363), wk =   0.0007513
        k(  447) = (   0.2361887   0.6123724  -0.3181817), wk =   0.0007513
        k(  448) = (   0.2099455   0.5938156  -0.2727272), wk =   0.0007513
        k(  449) = (   0.1837023   0.5752589  -0.2272727), wk =   0.0007513
        k(  450) = (   0.1574591   0.5567022  -0.1818181), wk =   0.0007513
        k(  451) = (   0.1312159   0.5381454  -0.1363636), wk =   0.0007513
        k(  452) = (   0.1049728   0.5195887  -0.0909091), wk =   0.0007513
        k(  453) = (   0.0787296   0.5010320  -0.0454545), wk =   0.0007513
        k(  454) = (   0.0524864   0.5381454   0.0000000), wk =   0.0003757
        k(  455) = (   0.0000000   0.5010320   0.0909091), wk =   0.0007513
        k(  456) = (  -0.0262432   0.4824752   0.1363636), wk =   0.0007513
        k(  457) = (  -0.0524863   0.4639185   0.1818181), wk =   0.0007513
        k(  458) = (  -0.0787295   0.4453618   0.2272727), wk =   0.0007513
        k(  459) = (  -0.1049727   0.4268050   0.2727272), wk =   0.0007513
        k(  460) = (  -0.1312159   0.4082483   0.3181817), wk =   0.0007513
        k(  461) = (  -0.1574591   0.3896916   0.3636363), wk =   0.0007513
        k(  462) = (  -0.1837023   0.3711348   0.4090908), wk =   0.0007513
        k(  463) = (  -0.2099455   0.3525781   0.4545453), wk =   0.0007513
        k(  464) = (   0.3411614   0.7422695  -0.4999999), wk =   0.0007513
        k(  465) = (   0.3149182   0.7237128  -0.4545453), wk =   0.0007513
        k(  466) = (   0.2886750   0.7051560  -0.4090908), wk =   0.0007513
        k(  467) = (   0.2624319   0.6865993  -0.3636363), wk =   0.0007513
        k(  468) = (   0.2361887   0.6680426  -0.3181817), wk =   0.0007513
        k(  469) = (   0.2099455   0.6494858  -0.2727272), wk =   0.0007513
        k(  470) = (   0.1837023   0.6309291  -0.2272727), wk =   0.0007513
        k(  471) = (   0.1574591   0.6123724  -0.1818181), wk =   0.0007513
        k(  472) = (   0.1312159   0.5938156  -0.1363636), wk =   0.0007513
        k(  473) = (   0.1049728   0.5752589  -0.0909091), wk =   0.0007513
        k(  474) = (   0.0787296   0.5567022  -0.0454545), wk =   0.0007513
        k(  475) = (   0.0524864  -0.6309291   0.0000000), wk =   0.0003757
        k(  476) = (   0.0000000  -0.6680426   0.0909091), wk =   0.0007513
        k(  477) = (  -0.0262432  -0.6865993   0.1363636), wk =   0.0007513
        k(  478) = (  -0.0524863  -0.7051561   0.1818181), wk =   0.0007513
        k(  479) = (  -0.0787295  -0.7237128   0.2272727), wk =   0.0007513
        k(  480) = (  -0.1049727  -0.7422695   0.2727272), wk =   0.0007513
        k(  481) = (  -0.1312159  -0.7608263   0.3181817), wk =   0.0007513
        k(  482) = (  -0.1574591  -0.7793830   0.3636363), wk =   0.0007513
        k(  483) = (  -0.1837023  -0.7979397   0.4090908), wk =   0.0007513
        k(  484) = (  -0.2099455  -0.8164965   0.4545453), wk =   0.0007513
        k(  485) = (   0.3411614  -0.4268051  -0.4999999), wk =   0.0007513
        k(  486) = (   0.3149182  -0.4453618  -0.4545453), wk =   0.0007513
        k(  487) = (   0.2886750  -0.4639185  -0.4090908), wk =   0.0007513
        k(  488) = (   0.2624319  -0.4824753  -0.3636363), wk =   0.0007513
        k(  489) = (   0.2361887  -0.5010320  -0.3181817), wk =   0.0007513
        k(  490) = (   0.2099455  -0.5195887  -0.2727272), wk =   0.0007513
        k(  491) = (   0.1837023  -0.5381455  -0.2272727), wk =   0.0007513
        k(  492) = (   0.1574591  -0.5567022  -0.1818181), wk =   0.0007513
        k(  493) = (   0.1312159  -0.5752589  -0.1363636), wk =   0.0007513
        k(  494) = (   0.1049728  -0.5938157  -0.0909091), wk =   0.0007513
        k(  495) = (   0.0787296  -0.6123724  -0.0454545), wk =   0.0007513
        k(  496) = (   0.0524864  -0.5752589   0.0000000), wk =   0.0003757
        k(  497) = (   0.0000000  -0.6123724   0.0909091), wk =   0.0003757
        k(  498) = (  -0.0262432  -0.6309291   0.1363636), wk =   0.0007513
        k(  499) = (  -0.0524863  -0.6494859   0.1818181), wk =   0.0007513
        k(  500) = (  -0.0787295  -0.6680426   0.2272727), wk =   0.0007513
        k(  501) = (  -0.1049727  -0.6865993   0.2727272), wk =   0.0007513
        k(  502) = (  -0.1312159  -0.7051561   0.3181817), wk =   0.0007513
        k(  503) = (  -0.1574591  -0.7237128   0.3636363), wk =   0.0007513
        k(  504) = (  -0.1837023  -0.7422695   0.4090908), wk =   0.0007513
        k(  505) = (  -0.2099455  -0.7608263   0.4545453), wk =   0.0007513
        k(  506) = (   0.3411614  -0.3711349  -0.4999999), wk =   0.0007513
        k(  507) = (   0.3149182  -0.3896916  -0.4545453), wk =   0.0007513
        k(  508) = (   0.2886750  -0.4082483  -0.4090908), wk =   0.0007513
        k(  509) = (   0.2624319  -0.4268051  -0.3636363), wk =   0.0007513
        k(  510) = (   0.2361887  -0.4453618  -0.3181817), wk =   0.0007513
        k(  511) = (   0.2099455  -0.4639185  -0.2727272), wk =   0.0007513
        k(  512) = (   0.1837023  -0.4824753  -0.2272727), wk =   0.0007513
        k(  513) = (   0.1574591  -0.5010320  -0.1818181), wk =   0.0007513
        k(  514) = (   0.1312159  -0.5195887  -0.1363636), wk =   0.0007513
        k(  515) = (   0.1049728  -0.5381455  -0.0909091), wk =   0.0007513
        k(  516) = (   0.0787296  -0.5567022  -0.0454545), wk =   0.0007513
        k(  517) = (   0.0524864  -0.5195887   0.0000000), wk =   0.0003757
        k(  518) = (  -0.0262432  -0.5752589   0.1363636), wk =   0.0007513
        k(  519) = (  -0.0524863  -0.5938156   0.1818181), wk =   0.0007513
        k(  520) = (  -0.0787295  -0.6123724   0.2272727), wk =   0.0007513
        k(  521) = (  -0.1049727  -0.6309291   0.2727272), wk =   0.0007513
        k(  522) = (  -0.1312159  -0.6494858   0.3181817), wk =   0.0007513
        k(  523) = (  -0.1574591  -0.6680426   0.3636363), wk =   0.0007513
        k(  524) = (  -0.1837023  -0.6865993   0.4090908), wk =   0.0007513
        k(  525) = (  -0.2099455  -0.7051560   0.4545453), wk =   0.0007513
        k(  526) = (   0.3411614  -0.3154646  -0.4999999), wk =   0.0007513
        k(  527) = (   0.3149182  -0.3340214  -0.4545453), wk =   0.0007513
        k(  528) = (   0.2886750  -0.3525781  -0.4090908), wk =   0.0007513
        k(  529) = (   0.2624319  -0.3711348  -0.3636363), wk =   0.0007513
        k(  530) = (   0.2361887  -0.3896916  -0.3181817), wk =   0.0007513
        k(  531) = (   0.2099455  -0.4082483  -0.2727272), wk =   0.0007513
        k(  532) = (   0.1837023  -0.4268050  -0.2272727), wk =   0.0007513
        k(  533) = (   0.1574591  -0.4453618  -0.1818181), wk =   0.0007513
        k(  534) = (   0.1312159  -0.4639185  -0.1363636), wk =   0.0007513
        k(  535) = (   0.1049728  -0.4824752  -0.0909091), wk =   0.0007513
        k(  536) = (   0.0787296  -0.5010320  -0.0454545), wk =   0.0007513
        k(  537) = (   0.0524864  -0.4639185   0.0000000), wk =   0.0003757
        k(  538) = (  -0.0262432  -0.5195887   0.1363636), wk =   0.0007513
        k(  539) = (  -0.0524863  -0.5381454   0.1818181), wk =   0.0007513
        k(  540) = (  -0.0787295  -0.5567022   0.2272727), wk =   0.0007513
        k(  541) = (  -0.1049727  -0.5752589   0.2727272), wk =   0.0007513
        k(  542) = (  -0.1312159  -0.5938156   0.3181817), wk =   0.0007513
        k(  543) = (  -0.1574591  -0.6123724   0.3636363), wk =   0.0007513
        k(  544) = (  -0.1837023  -0.6309291   0.4090908), wk =   0.0007513
        k(  545) = (  -0.2099455  -0.6494858   0.4545453), wk =   0.0007513
        k(  546) = (   0.3411614  -0.2597944  -0.4999999), wk =   0.0007513
        k(  547) = (   0.3149182  -0.2783512  -0.4545453), wk =   0.0007513
        k(  548) = (   0.2886750  -0.2969079  -0.4090908), wk =   0.0007513
        k(  549) = (   0.2624319  -0.3154646  -0.3636363), wk =   0.0007513
        k(  550) = (   0.2361887  -0.3340214  -0.3181817), wk =   0.0007513
        k(  551) = (   0.2099455  -0.3525781  -0.2727272), wk =   0.0007513
        k(  552) = (   0.1837023  -0.3711348  -0.2272727), wk =   0.0007513
        k(  553) = (   0.1574591  -0.3896916  -0.1818181), wk =   0.0007513
        k(  554) = (   0.1312159  -0.4082483  -0.1363636), wk =   0.0007513
        k(  555) = (   0.1049728  -0.4268050  -0.0909091), wk =   0.0007513
        k(  556) = (   0.0787296  -0.4453618  -0.0454545), wk =   0.0007513
        k(  557) = (   0.0524864  -0.4082483   0.0000000), wk =   0.0003757
        k(  558) = (  -0.0262432  -0.4639185   0.1363636), wk =   0.0007513
        k(  559) = (  -0.0524863  -0.4824752   0.1818181), wk =   0.0007513
        k(  560) = (  -0.0787295  -0.5010319   0.2272727), wk =   0.0007513
        k(  561) = (  -0.1049727  -0.5195887   0.2727272), wk =   0.0007513
        k(  562) = (  -0.1312159  -0.5381454   0.3181817), wk =   0.0007513
        k(  563) = (  -0.1574591  -0.5567021   0.3636363), wk =   0.0007513
        k(  564) = (  -0.1837023  -0.5752589   0.4090908), wk =   0.0007513
        k(  565) = (  -0.2099455  -0.5938156   0.4545453), wk =   0.0007513
        k(  566) = (   0.3411614  -0.2041242  -0.4999999), wk =   0.0007513
        k(  567) = (   0.3149182  -0.2226809  -0.4545453), wk =   0.0007513
        k(  568) = (   0.2886750  -0.2412377  -0.4090908), wk =   0.0007513
        k(  569) = (   0.2624319  -0.2597944  -0.3636363), wk =   0.0007513
        k(  570) = (   0.2361887  -0.2783511  -0.3181817), wk =   0.0007513
        k(  571) = (   0.2099455  -0.2969079  -0.2727272), wk =   0.0007513
        k(  572) = (   0.1837023  -0.3154646  -0.2272727), wk =   0.0007513
        k(  573) = (   0.1574591  -0.3340213  -0.1818181), wk =   0.0007513
        k(  574) = (   0.1312159  -0.3525781  -0.1363636), wk =   0.0007513
        k(  575) = (   0.1049728  -0.3711348  -0.0909091), wk =   0.0007513
        k(  576) = (   0.0787296  -0.3896915  -0.0454545), wk =   0.0007513
        k(  577) = (   0.0524864  -0.3525781   0.0000000), wk =   0.0003757
        k(  578) = (  -0.0262432  -0.4082482   0.1363636), wk =   0.0007513
        k(  579) = (  -0.0524863  -0.4268050   0.1818181), wk =   0.0007513
        k(  580) = (  -0.0787295  -0.4453617   0.2272727), wk =   0.0007513
        k(  581) = (  -0.1049727  -0.4639184   0.2727272), wk =   0.0007513
        k(  582) = (  -0.1312159  -0.4824752   0.3181817), wk =   0.0007513
        k(  583) = (  -0.1574591  -0.5010319   0.3636363), wk =   0.0007513
        k(  584) = (  -0.1837023  -0.5195886   0.4090908), wk =   0.0007513
        k(  585) = (  -0.2099455  -0.5381454   0.4545453), wk =   0.0007513
        k(  586) = (   0.3411614  -0.1484540  -0.4999999), wk =   0.0007513
        k(  587) = (   0.3149182  -0.1670107  -0.4545453), wk =   0.0007513
        k(  588) = (   0.2886750  -0.1855675  -0.4090908), wk =   0.0007513
        k(  589) = (   0.2624319  -0.2041242  -0.3636363), wk =   0.0007513
        k(  590) = (   0.2361887  -0.2226809  -0.3181817), wk =   0.0007513
        k(  591) = (   0.2099455  -0.2412377  -0.2727272), wk =   0.0007513
        k(  592) = (   0.1837023  -0.2597944  -0.2272727), wk =   0.0007513
        k(  593) = (   0.1574591  -0.2783511  -0.1818181), wk =   0.0007513
        k(  594) = (   0.1312159  -0.2969079  -0.1363636), wk =   0.0007513
        k(  595) = (   0.1049728  -0.3154646  -0.0909091), wk =   0.0007513
        k(  596) = (   0.0787296  -0.3340213  -0.0454545), wk =   0.0007513
        k(  597) = (   0.0524864  -0.2969078   0.0000000), wk =   0.0003757
        k(  598) = (  -0.0262432  -0.3525780   0.1363636), wk =   0.0007513
        k(  599) = (  -0.0524863  -0.3711348   0.1818181), wk =   0.0007513
        k(  600) = (  -0.0787295  -0.3896915   0.2272727), wk =   0.0007513
        k(  601) = (  -0.1049727  -0.4082482   0.2727272), wk =   0.0007513
        k(  602) = (  -0.1312159  -0.4268050   0.3181817), wk =   0.0007513
        k(  603) = (  -0.1574591  -0.4453617   0.3636363), wk =   0.0007513
        k(  604) = (  -0.1837023  -0.4639184   0.4090908), wk =   0.0007513
        k(  605) = (  -0.2099455  -0.4824752   0.4545453), wk =   0.0007513
        k(  606) = (   0.3411614  -0.0927838  -0.4999999), wk =   0.0007513
        k(  607) = (   0.3149182  -0.1113405  -0.4545453), wk =   0.0007513
        k(  608) = (   0.2886750  -0.1298972  -0.4090908), wk =   0.0007513
        k(  609) = (   0.2624319  -0.1484540  -0.3636363), wk =   0.0007513
        k(  610) = (   0.2361887  -0.1670107  -0.3181817), wk =   0.0007513
        k(  611) = (   0.2099455  -0.1855674  -0.2727272), wk =   0.0007513
        k(  612) = (   0.1837023  -0.2041242  -0.2272727), wk =   0.0007513
        k(  613) = (   0.1574591  -0.2226809  -0.1818181), wk =   0.0007513
        k(  614) = (   0.1312159  -0.2412376  -0.1363636), wk =   0.0007513
        k(  615) = (   0.1049728  -0.2597944  -0.0909091), wk =   0.0007513
        k(  616) = (   0.0787296  -0.2783511  -0.0454545), wk =   0.0007513
        k(  617) = (   0.0524864  -0.2412376   0.0000000), wk =   0.0003757
        k(  618) = (  -0.0262432  -0.2969078   0.1363636), wk =   0.0007513
        k(  619) = (  -0.0524863  -0.3154645   0.1818181), wk =   0.0007513
        k(  620) = (  -0.0787295  -0.3340213   0.2272727), wk =   0.0007513
        k(  621) = (  -0.1049727  -0.3525780   0.2727272), wk =   0.0007513
        k(  622) = (  -0.1312159  -0.3711347   0.3181817), wk =   0.0007513
        k(  623) = (  -0.1574591  -0.3896915   0.3636363), wk =   0.0007513
        k(  624) = (  -0.1837023  -0.4082482   0.4090908), wk =   0.0007513
        k(  625) = (  -0.2099455  -0.4268049   0.4545453), wk =   0.0007513
        k(  626) = (   0.3411614  -0.0371136  -0.4999999), wk =   0.0007513
        k(  627) = (   0.3149182  -0.0556703  -0.4545453), wk =   0.0007513
        k(  628) = (   0.2886750  -0.0742270  -0.4090908), wk =   0.0007513
        k(  629) = (   0.2624319  -0.0927837  -0.3636363), wk =   0.0007513
        k(  630) = (   0.2361887  -0.1113405  -0.3181817), wk =   0.0007513
        k(  631) = (   0.2099455  -0.1298972  -0.2727272), wk =   0.0007513
        k(  632) = (   0.1837023  -0.1484539  -0.2272727), wk =   0.0007513
        k(  633) = (   0.1574591  -0.1670107  -0.1818181), wk =   0.0007513
        k(  634) = (   0.1312159  -0.1855674  -0.1363636), wk =   0.0007513
        k(  635) = (   0.1049728  -0.2041241  -0.0909091), wk =   0.0007513
        k(  636) = (   0.0787296  -0.2226809  -0.0454545), wk =   0.0007513
        k(  637) = (   0.0524864  -0.1855674   0.0000000), wk =   0.0003757
        k(  638) = (  -0.0262432  -0.2412376   0.1363636), wk =   0.0007513
        k(  639) = (  -0.0524863  -0.2597943   0.1818181), wk =   0.0007513
        k(  640) = (  -0.0787295  -0.2783511   0.2272727), wk =   0.0007513
        k(  641) = (  -0.1049727  -0.2969078   0.2727272), wk =   0.0007513
        k(  642) = (  -0.1312159  -0.3154645   0.3181817), wk =   0.0007513
        k(  643) = (  -0.1574591  -0.3340213   0.3636363), wk =   0.0007513
        k(  644) = (  -0.1837023  -0.3525780   0.4090908), wk =   0.0007513
        k(  645) = (  -0.2099455  -0.3711347   0.4545453), wk =   0.0007513
        k(  646) = (   0.3411614   0.0185567  -0.4999999), wk =   0.0007513
        k(  647) = (   0.3149182  -0.0000001  -0.4545453), wk =   0.0007513
        k(  648) = (   0.2886750  -0.0185568  -0.4090908), wk =   0.0007513
        k(  649) = (   0.2624319  -0.0371135  -0.3636363), wk =   0.0007513
        k(  650) = (   0.2361887  -0.0556703  -0.3181817), wk =   0.0007513
        k(  651) = (   0.2099455  -0.0742270  -0.2727272), wk =   0.0007513
        k(  652) = (   0.1837023  -0.0927837  -0.2272727), wk =   0.0007513
        k(  653) = (   0.1574591  -0.1113405  -0.1818181), wk =   0.0007513
        k(  654) = (   0.1312159  -0.1298972  -0.1363636), wk =   0.0007513
        k(  655) = (   0.1049728  -0.1484539  -0.0909091), wk =   0.0007513
        k(  656) = (   0.0787296  -0.1670107  -0.0454545), wk =   0.0007513
        k(  657) = (   0.0524864  -0.1298972   0.0000000), wk =   0.0003757
        k(  658) = (  -0.0262432  -0.1855674   0.1363636), wk =   0.0007513
        k(  659) = (  -0.0524863  -0.2041241   0.1818181), wk =   0.0007513
        k(  660) = (  -0.0787295  -0.2226808   0.2272727), wk =   0.0007513
        k(  661) = (  -0.1049727  -0.2412376   0.2727272), wk =   0.0007513
        k(  662) = (  -0.1312159  -0.2597943   0.3181817), wk =   0.0007513
        k(  663) = (  -0.1574591  -0.2783510   0.3636363), wk =   0.0007513
        k(  664) = (  -0.1837023  -0.2969078   0.4090908), wk =   0.0007513
        k(  665) = (  -0.2099455  -0.3154645   0.4545453), wk =   0.0007513
        k(  666) = (   0.3411614   0.0742269  -0.4999999), wk =   0.0007513
        k(  667) = (   0.3149182   0.0556702  -0.4545453), wk =   0.0007513
        k(  668) = (   0.2886750   0.0371134  -0.4090908), wk =   0.0007513
        k(  669) = (   0.2624319   0.0185567  -0.3636363), wk =   0.0007513
        k(  670) = (   0.2361887  -0.0000000  -0.3181817), wk =   0.0007513
        k(  671) = (   0.2099455  -0.0185568  -0.2727272), wk =   0.0007513
        k(  672) = (   0.1837023  -0.0371135  -0.2272727), wk =   0.0007513
        k(  673) = (   0.1574591  -0.0556702  -0.1818181), wk =   0.0007513
        k(  674) = (   0.1312159  -0.0742270  -0.1363636), wk =   0.0007513
        k(  675) = (   0.1049728  -0.0927837  -0.0909091), wk =   0.0007513
        k(  676) = (   0.0787296  -0.1113404  -0.0454545), wk =   0.0007513
        k(  677) = (   0.0524864  -0.0742270   0.0000000), wk =   0.0003757
        k(  678) = (  -0.0262432  -0.1298972   0.1363636), wk =   0.0007513
        k(  679) = (  -0.0524863  -0.1484539   0.1818181), wk =   0.0007513
        k(  680) = (  -0.0787295  -0.1670106   0.2272727), wk =   0.0007513
        k(  681) = (  -0.1049727  -0.1855674   0.2727272), wk =   0.0007513
        k(  682) = (  -0.1312159  -0.2041241   0.3181817), wk =   0.0007513
        k(  683) = (  -0.1574591  -0.2226808   0.3636363), wk =   0.0007513
        k(  684) = (  -0.1837023  -0.2412376   0.4090908), wk =   0.0007513
        k(  685) = (  -0.2099455  -0.2597943   0.4545453), wk =   0.0007513
        k(  686) = (   0.3411614   0.1298971  -0.4999999), wk =   0.0007513
        k(  687) = (   0.3149182   0.1113404  -0.4545453), wk =   0.0007513
        k(  688) = (   0.2886750   0.0927836  -0.4090908), wk =   0.0007513
        k(  689) = (   0.2624319   0.0742269  -0.3636363), wk =   0.0007513
        k(  690) = (   0.2361887   0.0556702  -0.3181817), wk =   0.0007513
        k(  691) = (   0.2099455   0.0371134  -0.2727272), wk =   0.0007513
        k(  692) = (   0.1837023   0.0185567  -0.2272727), wk =   0.0007513
        k(  693) = (   0.1574591  -0.0000000  -0.1818181), wk =   0.0007513
        k(  694) = (   0.1312159  -0.0185568  -0.1363636), wk =   0.0007513
        k(  695) = (   0.1049728  -0.0371135  -0.0909091), wk =   0.0007513
        k(  696) = (   0.0787296  -0.0556702  -0.0454545), wk =   0.0007513
        k(  697) = (   0.1049728  -0.0371135   0.0000000), wk =   0.0003757
        k(  698) = (   0.0000000  -0.1113404   0.1818181), wk =   0.0007513
        k(  699) = (  -0.0262431  -0.1298971   0.2272727), wk =   0.0007513
        k(  700) = (  -0.0524863  -0.1484539   0.2727272), wk =   0.0007513
        k(  701) = (  -0.0787295  -0.1670106   0.3181817), wk =   0.0007513
        k(  702) = (  -0.1049727  -0.1855673   0.3636363), wk =   0.0007513
        k(  703) = (  -0.1312159  -0.2041241   0.4090908), wk =   0.0007513
        k(  704) = (  -0.1574591  -0.2226808   0.4545453), wk =   0.0007513
        k(  705) = (   0.3936478   0.1670106  -0.4999999), wk =   0.0007513
        k(  706) = (   0.3674046   0.1484539  -0.4545453), wk =   0.0007513
        k(  707) = (   0.3411614   0.1298971  -0.4090908), wk =   0.0007513
        k(  708) = (   0.3149182   0.1113404  -0.3636363), wk =   0.0007513
        k(  709) = (   0.2886751   0.0927837  -0.3181817), wk =   0.0007513
        k(  710) = (   0.2624319   0.0742269  -0.2727272), wk =   0.0007513
        k(  711) = (   0.2361887   0.0556702  -0.2272727), wk =   0.0007513
        k(  712) = (   0.2099455   0.0371135  -0.1818181), wk =   0.0007513
        k(  713) = (   0.1837023   0.0185567  -0.1363636), wk =   0.0007513
        k(  714) = (   0.1574591  -0.0000000  -0.0909091), wk =   0.0007513
        k(  715) = (   0.1312160  -0.0185567  -0.0454545), wk =   0.0007513
        k(  716) = (   0.1049728   0.0185567   0.0000000), wk =   0.0003757
        k(  717) = (   0.0000000  -0.0556702   0.1818181), wk =   0.0007513
        k(  718) = (  -0.0262431  -0.0742269   0.2272727), wk =   0.0007513
        k(  719) = (  -0.0524863  -0.0927837   0.2727272), wk =   0.0007513
        k(  720) = (  -0.0787295  -0.1113404   0.3181817), wk =   0.0007513
        k(  721) = (  -0.1049727  -0.1298971   0.3636363), wk =   0.0007513
        k(  722) = (  -0.1312159  -0.1484539   0.4090908), wk =   0.0007513
        k(  723) = (  -0.1574591  -0.1670106   0.4545453), wk =   0.0007513
        k(  724) = (   0.3936478   0.2226808  -0.4999999), wk =   0.0007513
        k(  725) = (   0.3674046   0.2041241  -0.4545453), wk =   0.0007513
        k(  726) = (   0.3411614   0.1855673  -0.4090908), wk =   0.0007513
        k(  727) = (   0.3149182   0.1670106  -0.3636363), wk =   0.0007513
        k(  728) = (   0.2886751   0.1484539  -0.3181817), wk =   0.0007513
        k(  729) = (   0.2624319   0.1298971  -0.2727272), wk =   0.0007513
        k(  730) = (   0.2361887   0.1113404  -0.2272727), wk =   0.0007513
        k(  731) = (   0.2099455   0.0927837  -0.1818181), wk =   0.0007513
        k(  732) = (   0.1837023   0.0742269  -0.1363636), wk =   0.0007513
        k(  733) = (   0.1574591   0.0556702  -0.0909091), wk =   0.0007513
        k(  734) = (   0.1312160   0.0371135  -0.0454545), wk =   0.0007513
        k(  735) = (   0.1049728   0.0742270   0.0000000), wk =   0.0003757
        k(  736) = (   0.0000000   0.0000000   0.1818181), wk =   0.0003757
        k(  737) = (  -0.0262431  -0.0185567   0.2272727), wk =   0.0007513
        k(  738) = (  -0.0524863  -0.0371134   0.2727272), wk =   0.0007513
        k(  739) = (  -0.0787295  -0.0556702   0.3181817), wk =   0.0007513
        k(  740) = (  -0.1049727  -0.0742269   0.3636363), wk =   0.0007513
        k(  741) = (  -0.1312159  -0.0927836   0.4090908), wk =   0.0007513
        k(  742) = (  -0.1574591  -0.1113404   0.4545453), wk =   0.0007513
        k(  743) = (   0.3936478   0.2783510  -0.4999999), wk =   0.0007513
        k(  744) = (   0.3674046   0.2597943  -0.4545453), wk =   0.0007513
        k(  745) = (   0.3411614   0.2412376  -0.4090908), wk =   0.0007513
        k(  746) = (   0.3149182   0.2226808  -0.3636363), wk =   0.0007513
        k(  747) = (   0.2886751   0.2041241  -0.3181817), wk =   0.0007513
        k(  748) = (   0.2624319   0.1855674  -0.2727272), wk =   0.0007513
        k(  749) = (   0.2361887   0.1670106  -0.2272727), wk =   0.0007513
        k(  750) = (   0.2099455   0.1484539  -0.1818181), wk =   0.0007513
        k(  751) = (   0.1837023   0.1298972  -0.1363636), wk =   0.0007513
        k(  752) = (   0.1574591   0.1113404  -0.0909091), wk =   0.0007513
        k(  753) = (   0.1312160   0.0927837  -0.0454545), wk =   0.0007513
        k(  754) = (   0.1049728   0.1298972   0.0000000), wk =   0.0003757
        k(  755) = (  -0.0262431   0.0371135   0.2272727), wk =   0.0007513
        k(  756) = (  -0.0524863   0.0185568   0.2727272), wk =   0.0007513
        k(  757) = (  -0.0787295   0.0000000   0.3181817), wk =   0.0007513
        k(  758) = (  -0.1049727  -0.0185567   0.3636363), wk =   0.0007513
        k(  759) = (  -0.1312159  -0.0371134   0.4090908), wk =   0.0007513
        k(  760) = (  -0.1574591  -0.0556702   0.4545453), wk =   0.0007513
        k(  761) = (   0.3936478   0.3340212  -0.4999999), wk =   0.0007513
        k(  762) = (   0.3674046   0.3154645  -0.4545453), wk =   0.0007513
        k(  763) = (   0.3411614   0.2969078  -0.4090908), wk =   0.0007513
        k(  764) = (   0.3149182   0.2783510  -0.3636363), wk =   0.0007513
        k(  765) = (   0.2886751   0.2597943  -0.3181817), wk =   0.0007513
        k(  766) = (   0.2624319   0.2412376  -0.2727272), wk =   0.0007513
        k(  767) = (   0.2361887   0.2226808  -0.2272727), wk =   0.0007513
        k(  768) = (   0.2099455   0.2041241  -0.1818181), wk =   0.0007513
        k(  769) = (   0.1837023   0.1855674  -0.1363636), wk =   0.0007513
        k(  770) = (   0.1574591   0.1670106  -0.0909091), wk =   0.0007513
        k(  771) = (   0.1312160   0.1484539  -0.0454545), wk =   0.0007513
        k(  772) = (   0.1049728   0.1855674   0.0000000), wk =   0.0003757
        k(  773) = (  -0.0262431   0.0927837   0.2272727), wk =   0.0007513
        k(  774) = (  -0.0524863   0.0742270   0.2727272), wk =   0.0007513
        k(  775) = (  -0.0787295   0.0556703   0.3181817), wk =   0.0007513
        k(  776) = (  -0.1049727   0.0371135   0.3636363), wk =   0.0007513
        k(  777) = (  -0.1312159   0.0185568   0.4090908), wk =   0.0007513
        k(  778) = (  -0.1574591   0.0000001   0.4545453), wk =   0.0007513
        k(  779) = (   0.3936478   0.3896915  -0.4999999), wk =   0.0007513
        k(  780) = (   0.3674046   0.3711347  -0.4545453), wk =   0.0007513
        k(  781) = (   0.3411614   0.3525780  -0.4090908), wk =   0.0007513
        k(  782) = (   0.3149182   0.3340213  -0.3636363), wk =   0.0007513
        k(  783) = (   0.2886751   0.3154645  -0.3181817), wk =   0.0007513
        k(  784) = (   0.2624319   0.2969078  -0.2727272), wk =   0.0007513
        k(  785) = (   0.2361887   0.2783511  -0.2272727), wk =   0.0007513
        k(  786) = (   0.2099455   0.2597943  -0.1818181), wk =   0.0007513
        k(  787) = (   0.1837023   0.2412376  -0.1363636), wk =   0.0007513
        k(  788) = (   0.1574591   0.2226809  -0.0909091), wk =   0.0007513
        k(  789) = (   0.1312160   0.2041241  -0.0454545), wk =   0.0007513
        k(  790) = (   0.1049728   0.2412376   0.0000000), wk =   0.0003757
        k(  791) = (   0.0000000   0.1670107   0.1818181), wk =   0.0007513
        k(  792) = (  -0.0262431   0.1484539   0.2272727), wk =   0.0007513
        k(  793) = (  -0.0524863   0.1298972   0.2727272), wk =   0.0007513
        k(  794) = (  -0.0787295   0.1113405   0.3181817), wk =   0.0007513
        k(  795) = (  -0.1049727   0.0927837   0.3636363), wk =   0.0007513
        k(  796) = (  -0.1312159   0.0742270   0.4090908), wk =   0.0007513
        k(  797) = (  -0.1574591   0.0556703   0.4545453), wk =   0.0007513
        k(  798) = (   0.3936478   0.4453617  -0.4999999), wk =   0.0007513
        k(  799) = (   0.3674046   0.4268049  -0.4545453), wk =   0.0007513
        k(  800) = (   0.3411614   0.4082482  -0.4090908), wk =   0.0007513
        k(  801) = (   0.3149182   0.3896915  -0.3636363), wk =   0.0007513
        k(  802) = (   0.2886751   0.3711347  -0.3181817), wk =   0.0007513
        k(  803) = (   0.2624319   0.3525780  -0.2727272), wk =   0.0007513
        k(  804) = (   0.2361887   0.3340213  -0.2272727), wk =   0.0007513
        k(  805) = (   0.2099455   0.3154645  -0.1818181), wk =   0.0007513
        k(  806) = (   0.1837023   0.2969078  -0.1363636), wk =   0.0007513
        k(  807) = (   0.1574591   0.2783511  -0.0909091), wk =   0.0007513
        k(  808) = (   0.1312160   0.2597943  -0.0454545), wk =   0.0007513
        k(  809) = (   0.1049728   0.2969078   0.0000000), wk =   0.0003757
        k(  810) = (   0.0000000   0.2226809   0.1818181), wk =   0.0007513
        k(  811) = (  -0.0262431   0.2041242   0.2272727), wk =   0.0007513
        k(  812) = (  -0.0524863   0.1855674   0.2727272), wk =   0.0007513
        k(  813) = (  -0.0787295   0.1670107   0.3181817), wk =   0.0007513
        k(  814) = (  -0.1049727   0.1484540   0.3636363), wk =   0.0007513
        k(  815) = (  -0.1312159   0.1298972   0.4090908), wk =   0.0007513
        k(  816) = (  -0.1574591   0.1113405   0.4545453), wk =   0.0007513
        k(  817) = (   0.3936478   0.5010319  -0.4999999), wk =   0.0007513
        k(  818) = (   0.3674046   0.4824752  -0.4545453), wk =   0.0007513
        k(  819) = (   0.3411614   0.4639184  -0.4090908), wk =   0.0007513
        k(  820) = (   0.3149182   0.4453617  -0.3636363), wk =   0.0007513
        k(  821) = (   0.2886751   0.4268050  -0.3181817), wk =   0.0007513
        k(  822) = (   0.2624319   0.4082482  -0.2727272), wk =   0.0007513
        k(  823) = (   0.2361887   0.3896915  -0.2272727), wk =   0.0007513
        k(  824) = (   0.2099455   0.3711348  -0.1818181), wk =   0.0007513
        k(  825) = (   0.1837023   0.3525780  -0.1363636), wk =   0.0007513
        k(  826) = (   0.1574591   0.3340213  -0.0909091), wk =   0.0007513
        k(  827) = (   0.1312160   0.3154646  -0.0454545), wk =   0.0007513
        k(  828) = (   0.1049728   0.3525781   0.0000000), wk =   0.0003757
        k(  829) = (   0.0000000   0.2783511   0.1818181), wk =   0.0007513
        k(  830) = (  -0.0262431   0.2597944   0.2272727), wk =   0.0007513
        k(  831) = (  -0.0524863   0.2412377   0.2727272), wk =   0.0007513
        k(  832) = (  -0.0787295   0.2226809   0.3181817), wk =   0.0007513
        k(  833) = (  -0.1049727   0.2041242   0.3636363), wk =   0.0007513
        k(  834) = (  -0.1312159   0.1855675   0.4090908), wk =   0.0007513
        k(  835) = (  -0.1574591   0.1670107   0.4545453), wk =   0.0007513
        k(  836) = (   0.3936478   0.5567021  -0.4999999), wk =   0.0007513
        k(  837) = (   0.3674046   0.5381454  -0.4545453), wk =   0.0007513
        k(  838) = (   0.3411614   0.5195886  -0.4090908), wk =   0.0007513
        k(  839) = (   0.3149182   0.5010319  -0.3636363), wk =   0.0007513
        k(  840) = (   0.2886751   0.4824752  -0.3181817), wk =   0.0007513
        k(  841) = (   0.2624319   0.4639184  -0.2727272), wk =   0.0007513
        k(  842) = (   0.2361887   0.4453617  -0.2272727), wk =   0.0007513
        k(  843) = (   0.2099455   0.4268050  -0.1818181), wk =   0.0007513
        k(  844) = (   0.1837023   0.4082482  -0.1363636), wk =   0.0007513
        k(  845) = (   0.1574591   0.3896915  -0.0909091), wk =   0.0007513
        k(  846) = (   0.1312160   0.3711348  -0.0454545), wk =   0.0007513
        k(  847) = (   0.1049728   0.4082483   0.0000000), wk =   0.0003757
        k(  848) = (   0.0000000   0.3340213   0.1818181), wk =   0.0007513
        k(  849) = (  -0.0262431   0.3154646   0.2272727), wk =   0.0007513
        k(  850) = (  -0.0524863   0.2969079   0.2727272), wk =   0.0007513
        k(  851) = (  -0.0787295   0.2783511   0.3181817), wk =   0.0007513
        k(  852) = (  -0.1049727   0.2597944   0.3636363), wk =   0.0007513
        k(  853) = (  -0.1312159   0.2412377   0.4090908), wk =   0.0007513
        k(  854) = (  -0.1574591   0.2226809   0.4545453), wk =   0.0007513
        k(  855) = (   0.3936478   0.6123723  -0.4999999), wk =   0.0007513
        k(  856) = (   0.3674046   0.5938156  -0.4545453), wk =   0.0007513
        k(  857) = (   0.3411614   0.5752589  -0.4090908), wk =   0.0007513
        k(  858) = (   0.3149182   0.5567021  -0.3636363), wk =   0.0007513
        k(  859) = (   0.2886751   0.5381454  -0.3181817), wk =   0.0007513
        k(  860) = (   0.2624319   0.5195887  -0.2727272), wk =   0.0007513
        k(  861) = (   0.2361887   0.5010319  -0.2272727), wk =   0.0007513
        k(  862) = (   0.2099455   0.4824752  -0.1818181), wk =   0.0007513
        k(  863) = (   0.1837023   0.4639185  -0.1363636), wk =   0.0007513
        k(  864) = (   0.1574591   0.4453617  -0.0909091), wk =   0.0007513
        k(  865) = (   0.1312160   0.4268050  -0.0454545), wk =   0.0007513
        k(  866) = (   0.1049728   0.4639185   0.0000000), wk =   0.0003757
        k(  867) = (   0.0000000   0.3896916   0.1818181), wk =   0.0007513
        k(  868) = (  -0.0262431   0.3711348   0.2272727), wk =   0.0007513
        k(  869) = (  -0.0524863   0.3525781   0.2727272), wk =   0.0007513
        k(  870) = (  -0.0787295   0.3340214   0.3181817), wk =   0.0007513
        k(  871) = (  -0.1049727   0.3154646   0.3636363), wk =   0.0007513
        k(  872) = (  -0.1312159   0.2969079   0.4090908), wk =   0.0007513
        k(  873) = (  -0.1574591   0.2783512   0.4545453), wk =   0.0007513
        k(  874) = (   0.3936478   0.6680426  -0.4999999), wk =   0.0007513
        k(  875) = (   0.3674046   0.6494858  -0.4545453), wk =   0.0007513
        k(  876) = (   0.3411614   0.6309291  -0.4090908), wk =   0.0007513
        k(  877) = (   0.3149182   0.6123724  -0.3636363), wk =   0.0007513
        k(  878) = (   0.2886751   0.5938156  -0.3181817), wk =   0.0007513
        k(  879) = (   0.2624319   0.5752589  -0.2727272), wk =   0.0007513
        k(  880) = (   0.2361887   0.5567022  -0.2272727), wk =   0.0007513
        k(  881) = (   0.2099455   0.5381454  -0.1818181), wk =   0.0007513
        k(  882) = (   0.1837023   0.5195887  -0.1363636), wk =   0.0007513
        k(  883) = (   0.1574591   0.5010320  -0.0909091), wk =   0.0007513
        k(  884) = (   0.1312160   0.4824752  -0.0454545), wk =   0.0007513
        k(  885) = (   0.1049728   0.5195887   0.0000000), wk =   0.0003757
        k(  886) = (   0.0000000   0.4453618   0.1818181), wk =   0.0007513
        k(  887) = (  -0.0262431   0.4268050   0.2272727), wk =   0.0007513
        k(  888) = (  -0.0524863   0.4082483   0.2727272), wk =   0.0007513
        k(  889) = (  -0.0787295   0.3896916   0.3181817), wk =   0.0007513
        k(  890) = (  -0.1049727   0.3711348   0.3636363), wk =   0.0007513
        k(  891) = (  -0.1312159   0.3525781   0.4090908), wk =   0.0007513
        k(  892) = (  -0.1574591   0.3340214   0.4545453), wk =   0.0007513
        k(  893) = (   0.3936478   0.7237128  -0.4999999), wk =   0.0007513
        k(  894) = (   0.3674046   0.7051560  -0.4545453), wk =   0.0007513
        k(  895) = (   0.3411614   0.6865993  -0.4090908), wk =   0.0007513
        k(  896) = (   0.3149182   0.6680426  -0.3636363), wk =   0.0007513
        k(  897) = (   0.2886751   0.6494858  -0.3181817), wk =   0.0007513
        k(  898) = (   0.2624319   0.6309291  -0.2727272), wk =   0.0007513
        k(  899) = (   0.2361887   0.6123724  -0.2272727), wk =   0.0007513
        k(  900) = (   0.2099455   0.5938156  -0.1818181), wk =   0.0007513
        k(  901) = (   0.1837023   0.5752589  -0.1363636), wk =   0.0007513
        k(  902) = (   0.1574591   0.5567022  -0.0909091), wk =   0.0007513
        k(  903) = (   0.1312160   0.5381454  -0.0454545), wk =   0.0007513
        k(  904) = (   0.1049728  -0.6494859   0.0000000), wk =   0.0003757
        k(  905) = (   0.0000000  -0.7237128   0.1818181), wk =   0.0007513
        k(  906) = (  -0.0262431  -0.7422695   0.2272727), wk =   0.0007513
        k(  907) = (  -0.0524863  -0.7608263   0.2727272), wk =   0.0007513
        k(  908) = (  -0.0787295  -0.7793830   0.3181817), wk =   0.0007513
        k(  909) = (  -0.1049727  -0.7979397   0.3636363), wk =   0.0007513
        k(  910) = (  -0.1312159  -0.8164965   0.4090908), wk =   0.0007513
        k(  911) = (  -0.1574591  -0.8350532   0.4545453), wk =   0.0007513
        k(  912) = (   0.3936478  -0.4453618  -0.4999999), wk =   0.0007513
        k(  913) = (   0.3674046  -0.4639186  -0.4545453), wk =   0.0007513
        k(  914) = (   0.3411614  -0.4824753  -0.4090908), wk =   0.0007513
        k(  915) = (   0.3149182  -0.5010320  -0.3636363), wk =   0.0007513
        k(  916) = (   0.2886751  -0.5195888  -0.3181817), wk =   0.0007513
        k(  917) = (   0.2624319  -0.5381455  -0.2727272), wk =   0.0007513
        k(  918) = (   0.2361887  -0.5567022  -0.2272727), wk =   0.0007513
        k(  919) = (   0.2099455  -0.5752590  -0.1818181), wk =   0.0007513
        k(  920) = (   0.1837023  -0.5938157  -0.1363636), wk =   0.0007513
        k(  921) = (   0.1574591  -0.6123724  -0.0909091), wk =   0.0007513
        k(  922) = (   0.1312160  -0.6309291  -0.0454545), wk =   0.0007513
        k(  923) = (   0.1049728  -0.5938157   0.0000000), wk =   0.0003757
        k(  924) = (   0.0000000  -0.6680426   0.1818181), wk =   0.0007513
        k(  925) = (  -0.0262431  -0.6865993   0.2272727), wk =   0.0007513
        k(  926) = (  -0.0524863  -0.7051561   0.2727272), wk =   0.0007513
        k(  927) = (  -0.0787295  -0.7237128   0.3181817), wk =   0.0007513
        k(  928) = (  -0.1049727  -0.7422695   0.3636363), wk =   0.0007513
        k(  929) = (  -0.1312159  -0.7608263   0.4090908), wk =   0.0007513
        k(  930) = (  -0.1574591  -0.7793830   0.4545453), wk =   0.0007513
        k(  931) = (   0.3936478  -0.3896916  -0.4999999), wk =   0.0007513
        k(  932) = (   0.3674046  -0.4082483  -0.4545453), wk =   0.0007513
        k(  933) = (   0.3411614  -0.4268051  -0.4090908), wk =   0.0007513
        k(  934) = (   0.3149182  -0.4453618  -0.3636363), wk =   0.0007513
        k(  935) = (   0.2886751  -0.4639185  -0.3181817), wk =   0.0007513
        k(  936) = (   0.2624319  -0.4824753  -0.2727272), wk =   0.0007513
        k(  937) = (   0.2361887  -0.5010320  -0.2272727), wk =   0.0007513
        k(  938) = (   0.2099455  -0.5195887  -0.1818181), wk =   0.0007513
        k(  939) = (   0.1837023  -0.5381455  -0.1363636), wk =   0.0007513
        k(  940) = (   0.1574591  -0.5567022  -0.0909091), wk =   0.0007513
        k(  941) = (   0.1312160  -0.5752589  -0.0454545), wk =   0.0007513
        k(  942) = (   0.1049728  -0.5381454   0.0000000), wk =   0.0003757
        k(  943) = (   0.0000000  -0.6123724   0.1818181), wk =   0.0003757
        k(  944) = (  -0.0262431  -0.6309291   0.2272727), wk =   0.0007513
        k(  945) = (  -0.0524863  -0.6494858   0.2727272), wk =   0.0007513
        k(  946) = (  -0.0787295  -0.6680426   0.3181817), wk =   0.0007513
        k(  947) = (  -0.1049727  -0.6865993   0.3636363), wk =   0.0007513
        k(  948) = (  -0.1312159  -0.7051560   0.4090908), wk =   0.0007513
        k(  949) = (  -0.1574591  -0.7237128   0.4545453), wk =   0.0007513
        k(  950) = (   0.3936478  -0.3340214  -0.4999999), wk =   0.0007513
        k(  951) = (   0.3674046  -0.3525781  -0.4545453), wk =   0.0007513
        k(  952) = (   0.3411614  -0.3711348  -0.4090908), wk =   0.0007513
        k(  953) = (   0.3149182  -0.3896916  -0.3636363), wk =   0.0007513
        k(  954) = (   0.2886751  -0.4082483  -0.3181817), wk =   0.0007513
        k(  955) = (   0.2624319  -0.4268050  -0.2727272), wk =   0.0007513
        k(  956) = (   0.2361887  -0.4453618  -0.2272727), wk =   0.0007513
        k(  957) = (   0.2099455  -0.4639185  -0.1818181), wk =   0.0007513
        k(  958) = (   0.1837023  -0.4824752  -0.1363636), wk =   0.0007513
        k(  959) = (   0.1574591  -0.5010320  -0.0909091), wk =   0.0007513
        k(  960) = (   0.1312160  -0.5195887  -0.0454545), wk =   0.0007513
        k(  961) = (   0.1049728  -0.4824752   0.0000000), wk =   0.0003757
        k(  962) = (  -0.0262431  -0.5752589   0.2272727), wk =   0.0007513
        k(  963) = (  -0.0524863  -0.5938156   0.2727272), wk =   0.0007513
        k(  964) = (  -0.0787295  -0.6123724   0.3181817), wk =   0.0007513
        k(  965) = (  -0.1049727  -0.6309291   0.3636363), wk =   0.0007513
        k(  966) = (  -0.1312159  -0.6494858   0.4090908), wk =   0.0007513
        k(  967) = (  -0.1574591  -0.6680426   0.4545453), wk =   0.0007513
        k(  968) = (   0.3936478  -0.2783512  -0.4999999), wk =   0.0007513
        k(  969) = (   0.3674046  -0.2969079  -0.4545453), wk =   0.0007513
        k(  970) = (   0.3411614  -0.3154646  -0.4090908), wk =   0.0007513
        k(  971) = (   0.3149182  -0.3340214  -0.3636363), wk =   0.0007513
        k(  972) = (   0.2886751  -0.3525781  -0.3181817), wk =   0.0007513
        k(  973) = (   0.2624319  -0.3711348  -0.2727272), wk =   0.0007513
        k(  974) = (   0.2361887  -0.3896916  -0.2272727), wk =   0.0007513
        k(  975) = (   0.2099455  -0.4082483  -0.1818181), wk =   0.0007513
        k(  976) = (   0.1837023  -0.4268050  -0.1363636), wk =   0.0007513
        k(  977) = (   0.1574591  -0.4453618  -0.0909091), wk =   0.0007513
        k(  978) = (   0.1312160  -0.4639185  -0.0454545), wk =   0.0007513
        k(  979) = (   0.1049728  -0.4268050   0.0000000), wk =   0.0003757
        k(  980) = (  -0.0262431  -0.5195887   0.2272727), wk =   0.0007513
[...]

     occupation numbers 
     1.0000   1.0000   0.0000   0.0000   0.0000   0.0000

          k = 0.4724-0.3340 0.0000 (   393 PWs)   bands (ev):

     2.5067   4.8727  14.1273  16.9696  18.8239  21.8857

     occupation numbers 
     1.0000   1.0000   0.0000   0.0000   0.0000   0.0000

          k = 0.5774-0.2598-0.1818 (   389 PWs)   bands (ev):

     3.4312   4.2404  13.5340  15.6024  19.0198  22.1246

     occupation numbers 
     1.0000   1.0000   0.0000   0.0000   0.0000   0.0000

          k = 0.5511-0.2784-0.1364 (   391 PWs)   bands (ev):

     3.5416   3.7416  14.4427  16.5740  18.3921  22.1786

     occupation numbers 
     1.0000   1.0000   0.0000   0.0000   0.0000   0.0000

          k = 0.5249-0.2969-0.0909 (   388 PWs)   bands (ev):

     3.1461   3.9586  15.4174  16.0515  19.3740  21.1958

     occupation numbers 
     1.0000   1.0000   0.0000   0.0000   0.0000   0.0000

          k = 0.4986-0.3155-0.0455 (   389 PWs)   bands (ev):

     2.7751   4.3617  15.0740  16.4222  19.7476  20.8695

     occupation numbers 
     1.0000   1.0000   0.0000   0.0000   0.0000   0.0000

          k = 0.4724-0.2784 0.0000 (   391 PWs)   bands (ev):

     1.9122   5.0704  15.7057  17.8378  19.5807  20.6674

     occupation numbers 
     1.0000   1.0000   0.0000   0.0000   0.0000   0.0000

          k = 0.5774-0.2041-0.1818 (   388 PWs)   bands (ev):

     3.6812   3.8857  14.4442  14.6781  20.3551  20.7808

     occupation numbers 
     1.0000   1.0000   0.0000   0.0000   0.0000   0.0000

          k = 0.5511-0.2227-0.1364 (   388 PWs)   bands (ev):

     3.1461   3.9586  15.4174  16.0515  19.3738  21.1957

     occupation numbers 
     1.0000   1.0000   0.0000   0.0000   0.0000   0.0000

          k = 0.5249-0.2412-0.0909 (   389 PWs)   bands (ev):

     2.6316   4.2211  16.3638  17.0820  18.7707  21.2868

     occupation numbers 
     1.0000   1.0000   0.0000   0.0000   0.0000   0.0000

          k = 0.4986-0.2598-0.0455 (   389 PWs)   bands (ev):

     2.2189   4.5931  16.6053  17.3202  19.6769  20.4381

     occupation numbers 
     1.0000   1.0000   0.0000   0.0000   0.0000   0.0000

          k = 0.4724-0.2227 0.0000 (   390 PWs)   bands (ev):

     1.4234   5.3730  17.2455  18.7719  19.5699  20.1140

     occupation numbers 
     1.0000   1.0000   0.0000   0.0000   0.0000   0.0000

          k = 0.5511-0.1670-0.1364 (   389 PWs)   bands (ev):

     2.7751   4.3617  15.0740  16.4222  19.7476  20.8696

     occupation numbers 
     1.0000   1.0000   0.0000   0.0000   0.0000   0.0000

          k = 0.5249-0.1856-0.0909 (   389 PWs)   bands (ev):

     2.2189   4.5931  16.6053  17.3202  19.6769  20.4380

     occupation numbers 
     1.0000   1.0000   0.0000   0.0000   0.0000   0.0000

          k = 0.4986-0.2041-0.0455 (   387 PWs)   bands (ev):

     1.7677   4.9307  17.7151  18.2492  19.0077  20.5244

     occupation numbers 
     1.0000   1.0000   0.0000   0.0000   0.0000   0.0000

          k = 0.5249-0.1856 0.0000 (   392 PWs)   bands (ev):

     2.0749   4.4519  18.6579  18.6579  19.4297  19.4297

     occupation numbers 
     1.0000   1.0000   0.0000   0.0000   0.0000   0.0000

          k = 0.5774-0.1485-0.0909 (   391 PWs)   bands (ev):

     3.0042   3.8155  15.9860  17.4140  19.1283  20.9306

     occupation numbers 
     1.0000   1.0000   0.0000   0.0000   0.0000   0.0000

          k = 0.5511-0.1670-0.0455 (   388 PWs)   bands (ev):

     2.4884   4.0789  17.4885  18.3396  19.6492  19.7829

     occupation numbers 
     1.0000   1.0000   0.0000   0.0000   0.0000   0.0000

          k = 0.5249-0.1299 0.0000 (   387 PWs)   bands (ev):

     1.7677   4.9307  17.7151  18.2492  19.0077  20.5244

     occupation numbers 
     1.0000   1.0000   0.0000   0.0000   0.0000   0.0000

          k = 0.5774-0.0928-0.0909 (   389 PWs)   bands (ev):

     2.7751   4.3617  15.0740  16.4222  19.7476  20.8695

     occupation numbers 
     1.0000   1.0000   0.0000   0.0000   0.0000   0.0000

          k = 0.5511-0.1113-0.0455 (   389 PWs)   bands (ev):

     2.2189   4.5931  16.6053  17.3203  19.6770  20.4379

     occupation numbers 
     1.0000   1.0000   0.0000   0.0000   0.0000   0.0000

          k = 0.5249-0.0742 0.0000 (   389 PWs)   bands (ev):

     1.5681   5.5132  16.8381  16.8431  18.5097  21.7339

     occupation numbers 
     1.0000   1.0000   0.0000   0.0000   0.0000   0.0000

          k = 0.5774-0.0371-0.0909 (   390 PWs)   bands (ev):

     2.6494   5.0143  14.2279  14.9939  20.1919  21.0347

     occupation numbers 
     1.0000   1.0000   0.0000   0.0000   0.0000   0.0000

          k = 0.5511-0.0557-0.0455 (   388 PWs)   bands (ev):

     2.0561   5.2115  15.7332  15.9029  19.0882  21.6185

     occupation numbers 
     1.0000   1.0000   0.0000   0.0000   0.0000   0.0000

          k = 0.5249-0.0186 0.0000 (   387 PWs)   bands (ev):

     1.4768   6.1972  15.3727  16.0640  17.8204  23.0334

     occupation numbers 
     1.0000   1.0000   0.0000   0.0000   0.0000   0.0000

          k = 0.5774 0.0186-0.0909 (   388 PWs)   bands (ev):

     2.6301   5.7676  13.3666  13.6664  19.5641  22.3374

     occupation numbers 
     1.0000   1.0000   0.0000   0.0000   0.0000   0.0000

          k = 0.5511-0.0000-0.0455 (   387 PWs)   bands (ev):

     2.0009   5.9312  14.3916  15.0226  18.3968  22.9269

     occupation numbers 
     1.0000   1.0000   0.0000   0.0000   0.0000   0.0000

          k = 0.5249 0.0371 0.0000 (   387 PWs)   bands (ev):

     1.4938   6.9800  13.9465  15.3796  17.1274  24.4163

     occupation numbers 
     1.0000   1.0000   0.0000   0.0000   0.0000   0.0000

          k = 0.5774 0.0742-0.0909 (   392 PWs)   bands (ev):

     2.7173   6.6168  12.1013  12.9017  18.9377  23.6348

     occupation numbers 
     1.0000   1.0000   0.0000   0.0000   0.0000   0.0000

          k = 0.5511 0.0557-0.0455 (   389 PWs)   bands (ev):

     2.0533   6.7489  12.9866  14.3510  17.7320  24.1510

     occupation numbers 
     1.0000   1.0000   0.0000   0.0000   0.0000   0.0000

          k = 0.5249 0.0928 0.0000 (   389 PWs)   bands (ev):

     1.6189   7.8573  12.5907  14.7906  16.4854  22.9915

     occupation numbers 
     1.0000   0.0052   0.0000   0.0000   0.0000   0.0000

          k = 0.5774 0.1299-0.0909 (   394 PWs)   bands (ev):

     2.9101   7.5535  10.8120  12.3481  18.3626  22.7728

     occupation numbers 
     1.0000   0.9445   0.0000   0.0000   0.0000   0.0000

          k = 0.5511 0.1113-0.0455 (   393 PWs)   bands (ev):

     2.2129   7.6594  11.6562  13.7785  17.1276  22.8407

     occupation numbers 
     1.0000   0.4108   0.0000   0.0000   0.0000   0.0000

          k = 0.5249 0.1485 0.0000 (   392 PWs)   bands (ev):

     1.8515   8.8214  11.3211  14.2972  15.9080  21.2563

     occupation numbers 
     1.0000   0.0000   0.0000   0.0000   0.0000   0.0000

          k = 0.5774 0.1856-0.0909 (   392 PWs)   bands (ev):

     3.2064   8.5536   9.6151  11.9215  17.8295  21.1366

     occupation numbers 
     1.0000   0.0000   0.0000   0.0000   0.0000   0.0000

          k = 0.5511 0.1670-0.0455 (   392 PWs)   bands (ev):

     2.4786   8.6512  10.4179  13.3065  16.5871  21.1357

     occupation numbers 
     1.0000   0.0000   0.0000   0.0000   0.0000   0.0000

          k = 0.5249 0.2041 0.0000 (   392 PWs)   bands (ev):

     2.1901   9.8124  10.1966  13.8993  15.3839  19.6016

     occupation numbers 
     1.0000   0.0000   0.0000   0.0000   0.0000   0.0000

          k = 0.5774 0.2412-0.0909 (   395 PWs)   bands (ev):

     3.6015   8.4709   9.6239  11.6578  17.2701  19.6505

     occupation numbers 
     1.0000   0.0000   0.0000   0.0000   0.0000   0.0000

          k = 0.5511 0.2227-0.0455 (   391 PWs)   bands (ev):

     2.8479   9.2139   9.7756  12.9417  16.0862  19.5279

     occupation numbers 
     1.0000   0.0000   0.0000   0.0000   0.0000   0.0000

          k = 0.5249 0.2598 0.0000 (   393 PWs)   bands (ev):

     2.6323   9.0364  10.9997  13.5969  14.8580  18.1366

     occupation numbers 
     1.0000   0.0000   0.0000   0.0000   0.0000   0.0000

          k = 0.5774 0.2969-0.0909 (   387 PWs)   bands (ev):

     4.0829   7.4870  10.4487  11.7660  16.4951  18.5608

     occupation numbers 
     1.0000   1.0786   0.0000   0.0000   0.0000   0.0000

          k = 0.5511 0.2784-0.0455 (   390 PWs)   bands (ev):

     3.3160   8.2015  10.8413  12.7091  15.5413  18.1532

     occupation numbers 
     1.0000   0.0000   0.0000   0.0000   0.0000   0.0000

          k = 0.5249 0.3155 0.0000 (   390 PWs)   bands (ev):

     3.1730   8.0638  12.1296  13.3902  14.1861  17.0591

     occupation numbers 
     1.0000   0.0000   0.0000   0.0000   0.0000   0.0000

          k = 0.5774 0.3526-0.0909 (   387 PWs)   bands (ev):

     4.6044   6.6590  10.7030  12.5771  15.4055  18.0266

     occupation numbers 
     1.0000   1.0000   0.0000   0.0000   0.0000   0.0000

          k = 0.5511 0.3340-0.0455 (   387 PWs)   bands (ev):

     3.8702   7.2774  11.7573  12.7688  14.7849  17.2412

     occupation numbers 
     1.0000   1.0032   0.0000   0.0000   0.0000   0.0000

          k = 0.5249 0.3711 0.0000 (   388 PWs)   bands (ev):

     3.7992   7.2072  13.1291  13.2790  13.2790  16.6247

     occupation numbers 
     1.0000   1.0003   0.0000   0.0000   0.0000   0.0000

          k = 0.5774 0.4082-0.0909 (   391 PWs)   bands (ev):

     4.9179   6.2430  10.7222  13.3432  14.5780  17.8823

     occupation numbers 
     1.0000   1.0000   0.0000   0.0000   0.0000   0.0000

          k = 0.5511 0.3897-0.0455 (   388 PWs)   bands (ev):

     4.4642   6.5169  11.9925  13.2633  14.0481  16.9281

     occupation numbers 
     1.0000   1.0000   0.0000   0.0000   0.0000   0.0000

          k = 0.5249-0.7979 0.0000 (   388 PWs)   bands (ev):

     4.4642   6.5169  11.9925  13.2633  14.0481  16.9281

     occupation numbers 
     1.0000   1.0000   0.0000   0.0000   0.0000   0.0000

          k = 0.5511-0.7794-0.0455 (   388 PWs)   bands (ev):

     4.8486   6.1712  11.6885  12.7037  14.7172  17.1762

     occupation numbers 
     1.0000   1.0000   0.0000   0.0000   0.0000   0.0000

          k = 0.5249-0.7423 0.0000 (   391 PWs)   bands (ev):

     4.9179   6.2430  10.7222  13.3432  14.5780  17.8823

     occupation numbers 
     1.0000   1.0000   0.0000   0.0000   0.0000   0.0000

          k = 0.5511-0.7237-0.0455 (   387 PWs)   bands (ev):

     4.6044   6.6590  10.7030  12.5771  15.4055  18.0266

     occupation numbers 
     1.0000   1.0000   0.0000   0.0000   0.0000   0.0000

          k = 0.5249-0.6866 0.0000 (   385 PWs)   bands (ev):

     4.7446   6.7989   9.4774  13.5186  14.9636  19.2316

     occupation numbers 
     1.0000   1.0000   0.0000   0.0000   0.0000   0.0000

          k = 0.5511-0.6680-0.0455 (   390 PWs)   bands (ev):

     4.1537   7.5538   9.5415  12.7432  15.8829  19.3436

     occupation numbers 
     1.0000   0.9432   0.0000   0.0000   0.0000   0.0000

          k = 0.5249-0.6309 0.0000 (   392 PWs)   bands (ev):

     4.3658   7.7255   8.3328  13.7895  15.3533  20.7816

     occupation numbers 
     1.0000   0.1475   0.0000   0.0000   0.0000   0.0000

          k = 0.5511-0.6124-0.0455 (   390 PWs)   bands (ev):

     3.7439   8.3042   8.7157  13.0420  16.3186  20.8993

     occupation numbers 
     1.0000   0.0000   0.0000   0.0000   0.0000   0.0000

          k = 0.5249-0.5753 0.0000 (   386 PWs)   bands (ev):

     4.0281   7.1482   8.9323  14.1559  15.8055  22.4393

     occupation numbers 
     1.0000   1.0000   0.0000   0.0000   0.0000   0.0000

          k = 0.5511-0.5567-0.0455 (   390 PWs)   bands (ev):

     3.4208   7.3060   9.8244  13.4485  16.7978  22.5687

     occupation numbers 
     1.0000   1.0071   0.0000   0.0000   0.0000   0.0000

          k = 0.5249-0.5196 0.0000 (   388 PWs)   bands (ev):

     3.7768   6.1354  10.1695  14.6177  16.3387  24.1340

     occupation numbers 
     1.0000   1.0000   0.0000   0.0000   0.0000   0.0000

          k = 0.5511-0.5010-0.0455 (   390 PWs)   bands (ev):

     3.1966   6.3266  11.0997  13.9561  17.3478  24.2209

     occupation numbers 
     1.0000   1.0000   0.0000   0.0000   0.0000   0.0000

          k = 0.5249-0.4639 0.0000 (   395 PWs)   bands (ev):

     3.6235   5.2105  11.5114  15.1749  16.9551  24.9390

     occupation numbers 
     1.0000   1.0000   0.0000   0.0000   0.0000   0.0000

          k = 0.5511-0.4454-0.0455 (   391 PWs)   bands (ev):

     3.0756   5.4373  12.4682  14.5612  17.9727  23.8488

     occupation numbers 
     1.0000   1.0000   0.0000   0.0000   0.0000   0.0000

          k = 0.5249-0.4082 0.0000 (   393 PWs)   bands (ev):

     3.5696   4.3861  12.9411  15.8271  17.6471  23.5171

     occupation numbers 
     1.0000   1.0000   0.0000   0.0000   0.0000   0.0000

          k = 0.5511-0.3897-0.0455 (   389 PWs)   bands (ev):

     3.0594   4.6458  13.9153  15.2611  18.6613  22.4837

     occupation numbers 
     1.0000   1.0000   0.0000   0.0000   0.0000   0.0000

          k = 0.5249-0.3526 0.0000 (   391 PWs)   bands (ev):

     3.5416   3.7416  14.4427  16.5740  18.3922  22.1786

     occupation numbers 
     1.0000   1.0000   0.0000   0.0000   0.0000   0.0000

          k = 0.5511-0.3340-0.0455 (   388 PWs)   bands (ev):

     3.1461   3.9586  15.4174  16.0515  19.3739  21.1957

     occupation numbers 
     1.0000   1.0000   0.0000   0.0000   0.0000   0.0000

          k = 0.5249-0.2969 0.0000 (   391 PWs)   bands (ev):

     3.0042   3.8155  15.9860  17.4140  19.1284  20.9305

     occupation numbers 
     1.0000   1.0000   0.0000   0.0000   0.0000   0.0000

          k = 0.5511-0.2784-0.0455 (   390 PWs)   bands (ev):

     3.2619   3.4520  16.8871  16.9436  19.8764  20.1450

     occupation numbers 
     1.0000   1.0000   0.0000   0.0000   0.0000   0.0000

          k = 0.5249-0.2412 0.0000 (   388 PWs)   bands (ev):

     2.4884   4.0789  17.4885  18.3396  19.6493  19.7829

     occupation numbers 
     1.0000   1.0000   0.0000   0.0000   0.0000   0.0000

          k = 0.5774-0.2041-0.0909 (   390 PWs)   bands (ev):

     3.2619   3.4520  16.8870  16.9436  19.8763  20.1453

     occupation numbers 
     1.0000   1.0000   0.0000   0.0000   0.0000   0.0000

          k = 0.5511-0.2227-0.0455 (   389 PWs)   bands (ev):

     2.8615   3.6731  17.8248  17.9829  19.2788  20.1055

     occupation numbers 
     1.0000   1.0000   0.0000   0.0000   0.0000   0.0000

          k =-0.5774 0.2041 0.0000 (   392 PWs)   bands (ev):

     3.1219   3.3065  18.8334  18.8334  19.1614  19.1616

     occupation numbers 
     1.0000   1.0000   0.0000   0.0000   0.0000   0.0000

          k =-0.5774 0.2598 0.0000 (   389 PWs)   bands (ev):

     2.8615   3.6731  17.8248  17.9829  19.2789  20.1057

     occupation numbers 
     1.0000   1.0000   0.0000   0.0000   0.0000   0.0000

          k =-0.5774 0.3155 0.0000 (   389 PWs)   bands (ev):

     2.6316   4.2211  16.3638  17.0820  18.7707  21.2867

     occupation numbers 
     1.0000   1.0000   0.0000   0.0000   0.0000   0.0000

          k =-0.5774 0.3711 0.0000 (   387 PWs)   bands (ev):

     2.5056   4.8758  14.8583  16.2719  18.0575  22.5621

     occupation numbers 
     1.0000   1.0000   0.0000   0.0000   0.0000   0.0000

          k =-0.5774 0.4268 0.0000 (   389 PWs)   bands (ev):

     2.4861   5.6326  13.3934  15.5560  17.3385  23.9249

     occupation numbers 
     1.0000   1.0000   0.0000   0.0000   0.0000   0.0000

          k =-0.5774 0.4825 0.0000 (   391 PWs)   bands (ev):

     2.5733   6.4877  11.9996  14.9353  16.6729  24.3652

     occupation numbers 
     1.0000   1.0000   0.0000   0.0000   0.0000   0.0000

          k =-0.5774 0.5381 0.0000 (   392 PWs)   bands (ev):

     2.7664   7.4356  10.6922  14.4098  16.0801  22.6640

     occupation numbers 
     1.0000   1.0721   0.0000   0.0000   0.0000   0.0000

          k =-0.5774 0.5938 0.0000 (   392 PWs)   bands (ev):

     3.0631   8.4579   9.4930  13.9799  15.5626  20.9611

     occupation numbers 
     1.0000   0.0000   0.0000   0.0000   0.0000   0.0000

          k =-0.5774 0.6495 0.0000 (   387 PWs)   bands (ev):

     3.4588   8.3318   9.6236  13.6455  15.1042  19.3556

     occupation numbers 
     1.0000   0.0000   0.0000   0.0000   0.0000   0.0000

          k =-0.5774 0.7052 0.0000 (   391 PWs)   bands (ev):

     3.9411   7.3471  10.7914  13.4066  14.6481  17.9462

     occupation numbers 
     1.0000   1.0189   0.0000   0.0000   0.0000   0.0000

          k =-0.5774 0.7608 0.0000 (   388 PWs)   bands (ev):

     4.4642   6.5169  11.9925  13.2633  14.0481  16.9281

     occupation numbers 
     1.0000   1.0000   0.0000   0.0000   0.0000   0.0000

          k =-0.5774-0.4082 0.0000 (   388 PWs)   bands (ev):

     4.7793   6.0991  13.0559  13.2155  13.2155  16.5580

     occupation numbers 
     1.0000   1.0000   0.0000   0.0000   0.0000   0.0000

     the Fermi energy is     7.6614 ev

!    total energy              =      -6.64385739 Ry
     Harris-Foulkes estimate   =      -6.64385771 Ry
     estimated scf accuracy    <       0.00000129 Ry

     The total energy is the sum of the following terms:

     one-electron contribution =       2.98322578 Ry
     hartree contribution      =       0.00851682 Ry
     xc contribution           =      -4.22930797 Ry
     ewald contribution        =      -5.40634338 Ry
     smearing contrib. (-TS)   =       0.00005137 Ry

     convergence has been achieved in   3 iterations
 
     init_run     :     37.10s CPU      5.15s WALL (       1 calls)
     electrons    :    821.48s CPU     78.24s WALL (       1 calls)

     Called by init_run:
     wfcinit      :     36.88s CPU      4.97s WALL (       1 calls)
     wfcinit:atom :      0.79s CPU      0.11s WALL (    2796 calls)
     wfcinit:wfcr :     34.15s CPU      4.60s WALL (    2796 calls)
     potinit      :      0.01s CPU      0.01s WALL (       1 calls)

     Called by electrons:
     c_bands      :    806.71s CPU     70.68s WALL (       4 calls)
     sum_band     :     13.40s CPU      7.49s WALL (       4 calls)
     v_of_rho     :      0.02s CPU      0.00s WALL (       4 calls)
     v_h          :      0.00s CPU      0.00s WALL (       4 calls)
     v_xc         :      0.01s CPU      0.00s WALL (       4 calls)
     newd         :      0.32s CPU      0.02s WALL (       4 calls)
     mix_rho      :      0.01s CPU      0.00s WALL (       4 calls)

     Called by c_bands:
     init_us_2    :     11.19s CPU      1.63s WALL (   25164 calls)
     cegterg      :    745.74s CPU     64.12s WALL (   11184 calls)

     Called by sum_band:
     sum_band:bec :      0.14s CPU      0.04s WALL (   11184 calls)
     addusdens    :      0.00s CPU      0.01s WALL (       4 calls)

     Called by *egterg:
     h_psi        :    677.11s CPU     60.44s WALL (   38254 calls)
     s_psi        :      5.75s CPU      0.53s WALL (   38254 calls)
     g_psi        :      2.97s CPU      0.25s WALL (   24274 calls)
     cdiaghg      :     36.53s CPU      3.00s WALL (   32662 calls)
     cegterg:over :      8.81s CPU      0.72s WALL (   24274 calls)
     cegterg:upda :      7.83s CPU      0.66s WALL (   24274 calls)
     cegterg:last :      5.82s CPU      0.46s WALL (   12694 calls)

     Called by h_psi:
     h_psi:pot    :    671.79s CPU     59.98s WALL (   38254 calls)
     h_psi:calbec :      8.44s CPU      0.70s WALL (   38254 calls)
     vloc_psi     :    649.87s CPU     58.18s WALL (   38254 calls)
     add_vuspsi   :      6.07s CPU      0.56s WALL (   38254 calls)

     General routines
     calbec       :      5.18s CPU      0.55s WALL (   49438 calls)
     fft          :      0.01s CPU      0.02s WALL (      26 calls)
     fftw         :    532.10s CPU     52.97s WALL (  449290 calls)
 
     Parallel routines
 
     PWSCF        : 14m18.85s CPU     1m23.45s WALL

 
   This run was terminated on:  12:24:58  24Jan2019            

=------------------------------------------------------------------------------=
   JOB DONE.
=------------------------------------------------------------------------------=
