
     Program PWSCF v.6.2 (svn rev. 14038) starts on 30Jan2019 at 22: 8:37 

     This program is part of the open-source Quantum ESPRESSO suite
     for quantum simulation of materials; please cite
         "P. Giannozzi et al., J. Phys.:Condens. Matter 21 395502 (2009);
         "P. Giannozzi et al., J. Phys.:Condens. Matter 29 465901 (2017);
          URL http://www.quantum-espresso.org", 
     in publications or presentations arising from this work. More details at
     http://www.quantum-espresso.org/quote

     Parallel version (MPI), running on     2 processors

     MPI processes distributed on     1 nodes
     R & G space division:  proc/nbgrp/npool/nimage =       2
     Reading input from ./Alecut20.in
Warning: card &IONS ignored
Warning: card / ignored
Warning: card &CELL ignored
Warning: card / ignored

     Current dimensions of program PWSCF are:
     Max number of different atomic species (ntypx) = 10
     Max number of k-points (npk) =  40000
     Max angular momentum in pseudopotentials (lmaxx) =  3
     Message from routine iosys:
     minimal I/O required, wf_collect reset to FALSE

     Subspace diagonalization in iterative solution of the eigenvalue problem:
     a serial algorithm will be used

 
     Parallelization info
     --------------------
     sticks:   dense  smooth     PW     G-vecs:    dense   smooth      PW
     Min          84      84     41                  704      704     229
     Max          85      85     42                  705      705     230
     Sum         169     169     83                 1409     1409     459
 


     bravais-lattice index     =            0
     lattice parameter (alat)  =       5.2705  a.u.
     unit-cell volume          =     112.7033 (a.u.)^3
     number of atoms/cell      =            1
     number of atomic types    =            1
     number of electrons       =         3.00
     number of Kohn-Sham states=            6
     kinetic-energy cutoff     =      20.0000  Ry
     charge density cutoff     =      80.0000  Ry
     convergence threshold     =      1.0E-06
     mixing beta               =       0.7000
     number of iterations used =            8  plain     mixing
     Exchange-correlation      = SLA  PW   PBE  PBE ( 1  4  3  4 0 0)

     celldm(1)=   5.270512  celldm(2)=   0.000000  celldm(3)=   0.000000
     celldm(4)=   0.000000  celldm(5)=   0.000000  celldm(6)=   0.000000

     crystal axes: (cart. coord. in units of alat)
               a(1) = (   0.577350   0.577350   0.577350 )  
               a(2) = (   0.577350  -0.577350  -0.577350 )  
               a(3) = (  -0.577350   0.577350  -0.577350 )  

     reciprocal axes: (cart. coord. in units 2 pi/alat)
               b(1) = (  0.866025  0.866025  0.000000 )  
               b(2) = (  0.866025  0.000000 -0.866025 )  
               b(3) = (  0.000000  0.866025 -0.866025 )  


     PseudoPot. # 1 for Al read from file:
     ./al_pbe_v1.uspp.F.UPF
     MD5 check sum: 0a6289f5291fc8f409219462bc851e1f
     Pseudo is Ultrasoft + core correction, Zval =  3.0
     Generated by new atomic code, or converted to UPF format
     Using radial grid of  893 points,  3 beta functions with: 
                l(1) =   0
                l(2) =   1
                l(3) =   2
     Q(r) pseudized with  8 coefficients,  rinner =    0.900   0.900   0.900
                                                       0.900   0.900

     atomic species   valence    mass     pseudopotential
        Al             3.00    26.98150     Al( 1.00)

     48 Sym. Ops., with inversion, found


                                    s                        frac. trans.

      isym =  1     identity                                     

 cryst.   s( 1) = (     1          0          0      )
                  (     0          1          0      )
                  (     0          0          1      )

 cart.    s( 1) = (  1.0000000  0.0000000  0.0000000 )
                  (  0.0000000  1.0000000  0.0000000 )
                  (  0.0000000  0.0000000  1.0000000 )


      isym =  2     180 deg rotation - cart. axis [0,0,1]        

 cryst.   s( 2) = (    -1         -1         -1      )
                  (     0          0          1      )
                  (     0          1          0      )

 cart.    s( 2) = ( -1.0000000  0.0000000  0.0000000 )
                  (  0.0000000 -1.0000000  0.0000000 )
                  (  0.0000000  0.0000000  1.0000000 )


      isym =  3     180 deg rotation - cart. axis [0,1,0]        

 cryst.   s( 3) = (     0          0          1      )
                  (    -1         -1         -1      )
                  (     1          0          0      )

 cart.    s( 3) = ( -1.0000000  0.0000000  0.0000000 )
                  (  0.0000000  1.0000000  0.0000000 )
                  (  0.0000000  0.0000000 -1.0000000 )


      isym =  4     180 deg rotation - cart. axis [1,0,0]        

 cryst.   s( 4) = (     0          1          0      )
                  (     1          0          0      )
                  (    -1         -1         -1      )

 cart.    s( 4) = (  1.0000000  0.0000000  0.0000000 )
                  (  0.0000000 -1.0000000  0.0000000 )
                  (  0.0000000  0.0000000 -1.0000000 )


      isym =  5     180 deg rotation - cart. axis [1,1,0]        

 cryst.   s( 5) = (     1          1          1      )
                  (     0         -1          0      )
                  (     0          0         -1      )

 cart.    s( 5) = (  0.0000000  1.0000000  0.0000000 )
                  (  1.0000000  0.0000000  0.0000000 )
                  (  0.0000000  0.0000000 -1.0000000 )


      isym =  6     180 deg rotation - cart. axis [1,-1,0]       

 cryst.   s( 6) = (    -1          0          0      )
                  (     0          0         -1      )
                  (     0         -1          0      )

 cart.    s( 6) = (  0.0000000 -1.0000000  0.0000000 )
                  ( -1.0000000  0.0000000  0.0000000 )
                  (  0.0000000  0.0000000 -1.0000000 )


      isym =  7      90 deg rotation - cart. axis [0,0,-1]       

 cryst.   s( 7) = (     0          0         -1      )
                  (    -1          0          0      )
                  (     1          1          1      )

 cart.    s( 7) = (  0.0000000  1.0000000  0.0000000 )
                  ( -1.0000000  0.0000000  0.0000000 )
                  (  0.0000000  0.0000000  1.0000000 )


      isym =  8      90 deg rotation - cart. axis [0,0,1]        

 cryst.   s( 8) = (     0         -1          0      )
                  (     1          1          1      )
                  (    -1          0          0      )

 cart.    s( 8) = (  0.0000000 -1.0000000  0.0000000 )
                  (  1.0000000  0.0000000  0.0000000 )
                  (  0.0000000  0.0000000  1.0000000 )


      isym =  9     180 deg rotation - cart. axis [1,0,1]        

 cryst.   s( 9) = (     0          0         -1      )
                  (     0         -1          0      )
                  (    -1          0          0      )

 cart.    s( 9) = (  0.0000000  0.0000000  1.0000000 )
                  (  0.0000000 -1.0000000  0.0000000 )
                  (  1.0000000  0.0000000  0.0000000 )


      isym = 10     180 deg rotation - cart. axis [-1,0,1]       

 cryst.   s(10) = (    -1          0          0      )
                  (     1          1          1      )
                  (     0          0         -1      )

 cart.    s(10) = (  0.0000000  0.0000000 -1.0000000 )
                  (  0.0000000 -1.0000000  0.0000000 )
                  ( -1.0000000  0.0000000  0.0000000 )


      isym = 11      90 deg rotation - cart. axis [0,1,0]        

 cryst.   s(11) = (     1          1          1      )
                  (    -1          0          0      )
                  (     0         -1          0      )

 cart.    s(11) = (  0.0000000  0.0000000  1.0000000 )
                  (  0.0000000  1.0000000  0.0000000 )
                  ( -1.0000000  0.0000000  0.0000000 )


      isym = 12      90 deg rotation - cart. axis [0,-1,0]       

 cryst.   s(12) = (     0         -1          0      )
                  (     0          0         -1      )
                  (     1          1          1      )

 cart.    s(12) = (  0.0000000  0.0000000 -1.0000000 )
                  (  0.0000000  1.0000000  0.0000000 )
                  (  1.0000000  0.0000000  0.0000000 )


      isym = 13     180 deg rotation - cart. axis [0,1,1]        

 cryst.   s(13) = (     0         -1          0      )
                  (    -1          0          0      )
                  (     0          0         -1      )

 cart.    s(13) = ( -1.0000000  0.0000000  0.0000000 )
                  (  0.0000000  0.0000000  1.0000000 )
                  (  0.0000000  1.0000000  0.0000000 )


      isym = 14     180 deg rotation - cart. axis [0,1,-1]       

 cryst.   s(14) = (    -1          0          0      )
                  (     0         -1          0      )
                  (     1          1          1      )

 cart.    s(14) = ( -1.0000000  0.0000000  0.0000000 )
                  (  0.0000000  0.0000000 -1.0000000 )
                  (  0.0000000 -1.0000000  0.0000000 )


      isym = 15      90 deg rotation - cart. axis [-1,0,0]       

 cryst.   s(15) = (     1          1          1      )
                  (     0          0         -1      )
                  (    -1          0          0      )

 cart.    s(15) = (  1.0000000  0.0000000  0.0000000 )
                  (  0.0000000  0.0000000  1.0000000 )
                  (  0.0000000 -1.0000000  0.0000000 )


      isym = 16      90 deg rotation - cart. axis [1,0,0]        

 cryst.   s(16) = (     0          0         -1      )
                  (     1          1          1      )
                  (     0         -1          0      )

 cart.    s(16) = (  1.0000000  0.0000000  0.0000000 )
                  (  0.0000000  0.0000000 -1.0000000 )
                  (  0.0000000  1.0000000  0.0000000 )


      isym = 17     120 deg rotation - cart. axis [-1,-1,-1]     

 cryst.   s(17) = (     1          0          0      )
                  (    -1         -1         -1      )
                  (     0          1          0      )

 cart.    s(17) = (  0.0000000  1.0000000  0.0000000 )
                  (  0.0000000  0.0000000  1.0000000 )
                  (  1.0000000  0.0000000  0.0000000 )


      isym = 18     120 deg rotation - cart. axis [-1,1,1]       

 cryst.   s(18) = (     0          0          1      )
                  (     0          1          0      )
                  (    -1         -1         -1      )

 cart.    s(18) = (  0.0000000 -1.0000000  0.0000000 )
                  (  0.0000000  0.0000000  1.0000000 )
                  ( -1.0000000  0.0000000  0.0000000 )


      isym = 19     120 deg rotation - cart. axis [1,1,-1]       

 cryst.   s(19) = (     0          1          0      )
                  (     0          0          1      )
                  (     1          0          0      )

 cart.    s(19) = (  0.0000000  1.0000000  0.0000000 )
                  (  0.0000000  0.0000000 -1.0000000 )
                  ( -1.0000000  0.0000000  0.0000000 )


      isym = 20     120 deg rotation - cart. axis [1,-1,1]       

 cryst.   s(20) = (    -1         -1         -1      )
                  (     1          0          0      )
                  (     0          0          1      )

 cart.    s(20) = (  0.0000000 -1.0000000  0.0000000 )
                  (  0.0000000  0.0000000 -1.0000000 )
                  (  1.0000000  0.0000000  0.0000000 )


      isym = 21     120 deg rotation - cart. axis [1,1,1]        

 cryst.   s(21) = (     1          0          0      )
                  (     0          0          1      )
                  (    -1         -1         -1      )

 cart.    s(21) = (  0.0000000  0.0000000  1.0000000 )
                  (  1.0000000  0.0000000  0.0000000 )
                  (  0.0000000  1.0000000  0.0000000 )


      isym = 22     120 deg rotation - cart. axis [-1,1,-1]      

 cryst.   s(22) = (     0          1          0      )
                  (    -1         -1         -1      )
                  (     0          0          1      )

 cart.    s(22) = (  0.0000000  0.0000000  1.0000000 )
                  ( -1.0000000  0.0000000  0.0000000 )
                  (  0.0000000 -1.0000000  0.0000000 )


      isym = 23     120 deg rotation - cart. axis [1,-1,-1]      

 cryst.   s(23) = (    -1         -1         -1      )
                  (     0          1          0      )
                  (     1          0          0      )

 cart.    s(23) = (  0.0000000  0.0000000 -1.0000000 )
                  ( -1.0000000  0.0000000  0.0000000 )
                  (  0.0000000  1.0000000  0.0000000 )


      isym = 24     120 deg rotation - cart. axis [-1,-1,1]      

 cryst.   s(24) = (     0          0          1      )
                  (     1          0          0      )
                  (     0          1          0      )

 cart.    s(24) = (  0.0000000  0.0000000 -1.0000000 )
                  (  1.0000000  0.0000000  0.0000000 )
                  (  0.0000000 -1.0000000  0.0000000 )


      isym = 25     inversion                                    

 cryst.   s(25) = (    -1          0          0      )
                  (     0         -1          0      )
                  (     0          0         -1      )

 cart.    s(25) = ( -1.0000000  0.0000000  0.0000000 )
                  (  0.0000000 -1.0000000  0.0000000 )
                  (  0.0000000  0.0000000 -1.0000000 )


      isym = 26     inv. 180 deg rotation - cart. axis [0,0,1]   

 cryst.   s(26) = (     1          1          1      )
                  (     0          0         -1      )
                  (     0         -1          0      )

 cart.    s(26) = (  1.0000000  0.0000000  0.0000000 )
                  (  0.0000000  1.0000000  0.0000000 )
                  (  0.0000000  0.0000000 -1.0000000 )


      isym = 27     inv. 180 deg rotation - cart. axis [0,1,0]   

 cryst.   s(27) = (     0          0         -1      )
                  (     1          1          1      )
                  (    -1          0          0      )

 cart.    s(27) = (  1.0000000  0.0000000  0.0000000 )
                  (  0.0000000 -1.0000000  0.0000000 )
                  (  0.0000000  0.0000000  1.0000000 )


      isym = 28     inv. 180 deg rotation - cart. axis [1,0,0]   

 cryst.   s(28) = (     0         -1          0      )
                  (    -1          0          0      )
                  (     1          1          1      )

 cart.    s(28) = ( -1.0000000  0.0000000  0.0000000 )
                  (  0.0000000  1.0000000  0.0000000 )
                  (  0.0000000  0.0000000  1.0000000 )


      isym = 29     inv. 180 deg rotation - cart. axis [1,1,0]   

 cryst.   s(29) = (    -1         -1         -1      )
                  (     0          1          0      )
                  (     0          0          1      )

 cart.    s(29) = (  0.0000000 -1.0000000  0.0000000 )
                  ( -1.0000000  0.0000000  0.0000000 )
                  (  0.0000000  0.0000000  1.0000000 )


      isym = 30     inv. 180 deg rotation - cart. axis [1,-1,0]  

 cryst.   s(30) = (     1          0          0      )
                  (     0          0          1      )
                  (     0          1          0      )

 cart.    s(30) = (  0.0000000  1.0000000  0.0000000 )
                  (  1.0000000  0.0000000  0.0000000 )
                  (  0.0000000  0.0000000  1.0000000 )


      isym = 31     inv.  90 deg rotation - cart. axis [0,0,-1]  

 cryst.   s(31) = (     0          0          1      )
                  (     1          0          0      )
                  (    -1         -1         -1      )

 cart.    s(31) = (  0.0000000 -1.0000000  0.0000000 )
                  (  1.0000000  0.0000000  0.0000000 )
                  (  0.0000000  0.0000000 -1.0000000 )


      isym = 32     inv.  90 deg rotation - cart. axis [0,0,1]   

 cryst.   s(32) = (     0          1          0      )
                  (    -1         -1         -1      )
                  (     1          0          0      )

 cart.    s(32) = (  0.0000000  1.0000000  0.0000000 )
                  ( -1.0000000  0.0000000  0.0000000 )
                  (  0.0000000  0.0000000 -1.0000000 )


      isym = 33     inv. 180 deg rotation - cart. axis [1,0,1]   

 cryst.   s(33) = (     0          0          1      )
                  (     0          1          0      )
                  (     1          0          0      )

 cart.    s(33) = (  0.0000000  0.0000000 -1.0000000 )
                  (  0.0000000  1.0000000  0.0000000 )
                  ( -1.0000000  0.0000000  0.0000000 )


      isym = 34     inv. 180 deg rotation - cart. axis [-1,0,1]  

 cryst.   s(34) = (     1          0          0      )
                  (    -1         -1         -1      )
                  (     0          0          1      )

 cart.    s(34) = (  0.0000000  0.0000000  1.0000000 )
                  (  0.0000000  1.0000000  0.0000000 )
                  (  1.0000000  0.0000000  0.0000000 )


      isym = 35     inv.  90 deg rotation - cart. axis [0,1,0]   

 cryst.   s(35) = (    -1         -1         -1      )
                  (     1          0          0      )
                  (     0          1          0      )

 cart.    s(35) = (  0.0000000  0.0000000 -1.0000000 )
                  (  0.0000000 -1.0000000  0.0000000 )
                  (  1.0000000  0.0000000  0.0000000 )


      isym = 36     inv.  90 deg rotation - cart. axis [0,-1,0]  

 cryst.   s(36) = (     0          1          0      )
                  (     0          0          1      )
                  (    -1         -1         -1      )

 cart.    s(36) = (  0.0000000  0.0000000  1.0000000 )
                  (  0.0000000 -1.0000000  0.0000000 )
                  ( -1.0000000  0.0000000  0.0000000 )


      isym = 37     inv. 180 deg rotation - cart. axis [0,1,1]   

 cryst.   s(37) = (     0          1          0      )
                  (     1          0          0      )
                  (     0          0          1      )

 cart.    s(37) = (  1.0000000  0.0000000  0.0000000 )
                  (  0.0000000  0.0000000 -1.0000000 )
                  (  0.0000000 -1.0000000  0.0000000 )


      isym = 38     inv. 180 deg rotation - cart. axis [0,1,-1]  

 cryst.   s(38) = (     1          0          0      )
                  (     0          1          0      )
                  (    -1         -1         -1      )

 cart.    s(38) = (  1.0000000  0.0000000  0.0000000 )
                  (  0.0000000  0.0000000  1.0000000 )
                  (  0.0000000  1.0000000  0.0000000 )


      isym = 39     inv.  90 deg rotation - cart. axis [-1,0,0]  

 cryst.   s(39) = (    -1         -1         -1      )
                  (     0          0          1      )
                  (     1          0          0      )

 cart.    s(39) = ( -1.0000000  0.0000000  0.0000000 )
                  (  0.0000000  0.0000000 -1.0000000 )
                  (  0.0000000  1.0000000  0.0000000 )


      isym = 40     inv.  90 deg rotation - cart. axis [1,0,0]   

 cryst.   s(40) = (     0          0          1      )
                  (    -1         -1         -1      )
                  (     0          1          0      )

 cart.    s(40) = ( -1.0000000  0.0000000  0.0000000 )
                  (  0.0000000  0.0000000  1.0000000 )
                  (  0.0000000 -1.0000000  0.0000000 )


      isym = 41     inv. 120 deg rotation - cart. axis [-1,-1,-1]

 cryst.   s(41) = (    -1          0          0      )
                  (     1          1          1      )
                  (     0         -1          0      )

 cart.    s(41) = (  0.0000000 -1.0000000  0.0000000 )
                  (  0.0000000  0.0000000 -1.0000000 )
                  ( -1.0000000  0.0000000  0.0000000 )


      isym = 42     inv. 120 deg rotation - cart. axis [-1,1,1]  

 cryst.   s(42) = (     0          0         -1      )
                  (     0         -1          0      )
                  (     1          1          1      )

 cart.    s(42) = (  0.0000000  1.0000000  0.0000000 )
                  (  0.0000000  0.0000000 -1.0000000 )
                  (  1.0000000  0.0000000  0.0000000 )


      isym = 43     inv. 120 deg rotation - cart. axis [1,1,-1]  

 cryst.   s(43) = (     0         -1          0      )
                  (     0          0         -1      )
                  (    -1          0          0      )

 cart.    s(43) = (  0.0000000 -1.0000000  0.0000000 )
                  (  0.0000000  0.0000000  1.0000000 )
                  (  1.0000000  0.0000000  0.0000000 )


      isym = 44     inv. 120 deg rotation - cart. axis [1,-1,1]  

 cryst.   s(44) = (     1          1          1      )
                  (    -1          0          0      )
                  (     0          0         -1      )

 cart.    s(44) = (  0.0000000  1.0000000  0.0000000 )
                  (  0.0000000  0.0000000  1.0000000 )
                  ( -1.0000000  0.0000000  0.0000000 )


      isym = 45     inv. 120 deg rotation - cart. axis [1,1,1]   

 cryst.   s(45) = (    -1          0          0      )
                  (     0          0         -1      )
                  (     1          1          1      )

 cart.    s(45) = (  0.0000000  0.0000000 -1.0000000 )
                  ( -1.0000000  0.0000000  0.0000000 )
                  (  0.0000000 -1.0000000  0.0000000 )


      isym = 46     inv. 120 deg rotation - cart. axis [-1,1,-1] 

 cryst.   s(46) = (     0         -1          0      )
                  (     1          1          1      )
                  (     0          0         -1      )

 cart.    s(46) = (  0.0000000  0.0000000 -1.0000000 )
                  (  1.0000000  0.0000000  0.0000000 )
                  (  0.0000000  1.0000000  0.0000000 )


      isym = 47     inv. 120 deg rotation - cart. axis [1,-1,-1] 

 cryst.   s(47) = (     1          1          1      )
                  (     0         -1          0      )
                  (    -1          0          0      )

 cart.    s(47) = (  0.0000000  0.0000000  1.0000000 )
                  (  1.0000000  0.0000000  0.0000000 )
                  (  0.0000000 -1.0000000  0.0000000 )


      isym = 48     inv. 120 deg rotation - cart. axis [-1,-1,1] 

 cryst.   s(48) = (     0          0         -1      )
                  (    -1          0          0      )
                  (     0         -1          0      )

 cart.    s(48) = (  0.0000000  0.0000000  1.0000000 )
                  ( -1.0000000  0.0000000  0.0000000 )
                  (  0.0000000  1.0000000  0.0000000 )


   Cartesian axes

     site n.     atom                  positions (alat units)
         1           Al  tau(   1) = (   0.0000000   0.0000000   0.0000000  )

   Crystallographic axes

     site n.     atom                  positions (cryst. coord.)
         1           Al  tau(   1) = (  0.0000000  0.0000000  0.0000000  )

     number of k points=   195  Marzari-Vanderbilt smearing, width (Ry)=  0.0100
                       cart. coord. in units 2pi/alat
        k(    1) = (   0.0000000   0.0000000   0.0000000), wk =   0.0003429
        k(    2) = (   0.0000000   0.0481125  -0.0481125), wk =   0.0041152
        k(    3) = (   0.0000000   0.0962250  -0.0962250), wk =   0.0041152
        k(    4) = (   0.0000000   0.1443376  -0.1443376), wk =   0.0041152
        k(    5) = (   0.0000000   0.1924501  -0.1924501), wk =   0.0041152
        k(    6) = (   0.0000000   0.2405626  -0.2405626), wk =   0.0041152
        k(    7) = (   0.0000000   0.2886751  -0.2886751), wk =   0.0041152
        k(    8) = (   0.0000000   0.3367877  -0.3367877), wk =   0.0041152
        k(    9) = (   0.0000000   0.3849002  -0.3849002), wk =   0.0041152
        k(   10) = (   0.0000000  -0.4330127   0.4330127), wk =   0.0020576
        k(   11) = (   0.0481125   0.0481125  -0.0962250), wk =   0.0082305
        k(   12) = (   0.0481125   0.0962250  -0.1443376), wk =   0.0164609
        k(   13) = (   0.0481125   0.1443376  -0.1924501), wk =   0.0164609
        k(   14) = (   0.0481125   0.1924501  -0.2405626), wk =   0.0164609
        k(   15) = (   0.0481125   0.2405626  -0.2886751), wk =   0.0164609
        k(   16) = (   0.0481125   0.2886751  -0.3367877), wk =   0.0164609
        k(   17) = (   0.0481125   0.3367877  -0.3849002), wk =   0.0164609
        k(   18) = (   0.0481125   0.3849002  -0.4330127), wk =   0.0164609
        k(   19) = (   0.0962250   0.0962250  -0.1924501), wk =   0.0082305
        k(   20) = (   0.0962250   0.1443376  -0.2405626), wk =   0.0164609
        k(   21) = (   0.0962250   0.1924501  -0.2886751), wk =   0.0164609
        k(   22) = (   0.0962250   0.2405626  -0.3367877), wk =   0.0164609
        k(   23) = (   0.0962250   0.2886751  -0.3849002), wk =   0.0164609
        k(   24) = (   0.0962250   0.3367877  -0.4330127), wk =   0.0164609
        k(   25) = (   0.0962250   0.3849002  -0.4811252), wk =   0.0082305
        k(   26) = (   0.1443376   0.1443376  -0.2886751), wk =   0.0082305
        k(   27) = (   0.1443376   0.1924501  -0.3367877), wk =   0.0164609
        k(   28) = (   0.1443376   0.2405626  -0.3849002), wk =   0.0164609
        k(   29) = (   0.1443376   0.2886751  -0.4330127), wk =   0.0164609
        k(   30) = (   0.1443376   0.3367877  -0.4811252), wk =   0.0164609
        k(   31) = (   0.1924501   0.1924501  -0.3849002), wk =   0.0082305
        k(   32) = (   0.1924501   0.2405626  -0.4330127), wk =   0.0164609
        k(   33) = (   0.1924501   0.2886751  -0.4811252), wk =   0.0164609
        k(   34) = (   0.1924501   0.3367877  -0.5292377), wk =   0.0082305
        k(   35) = (   0.2405626   0.2405626  -0.4811252), wk =   0.0082305
        k(   36) = (   0.2405626   0.2886751  -0.5292377), wk =   0.0164609
        k(   37) = (   0.2886751   0.2886751  -0.5773503), wk =   0.0027435
        k(   38) = (   0.0962250   0.0962250  -0.0962250), wk =   0.0027435
        k(   39) = (   0.0962250   0.1443376  -0.1443376), wk =   0.0082305
        k(   40) = (   0.0962250   0.1924501  -0.1924501), wk =   0.0082305
        k(   41) = (   0.0962250   0.2405626  -0.2405626), wk =   0.0082305
        k(   42) = (   0.0962250   0.2886751  -0.2886751), wk =   0.0082305
        k(   43) = (   0.0962250   0.3367877  -0.3367877), wk =   0.0082305
        k(   44) = (   0.0962250   0.3849002  -0.3849002), wk =   0.0082305
        k(   45) = (   0.0962250   0.4330127  -0.4330127), wk =   0.0041152
        k(   46) = (   0.0962250  -0.0000000   0.0000000), wk =   0.0020576
        k(   47) = (   0.1443376   0.1443376  -0.1924501), wk =   0.0082305
        k(   48) = (   0.1443376   0.1924501  -0.2405626), wk =   0.0164609
        k(   49) = (   0.1443376   0.2405626  -0.2886751), wk =   0.0164609
        k(   50) = (   0.1443376   0.2886751  -0.3367877), wk =   0.0164609
        k(   51) = (   0.1443376   0.3367877  -0.3849002), wk =   0.0164609
        k(   52) = (   0.1443376   0.3849002  -0.4330127), wk =   0.0164609
        k(   53) = (   0.1443376  -0.0481125   0.0000000), wk =   0.0082305
        k(   54) = (   0.1924501   0.1924501  -0.2886751), wk =   0.0082305
        k(   55) = (   0.1924501   0.2405626  -0.3367877), wk =   0.0164609
        k(   56) = (   0.1924501   0.2886751  -0.3849002), wk =   0.0164609
        k(   57) = (   0.1924501   0.3367877  -0.4330127), wk =   0.0164609
        k(   58) = (   0.1924501   0.3849002  -0.4811252), wk =   0.0082305
        k(   59) = (   0.1924501  -0.0962250   0.0000000), wk =   0.0082305
        k(   60) = (   0.1924501  -0.0481125  -0.0481125), wk =   0.0082305
        k(   61) = (   0.2405626   0.2405626  -0.3849002), wk =   0.0082305
        k(   62) = (   0.2405626   0.2886751  -0.4330127), wk =   0.0164609
        k(   63) = (   0.2405626   0.3367877  -0.4811252), wk =   0.0164609
        k(   64) = (   0.2405626  -0.1443376   0.0000000), wk =   0.0082305
        k(   65) = (   0.2405626  -0.0962250  -0.0481125), wk =   0.0164609
        k(   66) = (   0.2886751   0.2886751  -0.4811252), wk =   0.0082305
        k(   67) = (   0.2886751   0.3367877  -0.5292377), wk =   0.0082305
        k(   68) = (   0.2886751  -0.1924501   0.0000000), wk =   0.0082305
        k(   69) = (   0.2886751  -0.1443376  -0.0481125), wk =   0.0164609
        k(   70) = (   0.2886751  -0.0962250  -0.0962250), wk =   0.0082305
        k(   71) = (   0.3367877  -0.2405626   0.0000000), wk =   0.0082305
        k(   72) = (   0.3367877  -0.1924501  -0.0481125), wk =   0.0164609
        k(   73) = (   0.3367877  -0.1443376  -0.0962250), wk =   0.0164609
        k(   74) = (   0.3849002  -0.2886751  -0.0000000), wk =   0.0082305
        k(   75) = (   0.3849002  -0.2405626  -0.0481125), wk =   0.0164609
        k(   76) = (   0.3849002  -0.1924501  -0.0962250), wk =   0.0164609
        k(   77) = (   0.3849002  -0.1443376  -0.1443376), wk =   0.0082305
        k(   78) = (   0.4330127  -0.3367877   0.0000000), wk =   0.0082305
        k(   79) = (   0.4330127  -0.2886751  -0.0481125), wk =   0.0164609
        k(   80) = (   0.4330127  -0.2405626  -0.0962250), wk =   0.0164609
        k(   81) = (   0.4330127  -0.1924501  -0.1443376), wk =   0.0164609
        k(   82) = (  -0.3849002  -0.3849002   0.8660254), wk =   0.0041152
        k(   83) = (  -0.3849002  -0.3367877   0.8179129), wk =   0.0164609
        k(   84) = (  -0.3849002  -0.2886751   0.7698004), wk =   0.0164609
        k(   85) = (  -0.3849002  -0.2405626   0.7216878), wk =   0.0164609
        k(   86) = (  -0.3849002  -0.1924501   0.6735753), wk =   0.0082305
        k(   87) = (  -0.3367877  -0.3367877   0.7698004), wk =   0.0082305
        k(   88) = (  -0.3367877  -0.2886751   0.7216878), wk =   0.0164609
        k(   89) = (  -0.3367877  -0.2405626   0.6735753), wk =   0.0164609
        k(   90) = (  -0.2886751  -0.2886751   0.6735753), wk =   0.0082305
        k(   91) = (  -0.2886751  -0.2405626   0.6254628), wk =   0.0082305
        k(   92) = (   0.1924501   0.1924501  -0.1924501), wk =   0.0027435
        k(   93) = (   0.1924501   0.2405626  -0.2405626), wk =   0.0082305
        k(   94) = (   0.1924501   0.2886751  -0.2886751), wk =   0.0082305
        k(   95) = (   0.1924501   0.3367877  -0.3367877), wk =   0.0082305
        k(   96) = (   0.1924501   0.3849002  -0.3849002), wk =   0.0082305
        k(   97) = (   0.1924501   0.4330127  -0.4330127), wk =   0.0041152
        k(   98) = (   0.1924501  -0.0000000   0.0000000), wk =   0.0020576
        k(   99) = (   0.2405626   0.2405626  -0.2886751), wk =   0.0082305
        k(  100) = (   0.2405626   0.2886751  -0.3367877), wk =   0.0164609
        k(  101) = (   0.2405626   0.3367877  -0.3849002), wk =   0.0164609
        k(  102) = (   0.2405626   0.3849002  -0.4330127), wk =   0.0164609
        k(  103) = (   0.2405626  -0.0481125   0.0000000), wk =   0.0082305
        k(  104) = (   0.2886751   0.2886751  -0.3849002), wk =   0.0082305
        k(  105) = (   0.2886751   0.3367877  -0.4330127), wk =   0.0164609
        k(  106) = (   0.2886751   0.3849002  -0.4811252), wk =   0.0082305
        k(  107) = (   0.2886751  -0.0962250   0.0000000), wk =   0.0082305
        k(  108) = (   0.2886751  -0.0481125  -0.0481125), wk =   0.0082305
        k(  109) = (   0.3367877   0.3367877  -0.4811252), wk =   0.0082305
        k(  110) = (   0.3367877  -0.1443376   0.0000000), wk =   0.0082305
        k(  111) = (   0.3367877  -0.0962250  -0.0481125), wk =   0.0164609
        k(  112) = (   0.3849002  -0.1924501   0.0000000), wk =   0.0082305
        k(  113) = (   0.3849002  -0.1443376  -0.0481125), wk =   0.0164609
        k(  114) = (   0.3849002  -0.0962250  -0.0962250), wk =   0.0082305
        k(  115) = (   0.4330127  -0.2405626  -0.0000000), wk =   0.0082305
        k(  116) = (   0.4330127  -0.1924501  -0.0481125), wk =   0.0164609
        k(  117) = (   0.4330127  -0.1443376  -0.0962250), wk =   0.0164609
        k(  118) = (   0.4811252  -0.2886751   0.0000000), wk =   0.0082305
        k(  119) = (   0.4811252  -0.2405626  -0.0481125), wk =   0.0164609
        k(  120) = (   0.4811252  -0.1924501  -0.0962250), wk =   0.0164609
        k(  121) = (   0.4811252  -0.1443376  -0.1443376), wk =   0.0082305
        k(  122) = (  -0.3367877  -0.3367877   0.8660254), wk =   0.0041152
        k(  123) = (  -0.3367877  -0.2886751   0.8179129), wk =   0.0164609
        k(  124) = (  -0.3367877  -0.2405626   0.7698004), wk =   0.0164609
        k(  125) = (  -0.3367877  -0.1924501   0.7216878), wk =   0.0164609
        k(  126) = (  -0.2886751  -0.2886751   0.7698004), wk =   0.0082305
        k(  127) = (  -0.2886751  -0.2405626   0.7216878), wk =   0.0164609
        k(  128) = (  -0.2886751  -0.1924501   0.6735753), wk =   0.0082305
        k(  129) = (  -0.2405626  -0.2405626   0.6735753), wk =   0.0082305
        k(  130) = (   0.2886751   0.2886751  -0.2886751), wk =   0.0027435
        k(  131) = (   0.2886751   0.3367877  -0.3367877), wk =   0.0082305
        k(  132) = (   0.2886751   0.3849002  -0.3849002), wk =   0.0082305
        k(  133) = (   0.2886751   0.4330127  -0.4330127), wk =   0.0041152
        k(  134) = (   0.2886751   0.0000000   0.0000000), wk =   0.0020576
        k(  135) = (   0.3367877   0.3367877  -0.3849002), wk =   0.0082305
        k(  136) = (   0.3367877   0.3849002  -0.4330127), wk =   0.0164609
        k(  137) = (   0.3367877  -0.0481125   0.0000000), wk =   0.0082305
        k(  138) = (   0.3849002   0.3849002  -0.4811252), wk =   0.0027435
        k(  139) = (   0.3849002  -0.0962250   0.0000000), wk =   0.0082305
        k(  140) = (   0.3849002  -0.0481125  -0.0481125), wk =   0.0082305
        k(  141) = (   0.4330127  -0.1443376   0.0000000), wk =   0.0082305
        k(  142) = (   0.4330127  -0.0962250  -0.0481125), wk =   0.0164609
        k(  143) = (   0.4811252  -0.1924501  -0.0000000), wk =   0.0082305
        k(  144) = (   0.4811252  -0.1443376  -0.0481125), wk =   0.0164609
        k(  145) = (   0.4811252  -0.0962250  -0.0962250), wk =   0.0082305
        k(  146) = (   0.5292377  -0.2405626   0.0000000), wk =   0.0082305
        k(  147) = (   0.5292377  -0.1924501  -0.0481125), wk =   0.0164609
        k(  148) = (   0.5292377  -0.1443376  -0.0962250), wk =   0.0164609
        k(  149) = (  -0.2886751  -0.2886751   0.8660254), wk =   0.0041152
        k(  150) = (  -0.2886751  -0.2405626   0.8179129), wk =   0.0164609
        k(  151) = (  -0.2886751  -0.1924501   0.7698004), wk =   0.0164609
        k(  152) = (  -0.2886751  -0.1443376   0.7216878), wk =   0.0082305
        k(  153) = (  -0.2405626  -0.2405626   0.7698004), wk =   0.0082305
        k(  154) = (  -0.2405626  -0.1924501   0.7216878), wk =   0.0164609
        k(  155) = (  -0.1924501  -0.1924501   0.6735753), wk =   0.0027435
        k(  156) = (   0.3849002   0.3849002  -0.3849002), wk =   0.0027435
        k(  157) = (   0.3849002   0.4330127  -0.4330127), wk =   0.0041152
        k(  158) = (   0.3849002   0.0000000   0.0000000), wk =   0.0020576
        k(  159) = (   0.4330127  -0.0481125   0.0000000), wk =   0.0082305
        k(  160) = (   0.4811252  -0.0962250   0.0000000), wk =   0.0082305
        k(  161) = (   0.4811252  -0.0481125  -0.0481125), wk =   0.0082305
        k(  162) = (   0.5292377  -0.1443376  -0.0000000), wk =   0.0082305
        k(  163) = (   0.5292377  -0.0962250  -0.0481125), wk =   0.0164609
        k(  164) = (   0.5773503  -0.1924501   0.0000000), wk =   0.0082305
        k(  165) = (   0.5773503  -0.1443376  -0.0481125), wk =   0.0164609
        k(  166) = (   0.5773503  -0.0962250  -0.0962250), wk =   0.0082305
        k(  167) = (  -0.2405626  -0.2405626   0.8660254), wk =   0.0041152
        k(  168) = (  -0.2405626  -0.1924501   0.8179129), wk =   0.0164609
        k(  169) = (  -0.2405626  -0.1443376   0.7698004), wk =   0.0164609
        k(  170) = (  -0.1924501  -0.1924501   0.7698004), wk =   0.0082305
        k(  171) = (  -0.1924501  -0.1443376   0.7216878), wk =   0.0082305
        k(  172) = (   0.4811252   0.0000000   0.0000000), wk =   0.0020576
        k(  173) = (   0.5292377  -0.0481125   0.0000000), wk =   0.0082305
        k(  174) = (   0.5773503  -0.0962250  -0.0000000), wk =   0.0082305
        k(  175) = (   0.5773503  -0.0481125  -0.0481125), wk =   0.0082305
        k(  176) = (   0.6254628  -0.1443376   0.0000000), wk =   0.0082305
        k(  177) = (   0.6254628  -0.0962250  -0.0481125), wk =   0.0164609
        k(  178) = (  -0.1924501  -0.1924501   0.8660254), wk =   0.0041152
        k(  179) = (  -0.1924501  -0.1443376   0.8179129), wk =   0.0164609
        k(  180) = (  -0.1924501  -0.0962250   0.7698004), wk =   0.0082305
        k(  181) = (  -0.1443376  -0.1443376   0.7698004), wk =   0.0082305
        k(  182) = (   0.5773503  -0.0000000   0.0000000), wk =   0.0020576
        k(  183) = (   0.6254628  -0.0481125  -0.0000000), wk =   0.0082305
        k(  184) = (   0.6735753  -0.0962250   0.0000000), wk =   0.0082305
        k(  185) = (   0.6735753  -0.0481125  -0.0481125), wk =   0.0082305
        k(  186) = (  -0.1443376  -0.1443376   0.8660254), wk =   0.0041152
        k(  187) = (  -0.1443376  -0.0962250   0.8179129), wk =   0.0164609
        k(  188) = (  -0.0962250  -0.0962250   0.7698004), wk =   0.0027435
        k(  189) = (   0.6735753   0.0000000  -0.0000000), wk =   0.0020576
        k(  190) = (   0.7216878  -0.0481125   0.0000000), wk =   0.0082305
        k(  191) = (  -0.0962250  -0.0962250   0.8660254), wk =   0.0041152
        k(  192) = (  -0.0962250  -0.0481125   0.8179129), wk =   0.0082305
        k(  193) = (   0.7698004   0.0000000   0.0000000), wk =   0.0020576
        k(  194) = (  -0.0481125  -0.0481125   0.8660254), wk =   0.0041152
        k(  195) = (  -0.8660254  -0.8660254   0.8660254), wk =   0.0003429

                       cryst. coord.
        k(    1) = (   0.0000000   0.0000000   0.0000000), wk =   0.0003429
        k(    2) = (   0.0000000   0.0000000   0.0555556), wk =   0.0041152
        k(    3) = (   0.0000000   0.0000000   0.1111111), wk =   0.0041152
        k(    4) = (   0.0000000   0.0000000   0.1666667), wk =   0.0041152
        k(    5) = (   0.0000000   0.0000000   0.2222222), wk =   0.0041152
        k(    6) = (   0.0000000   0.0000000   0.2777778), wk =   0.0041152
        k(    7) = (   0.0000000   0.0000000   0.3333333), wk =   0.0041152
        k(    8) = (   0.0000000   0.0000000   0.3888889), wk =   0.0041152
        k(    9) = (   0.0000000   0.0000000   0.4444444), wk =   0.0041152
        k(   10) = (   0.0000000   0.0000000  -0.5000000), wk =   0.0020576
        k(   11) = (   0.0000000   0.0555556   0.0555556), wk =   0.0082305
        k(   12) = (   0.0000000   0.0555556   0.1111111), wk =   0.0164609
        k(   13) = (   0.0000000   0.0555556   0.1666667), wk =   0.0164609
        k(   14) = (   0.0000000   0.0555556   0.2222222), wk =   0.0164609
        k(   15) = (   0.0000000   0.0555556   0.2777778), wk =   0.0164609
        k(   16) = (   0.0000000   0.0555556   0.3333333), wk =   0.0164609
        k(   17) = (   0.0000000   0.0555556   0.3888889), wk =   0.0164609
        k(   18) = (   0.0000000   0.0555556   0.4444444), wk =   0.0164609
        k(   19) = (   0.0000000   0.1111111   0.1111111), wk =   0.0082305
        k(   20) = (   0.0000000   0.1111111   0.1666667), wk =   0.0164609
        k(   21) = (   0.0000000   0.1111111   0.2222222), wk =   0.0164609
        k(   22) = (  -0.0000000   0.1111111   0.2777778), wk =   0.0164609
        k(   23) = (   0.0000000   0.1111111   0.3333333), wk =   0.0164609
        k(   24) = (  -0.0000000   0.1111111   0.3888889), wk =   0.0164609
        k(   25) = (   0.0000000   0.1111111   0.4444444), wk =   0.0082305
        k(   26) = (   0.0000000   0.1666667   0.1666667), wk =   0.0082305
        k(   27) = (   0.0000000   0.1666667   0.2222222), wk =   0.0164609
        k(   28) = (   0.0000000   0.1666667   0.2777778), wk =   0.0164609
        k(   29) = (   0.0000000   0.1666667   0.3333333), wk =   0.0164609
        k(   30) = (   0.0000000   0.1666667   0.3888889), wk =   0.0164609
        k(   31) = (   0.0000000   0.2222222   0.2222222), wk =   0.0082305
        k(   32) = (   0.0000000   0.2222222   0.2777778), wk =   0.0164609
        k(   33) = (   0.0000000   0.2222222   0.3333333), wk =   0.0164609
        k(   34) = (   0.0000000   0.2222222   0.3888889), wk =   0.0082305
        k(   35) = (   0.0000000   0.2777778   0.2777778), wk =   0.0082305
        k(   36) = (   0.0000000   0.2777778   0.3333333), wk =   0.0164609
        k(   37) = (   0.0000000   0.3333333   0.3333333), wk =   0.0027435
        k(   38) = (   0.0555556   0.0555556   0.0555556), wk =   0.0027435
        k(   39) = (   0.0555556   0.0555556   0.1111111), wk =   0.0082305
        k(   40) = (   0.0555556   0.0555556   0.1666667), wk =   0.0082305
        k(   41) = (   0.0555556   0.0555556   0.2222222), wk =   0.0082305
        k(   42) = (   0.0555556   0.0555556   0.2777778), wk =   0.0082305
        k(   43) = (   0.0555556   0.0555556   0.3333333), wk =   0.0082305
        k(   44) = (   0.0555556   0.0555556   0.3888889), wk =   0.0082305
        k(   45) = (   0.0555556   0.0555556   0.4444444), wk =   0.0041152
        k(   46) = (   0.0555556   0.0555556  -0.0555556), wk =   0.0020576
        k(   47) = (   0.0555556   0.1111111   0.1111111), wk =   0.0082305
        k(   48) = (   0.0555556   0.1111111   0.1666667), wk =   0.0164609
        k(   49) = (   0.0555556   0.1111111   0.2222222), wk =   0.0164609
        k(   50) = (   0.0555556   0.1111111   0.2777778), wk =   0.0164609
        k(   51) = (   0.0555556   0.1111111   0.3333333), wk =   0.0164609
        k(   52) = (   0.0555556   0.1111111   0.3888889), wk =   0.0164609
        k(   53) = (   0.0555556   0.1111111  -0.1111111), wk =   0.0082305
        k(   54) = (   0.0555556   0.1666667   0.1666667), wk =   0.0082305
        k(   55) = (   0.0555556   0.1666667   0.2222222), wk =   0.0164609
        k(   56) = (   0.0555556   0.1666667   0.2777778), wk =   0.0164609
        k(   57) = (   0.0555556   0.1666667   0.3333333), wk =   0.0164609
        k(   58) = (   0.0555556   0.1666667   0.3888889), wk =   0.0082305
        k(   59) = (   0.0555556   0.1666667  -0.1666667), wk =   0.0082305
        k(   60) = (   0.0555556   0.1666667  -0.1111111), wk =   0.0082305
        k(   61) = (   0.0555556   0.2222222   0.2222222), wk =   0.0082305
        k(   62) = (   0.0555556   0.2222222   0.2777778), wk =   0.0164609
        k(   63) = (   0.0555556   0.2222222   0.3333333), wk =   0.0164609
        k(   64) = (   0.0555556   0.2222222  -0.2222222), wk =   0.0082305
        k(   65) = (   0.0555556   0.2222222  -0.1666667), wk =   0.0164609
        k(   66) = (   0.0555556   0.2777778   0.2777778), wk =   0.0082305
        k(   67) = (   0.0555556   0.2777778   0.3333333), wk =   0.0082305
        k(   68) = (   0.0555556   0.2777778  -0.2777778), wk =   0.0082305
        k(   69) = (   0.0555556   0.2777778  -0.2222222), wk =   0.0164609
        k(   70) = (   0.0555556   0.2777778  -0.1666667), wk =   0.0082305
        k(   71) = (   0.0555556   0.3333333  -0.3333333), wk =   0.0082305
        k(   72) = (   0.0555556   0.3333333  -0.2777778), wk =   0.0164609
        k(   73) = (   0.0555556   0.3333333  -0.2222222), wk =   0.0164609
        k(   74) = (   0.0555556   0.3888889  -0.3888889), wk =   0.0082305
        k(   75) = (   0.0555556   0.3888889  -0.3333333), wk =   0.0164609
        k(   76) = (   0.0555556   0.3888889  -0.2777778), wk =   0.0164609
        k(   77) = (   0.0555556   0.3888889  -0.2222222), wk =   0.0082305
        k(   78) = (   0.0555556   0.4444444  -0.4444444), wk =   0.0082305
        k(   79) = (   0.0555556   0.4444444  -0.3888889), wk =   0.0164609
        k(   80) = (   0.0555556   0.4444444  -0.3333333), wk =   0.0164609
        k(   81) = (   0.0555556   0.4444444  -0.2777778), wk =   0.0164609
        k(   82) = (   0.0555556  -0.5000000  -0.5000000), wk =   0.0041152
        k(   83) = (   0.0555556  -0.5000000  -0.4444444), wk =   0.0164609
        k(   84) = (   0.0555556  -0.5000000  -0.3888889), wk =   0.0164609
        k(   85) = (   0.0555556  -0.5000000  -0.3333333), wk =   0.0164609
        k(   86) = (   0.0555556  -0.5000000  -0.2777778), wk =   0.0082305
        k(   87) = (   0.0555556  -0.4444444  -0.4444444), wk =   0.0082305
        k(   88) = (   0.0555556  -0.4444444  -0.3888889), wk =   0.0164609
        k(   89) = (   0.0555556  -0.4444444  -0.3333333), wk =   0.0164609
        k(   90) = (   0.0555556  -0.3888889  -0.3888889), wk =   0.0082305
        k(   91) = (   0.0555556  -0.3888889  -0.3333333), wk =   0.0082305
        k(   92) = (   0.1111111   0.1111111   0.1111111), wk =   0.0027435
        k(   93) = (   0.1111111   0.1111111   0.1666667), wk =   0.0082305
        k(   94) = (   0.1111111   0.1111111   0.2222222), wk =   0.0082305
        k(   95) = (   0.1111111   0.1111111   0.2777778), wk =   0.0082305
        k(   96) = (   0.1111111   0.1111111   0.3333333), wk =   0.0082305
        k(   97) = (   0.1111111   0.1111111   0.3888889), wk =   0.0041152
        k(   98) = (   0.1111111   0.1111111  -0.1111111), wk =   0.0020576
        k(   99) = (   0.1111111   0.1666667   0.1666667), wk =   0.0082305
        k(  100) = (   0.1111111   0.1666667   0.2222222), wk =   0.0164609
        k(  101) = (   0.1111111   0.1666667   0.2777778), wk =   0.0164609
        k(  102) = (   0.1111111   0.1666667   0.3333333), wk =   0.0164609
        k(  103) = (   0.1111111   0.1666667  -0.1666667), wk =   0.0082305
        k(  104) = (   0.1111111   0.2222222   0.2222222), wk =   0.0082305
        k(  105) = (   0.1111111   0.2222222   0.2777778), wk =   0.0164609
        k(  106) = (   0.1111111   0.2222222   0.3333333), wk =   0.0082305
        k(  107) = (   0.1111111   0.2222222  -0.2222222), wk =   0.0082305
        k(  108) = (   0.1111111   0.2222222  -0.1666667), wk =   0.0082305
        k(  109) = (   0.1111111   0.2777778   0.2777778), wk =   0.0082305
        k(  110) = (   0.1111111   0.2777778  -0.2777778), wk =   0.0082305
        k(  111) = (   0.1111111   0.2777778  -0.2222222), wk =   0.0164609
        k(  112) = (   0.1111111   0.3333333  -0.3333333), wk =   0.0082305
        k(  113) = (   0.1111111   0.3333333  -0.2777778), wk =   0.0164609
        k(  114) = (   0.1111111   0.3333333  -0.2222222), wk =   0.0082305
        k(  115) = (   0.1111111   0.3888889  -0.3888889), wk =   0.0082305
        k(  116) = (   0.1111111   0.3888889  -0.3333333), wk =   0.0164609
        k(  117) = (   0.1111111   0.3888889  -0.2777778), wk =   0.0164609
        k(  118) = (   0.1111111   0.4444444  -0.4444444), wk =   0.0082305
        k(  119) = (   0.1111111   0.4444444  -0.3888889), wk =   0.0164609
        k(  120) = (   0.1111111   0.4444444  -0.3333333), wk =   0.0164609
        k(  121) = (   0.1111111   0.4444444  -0.2777778), wk =   0.0082305
        k(  122) = (   0.1111111  -0.5000000  -0.5000000), wk =   0.0041152
        k(  123) = (   0.1111111  -0.5000000  -0.4444444), wk =   0.0164609
        k(  124) = (   0.1111111  -0.5000000  -0.3888889), wk =   0.0164609
        k(  125) = (   0.1111111  -0.5000000  -0.3333333), wk =   0.0164609
        k(  126) = (   0.1111111  -0.4444444  -0.4444444), wk =   0.0082305
        k(  127) = (   0.1111111  -0.4444444  -0.3888889), wk =   0.0164609
        k(  128) = (   0.1111111  -0.4444444  -0.3333333), wk =   0.0082305
        k(  129) = (   0.1111111  -0.3888889  -0.3888889), wk =   0.0082305
        k(  130) = (   0.1666667   0.1666667   0.1666667), wk =   0.0027435
        k(  131) = (   0.1666667   0.1666667   0.2222222), wk =   0.0082305
        k(  132) = (   0.1666667   0.1666667   0.2777778), wk =   0.0082305
        k(  133) = (   0.1666667   0.1666667   0.3333333), wk =   0.0041152
        k(  134) = (   0.1666667   0.1666667  -0.1666667), wk =   0.0020576
        k(  135) = (   0.1666667   0.2222222   0.2222222), wk =   0.0082305
        k(  136) = (   0.1666667   0.2222222   0.2777778), wk =   0.0164609
        k(  137) = (   0.1666667   0.2222222  -0.2222222), wk =   0.0082305
        k(  138) = (   0.1666667   0.2777778   0.2777778), wk =   0.0027435
        k(  139) = (   0.1666667   0.2777778  -0.2777778), wk =   0.0082305
        k(  140) = (   0.1666667   0.2777778  -0.2222222), wk =   0.0082305
        k(  141) = (   0.1666667   0.3333333  -0.3333333), wk =   0.0082305
        k(  142) = (   0.1666667   0.3333333  -0.2777778), wk =   0.0164609
        k(  143) = (   0.1666667   0.3888889  -0.3888889), wk =   0.0082305
        k(  144) = (   0.1666667   0.3888889  -0.3333333), wk =   0.0164609
        k(  145) = (   0.1666667   0.3888889  -0.2777778), wk =   0.0082305
        k(  146) = (   0.1666667   0.4444444  -0.4444444), wk =   0.0082305
        k(  147) = (   0.1666667   0.4444444  -0.3888889), wk =   0.0164609
        k(  148) = (   0.1666667   0.4444444  -0.3333333), wk =   0.0164609
        k(  149) = (   0.1666667  -0.5000000  -0.5000000), wk =   0.0041152
        k(  150) = (   0.1666667  -0.5000000  -0.4444444), wk =   0.0164609
        k(  151) = (   0.1666667  -0.5000000  -0.3888889), wk =   0.0164609
        k(  152) = (   0.1666667  -0.5000000  -0.3333333), wk =   0.0082305
        k(  153) = (   0.1666667  -0.4444444  -0.4444444), wk =   0.0082305
        k(  154) = (   0.1666667  -0.4444444  -0.3888889), wk =   0.0164609
        k(  155) = (   0.1666667  -0.3888889  -0.3888889), wk =   0.0027435
        k(  156) = (   0.2222222   0.2222222   0.2222222), wk =   0.0027435
        k(  157) = (   0.2222222   0.2222222   0.2777778), wk =   0.0041152
        k(  158) = (   0.2222222   0.2222222  -0.2222222), wk =   0.0020576
        k(  159) = (   0.2222222   0.2777778  -0.2777778), wk =   0.0082305
        k(  160) = (   0.2222222   0.3333333  -0.3333333), wk =   0.0082305
        k(  161) = (   0.2222222   0.3333333  -0.2777778), wk =   0.0082305
        k(  162) = (   0.2222222   0.3888889  -0.3888889), wk =   0.0082305
        k(  163) = (   0.2222222   0.3888889  -0.3333333), wk =   0.0164609
        k(  164) = (   0.2222222   0.4444444  -0.4444444), wk =   0.0082305
        k(  165) = (   0.2222222   0.4444444  -0.3888889), wk =   0.0164609
        k(  166) = (   0.2222222   0.4444444  -0.3333333), wk =   0.0082305
        k(  167) = (   0.2222222  -0.5000000  -0.5000000), wk =   0.0041152
        k(  168) = (   0.2222222  -0.5000000  -0.4444444), wk =   0.0164609
        k(  169) = (   0.2222222  -0.5000000  -0.3888889), wk =   0.0164609
        k(  170) = (   0.2222222  -0.4444444  -0.4444444), wk =   0.0082305
        k(  171) = (   0.2222222  -0.4444444  -0.3888889), wk =   0.0082305
        k(  172) = (   0.2777778   0.2777778  -0.2777778), wk =   0.0020576
        k(  173) = (   0.2777778   0.3333333  -0.3333333), wk =   0.0082305
        k(  174) = (   0.2777778   0.3888889  -0.3888889), wk =   0.0082305
        k(  175) = (   0.2777778   0.3888889  -0.3333333), wk =   0.0082305
        k(  176) = (   0.2777778   0.4444444  -0.4444444), wk =   0.0082305
        k(  177) = (   0.2777778   0.4444444  -0.3888889), wk =   0.0164609
        k(  178) = (   0.2777778  -0.5000000  -0.5000000), wk =   0.0041152
        k(  179) = (   0.2777778  -0.5000000  -0.4444444), wk =   0.0164609
        k(  180) = (   0.2777778  -0.5000000  -0.3888889), wk =   0.0082305
        k(  181) = (   0.2777778  -0.4444444  -0.4444444), wk =   0.0082305
        k(  182) = (   0.3333333   0.3333333  -0.3333333), wk =   0.0020576
        k(  183) = (   0.3333333   0.3888889  -0.3888889), wk =   0.0082305
        k(  184) = (   0.3333333   0.4444444  -0.4444444), wk =   0.0082305
        k(  185) = (   0.3333333   0.4444444  -0.3888889), wk =   0.0082305
        k(  186) = (   0.3333333  -0.5000000  -0.5000000), wk =   0.0041152
        k(  187) = (   0.3333333  -0.5000000  -0.4444444), wk =   0.0164609
        k(  188) = (   0.3333333  -0.4444444  -0.4444444), wk =   0.0027435
        k(  189) = (   0.3888889   0.3888889  -0.3888889), wk =   0.0020576
        k(  190) = (   0.3888889   0.4444444  -0.4444444), wk =   0.0082305
        k(  191) = (   0.3888889  -0.5000000  -0.5000000), wk =   0.0041152
        k(  192) = (   0.3888889  -0.5000000  -0.4444444), wk =   0.0082305
        k(  193) = (   0.4444444   0.4444444  -0.4444444), wk =   0.0020576
        k(  194) = (   0.4444444  -0.5000000  -0.5000000), wk =   0.0041152
        k(  195) = (  -0.5000000  -0.5000000  -0.5000000), wk =   0.0003429

     Dense  grid:     1409 G-vectors     FFT dimensions: (  15,  15,  15)

     Dynamical RAM for                 wfc:       0.01 MB

     Dynamical RAM for     wfc (w. buffer):       1.53 MB

     Dynamical RAM for           str. fact:       0.01 MB

     Dynamical RAM for           local pot:       0.00 MB

     Dynamical RAM for          nlocal pot:       0.01 MB

     Dynamical RAM for                qrad:       0.17 MB

     Dynamical RAM for          rho,v,vnew:       0.07 MB

     Dynamical RAM for               rhoin:       0.02 MB

     Dynamical RAM for            rho*nmix:       0.17 MB

     Dynamical RAM for           G-vectors:       0.05 MB

     Dynamical RAM for          h,s,v(r/c):       0.03 MB

     Dynamical RAM for          <psi|beta>:       0.00 MB

     Dynamical RAM for                 psi:       0.03 MB

     Dynamical RAM for                hpsi:       0.03 MB

     Dynamical RAM for                spsi:       0.03 MB

     Dynamical RAM for      wfcinit/wfcrot:       0.02 MB

     Dynamical RAM for           addusdens:       0.66 MB

     Estimated static dynamical RAM per process >       2.13 MB

     Estimated max dynamical RAM per process >       2.78 MB

     Estimated total dynamical RAM >       5.56 MB

     Check: negative/imaginary core charge=   -0.000006    0.000000

     Initial potential from superposition of free atoms

     starting charge    2.99753, renormalised to    3.00000
     Starting wfc are    4 randomized atomic wfcs +    2 random wfc

     total cpu time spent up to now is        0.5 secs

     Self-consistent Calculation

     iteration #  1     ecut=    20.00 Ry     beta= 0.70
     Davidson diagonalization with overlap
     ethr =  1.00E-02,  avg # of iterations =  4.6

     Threshold (ethr) on eigenvalues was too large:
     Diagonalizing with lowered threshold

     Davidson diagonalization with overlap
     ethr =  1.90E-04,  avg # of iterations =  1.4

     total cpu time spent up to now is        2.9 secs

     total energy              =      -6.70061601 Ry
     Harris-Foulkes estimate   =      -6.70266930 Ry
     estimated scf accuracy    <       0.00568979 Ry

     iteration #  2     ecut=    20.00 Ry     beta= 0.70
     Davidson diagonalization with overlap
     ethr =  1.90E-04,  avg # of iterations =  1.0

     total cpu time spent up to now is        3.4 secs

     total energy              =      -6.70065261 Ry
     Harris-Foulkes estimate   =      -6.70075777 Ry
     estimated scf accuracy    <       0.00030351 Ry

     iteration #  3     ecut=    20.00 Ry     beta= 0.70
     Davidson diagonalization with overlap
     ethr =  1.01E-05,  avg # of iterations =  1.6

     total cpu time spent up to now is        4.3 secs

     End of self-consistent calculation

          k = 0.0000 0.0000 0.0000 (   177 PWs)   bands (ev):

    -3.2984  20.9712  20.9713  22.0521  22.0521  22.0521

     occupation numbers 
     1.0000   0.0000   0.0000   0.0000   0.0000   0.0000

          k = 0.0000 0.0481-0.0481 (   177 PWs)   bands (ev):

    -3.2102  19.7485  20.1988  20.6067  21.7409  22.6105

     occupation numbers 
     1.0000   0.0000   0.0000   0.0000   0.0000   0.0000

          k = 0.0000 0.0962-0.0962 (   174 PWs)   bands (ev):

    -2.9457  17.6456  19.1927  19.8011  21.0192  22.1751

     occupation numbers 
     1.0000   0.0000   0.0000   0.0000   0.0000   0.0000

          k = 0.0000 0.1443-0.1443 (   170 PWs)   bands (ev):

    -2.5059  15.3764  18.2961  18.9056  20.2041  21.4112

     occupation numbers 
     1.0000   0.0000   0.0000   0.0000   0.0000   0.0000

          k = 0.0000 0.1925-0.1925 (   168 PWs)   bands (ev):

    -1.8922  13.1360  17.5325  18.0733  19.4448  20.7300

     occupation numbers 
     1.0000   0.0000   0.0000   0.0000   0.0000   0.0000

          k = 0.0000 0.2406-0.2406 (   168 PWs)   bands (ev):

    -1.1066  10.9894  16.9064  17.3616  18.7975  20.1379

     occupation numbers 
     1.0000   0.0000   0.0000   0.0000   0.0000   0.0000

          k = 0.0000 0.2887-0.2887 (   168 PWs)   bands (ev):

    -0.1515   8.9636  16.4196  16.7951  18.2838  19.6535

     occupation numbers 
     1.0000   0.0000   0.0000   0.0000   0.0000   0.0000

          k = 0.0000 0.3368-0.3368 (   178 PWs)   bands (ev):

     0.9690   7.0723  16.0717  16.3846  17.9123  19.2942

     occupation numbers 
     1.0000   1.0000   0.0000   0.0000   0.0000   0.0000

          k = 0.0000 0.3849-0.3849 (   174 PWs)   bands (ev):

     2.2477   5.3303  15.8634  16.1369  17.6883  19.0745

     occupation numbers 
     1.0000   1.0000   0.0000   0.0000   0.0000   0.0000

          k = 0.0000-0.4330 0.4330 (   178 PWs)   bands (ev):

     3.4816   3.9414  15.7938  16.0540  17.6134  18.9998

     occupation numbers 
     1.0000   1.0000   0.0000   0.0000   0.0000   0.0000

          k = 0.0481 0.0481-0.0962 (   170 PWs)   bands (ev):

    -3.0337  18.7267  18.7556  19.9245  21.7260  22.4949

     occupation numbers 
     1.0000   0.0000   0.0000   0.0000   0.0000   0.0000

          k = 0.0481 0.0962-0.1443 (   170 PWs)   bands (ev):

    -2.6817  16.5570  17.7559  19.0475  21.2057  22.0583

     occupation numbers 
     1.0000   0.0000   0.0000   0.0000   0.0000   0.0000

          k = 0.0481 0.1443-0.1925 (   170 PWs)   bands (ev):

    -2.1550  14.2991  16.8795  18.2090  20.4378  21.6478

     occupation numbers 
     1.0000   0.0000   0.0000   0.0000   0.0000   0.0000

          k = 0.0481 0.1925-0.2406 (   170 PWs)   bands (ev):

    -1.4554  12.1051  16.1330  17.4813  19.7309  21.1497

     occupation numbers 
     1.0000   0.0000   0.0000   0.0000   0.0000   0.0000

          k = 0.0481 0.2406-0.2887 (   173 PWs)   bands (ev):

    -0.5849  10.0190  15.5270  16.8890  19.1414  20.6764

     occupation numbers 
     1.0000   0.0000   0.0000   0.0000   0.0000   0.0000

          k = 0.0481 0.2887-0.3368 (   172 PWs)   bands (ev):

     0.4531   8.0610  15.0682  16.4410  18.6897  20.2899

     occupation numbers 
     1.0000   0.0003   0.0000   0.0000   0.0000   0.0000

          k = 0.0481 0.3368-0.3849 (   174 PWs)   bands (ev):

     1.6537   6.2437  14.7601  16.1412  18.3847  20.0202

     occupation numbers 
     1.0000   1.0000   0.0000   0.0000   0.0000   0.0000

          k = 0.0481 0.3849-0.4330 (   170 PWs)   bands (ev):

     2.9981   4.5907  14.6055  15.9913  18.2313  19.8827

     occupation numbers 
     1.0000   1.0000   0.0000   0.0000   0.0000   0.0000

          k = 0.0962 0.0962-0.1925 (   174 PWs)   bands (ev):

    -2.2428  15.4516  15.7095  18.2286  21.4843  21.5895

     occupation numbers 
     1.0000   0.0000   0.0000   0.0000   0.0000   0.0000

          k = 0.0962 0.1443-0.2406 (   170 PWs)   bands (ev):

    -1.6299  13.3441  14.7610  17.4687  20.8492  21.8618

     occupation numbers 
     1.0000   0.0000   0.0000   0.0000   0.0000   0.0000

          k = 0.0962 0.1925-0.2887 (   169 PWs)   bands (ev):

    -0.8454  11.2172  14.0554  16.8202  20.2208  22.0737

     occupation numbers 
     1.0000   0.0000   0.0000   0.0000   0.0000   0.0000

          k = 0.0962 0.2406-0.3368 (   172 PWs)   bands (ev):

     0.1080   9.2014  13.5044  16.3051  19.7096  22.0249

     occupation numbers 
     1.0000   0.0000   0.0000   0.0000   0.0000   0.0000

          k = 0.0962 0.2887-0.3849 (   170 PWs)   bands (ev):

     1.2268   7.3175  13.1092  15.9331  19.3361  21.8535

     occupation numbers 
     1.0000   1.0002   0.0000   0.0000   0.0000   0.0000

          k = 0.0962 0.3368-0.4330 (   171 PWs)   bands (ev):

     2.5027   5.5803  12.8713  15.7084  19.1090  21.7122

     occupation numbers 
     1.0000   1.0000   0.0000   0.0000   0.0000   0.0000

          k = 0.0962 0.3849-0.4811 (   170 PWs)   bands (ev):

     3.7303   4.1987  12.7919  15.6333  19.0329  21.6605

     occupation numbers 
     1.0000   1.0000   0.0000   0.0000   0.0000   0.0000

          k = 0.1443 0.1443-0.2887 (   171 PWs)   bands (ev):

    -0.9325  12.3482  12.8128  16.7824  21.2998  21.4670

     occupation numbers 
     1.0000   0.0000   0.0000   0.0000   0.0000   0.0000

          k = 0.1443 0.1925-0.3368 (   171 PWs)   bands (ev):

    -0.0649  10.4658  11.9921  16.2064  20.8500  22.0411

     occupation numbers 
     1.0000   0.0000   0.0000   0.0000   0.0000   0.0000

          k = 0.1443 0.2406-0.3849 (   172 PWs)   bands (ev):

     0.9695   8.5379  11.4941  15.7639  20.4296  22.7120

     occupation numbers 
     1.0000   0.0000   0.0000   0.0000   0.0000   0.0000

          k = 0.1443 0.2887-0.4330 (   171 PWs)   bands (ev):

     2.1656   6.7356  11.1670  15.4651  20.1396  23.2237

     occupation numbers 
     1.0000   1.0000   0.0000   0.0000   0.0000   0.0000

          k = 0.1443 0.3368-0.4811 (   169 PWs)   bands (ev):

     3.5032   5.0933  11.0039  15.3148  19.9924  23.4292

     occupation numbers 
     1.0000   1.0000   0.0000   0.0000   0.0000   0.0000

          k = 0.1925 0.1925-0.3849 (   172 PWs)   bands (ev):

     0.8836   9.6632  10.2325  15.7029  21.5180  21.7798

     occupation numbers 
     1.0000   0.0000   0.0000   0.0000   0.0000   0.0000

          k = 0.1925 0.2406-0.4330 (   171 PWs)   bands (ev):

     1.9961   8.0180   9.6016  15.3337  21.3064  22.5775

     occupation numbers 
     1.0000   0.0015   0.0000   0.0000   0.0000   0.0000

          k = 0.1925 0.2887-0.4811 (   170 PWs)   bands (ev):

     3.2638   6.3167   9.3334  15.1094  21.1051  23.5609

     occupation numbers 
     1.0000   1.0000   0.0000   0.0000   0.0000   0.0000

          k = 0.1925 0.3368-0.5292 (   166 PWs)   bands (ev):

     4.4758   4.9567   9.2473  15.0344  21.0362  24.3117

     occupation numbers 
     1.0000   1.0000   0.0000   0.0000   0.0000   0.0000

          k = 0.2406 0.2406-0.4811 (   169 PWs)   bands (ev):

     3.1817   7.4471   8.0548  15.0392  22.2250  22.4684

     occupation numbers 
     1.0000   1.0107   0.0004   0.0000   0.0000   0.0000

          k = 0.2406 0.2887-0.5292 (   165 PWs)   bands (ev):

     4.5037   6.0543   7.6577  14.8902  22.2143  23.4995

     occupation numbers 
     1.0000   1.0000   1.0082   0.0000   0.0000   0.0000

          k = 0.2887 0.2887-0.5774 (   167 PWs)   bands (ev):

     5.7156   5.7156   6.5503  14.8162  23.4070  23.5331

     occupation numbers 
     1.0000   1.0000   1.0000   0.0000   0.0000   0.0000

          k = 0.0962 0.0962-0.0962 (   171 PWs)   bands (ev):

    -2.7695  17.7872  17.7872  17.8115  22.7952  22.7952

     occupation numbers 
     1.0000   0.0000   0.0000   0.0000   0.0000   0.0000

          k = 0.0962 0.1443-0.1443 (   169 PWs)   bands (ev):

    -2.3303  15.5218  16.8239  16.9239  22.3139  22.8527

     occupation numbers 
     1.0000   0.0000   0.0000   0.0000   0.0000   0.0000

          k = 0.0962 0.1925-0.1925 (   167 PWs)   bands (ev):

    -1.7173  13.2865  15.9693  16.1500  21.7100  22.2483

     occupation numbers 
     1.0000   0.0000   0.0000   0.0000   0.0000   0.0000

          k = 0.0962 0.2406-0.2406 (   172 PWs)   bands (ev):

    -0.9325  11.1451  15.2543  15.5039  21.1274  21.7106

     occupation numbers 
     1.0000   0.0000   0.0000   0.0000   0.0000   0.0000

          k = 0.0962 0.2887-0.2887 (   171 PWs)   bands (ev):

     0.0216   9.1236  14.6919  14.9954  20.6397  21.2669

     occupation numbers 
     1.0000   0.0000   0.0000   0.0000   0.0000   0.0000

          k = 0.0962 0.3368-0.3368 (   172 PWs)   bands (ev):

     1.1409   7.2364  14.2872  14.6294  20.2784  20.9370

     occupation numbers 
     1.0000   1.0000   0.0000   0.0000   0.0000   0.0000

          k = 0.0962 0.3849-0.3849 (   174 PWs)   bands (ev):

     2.4177   5.4972  14.0435  14.4085  20.0577  20.7345

     occupation numbers 
     1.0000   1.0000   0.0000   0.0000   0.0000   0.0000

          k = 0.0962 0.4330-0.4330 (   170 PWs)   bands (ev):

     3.6476   4.1132  13.9622  14.3349  19.9836  20.6666

     occupation numbers 
     1.0000   1.0000   0.0000   0.0000   0.0000   0.0000

          k = 0.0962-0.0000 0.0000 (   173 PWs)   bands (ev):

    -3.1219  19.2859  19.2859  21.0969  21.1424  21.9240

     occupation numbers 
     1.0000   0.0000   0.0000   0.0000   0.0000   0.0000

          k = 0.1443 0.1443-0.1925 (   170 PWs)   bands (ev):

    -1.8048  14.4499  14.7722  16.0387  22.8391  23.1434

     occupation numbers 
     1.0000   0.0000   0.0000   0.0000   0.0000   0.0000

          k = 0.1443 0.1925-0.2406 (   172 PWs)   bands (ev):

    -1.1066  12.3982  13.8630  15.3015  22.4691  23.1784

     occupation numbers 
     1.0000   0.0000   0.0000   0.0000   0.0000   0.0000

          k = 0.1443 0.2406-0.2887 (   172 PWs)   bands (ev):

    -0.2381  10.3308  13.2226  14.6998  21.9711  23.0267

     occupation numbers 
     1.0000   0.0000   0.0000   0.0000   0.0000   0.0000

          k = 0.1443 0.2887-0.3368 (   172 PWs)   bands (ev):

     0.7976   8.3832  12.7423  14.2432  21.5657  22.7775

     occupation numbers 
     1.0000   0.0000   0.0000   0.0000   0.0000   0.0000

          k = 0.1443 0.3368-0.3849 (   171 PWs)   bands (ev):

     1.9953   6.5735  12.4212  13.9366  21.2857  22.5707

     occupation numbers 
     1.0000   1.0000   0.0000   0.0000   0.0000   0.0000

          k = 0.1443 0.3849-0.4330 (   167 PWs)   bands (ev):

     3.3353   4.9268  12.2605  13.7829  21.1436  22.4589

     occupation numbers 
     1.0000   1.0000   0.0000   0.0000   0.0000   0.0000

          k = 0.1443-0.0481 0.0000 (   171 PWs)   bands (ev):

    -2.8576  17.6059  18.2351  20.4126  20.7926  21.1006

     occupation numbers 
     1.0000   0.0000   0.0000   0.0000   0.0000   0.0000

          k = 0.1925 0.1925-0.2887 (   170 PWs)   bands (ev):

    -0.3246  11.4639  11.9638  14.6302  23.0642  23.1423

     occupation numbers 
     1.0000   0.0000   0.0000   0.0000   0.0000   0.0000

          k = 0.1925 0.2406-0.3368 (   171 PWs)   bands (ev):

     0.6256   9.6553  11.2042  14.0976  22.7226  23.7211

     occupation numbers 
     1.0000   0.0000   0.0000   0.0000   0.0000   0.0000

          k = 0.1925 0.2887-0.3849 (   171 PWs)   bands (ev):

     1.7403   7.7994  10.7810  13.7126  22.4039  24.1700

     occupation numbers 
     1.0000   0.3359   0.0000   0.0000   0.0000   0.0000

          k = 0.1925 0.3368-0.4330 (   170 PWs)   bands (ev):

     3.0108   6.0758  10.5323  13.4801  22.2030  24.3380

     occupation numbers 
     1.0000   1.0000   0.0000   0.0000   0.0000   0.0000

          k = 0.1925 0.3849-0.4811 (   164 PWs)   bands (ev):

     4.2275   4.7077  10.4499  13.4027  22.1349  24.3657

     occupation numbers 
     1.0000   1.0000   0.0000   0.0000   0.0000   0.0000

          k = 0.1925-0.0962 0.0000 (   173 PWs)   bands (ev):

    -2.4182  15.4201  17.2899  19.5346  20.0293  21.0331

     occupation numbers 
     1.0000   0.0000   0.0000   0.0000   0.0000   0.0000

          k = 0.1925-0.0481-0.0481 (   171 PWs)   bands (ev):

    -2.5059  16.5032  16.6301  19.8643  20.1561  20.7306

     occupation numbers 
     1.0000   0.0000   0.0000   0.0000   0.0000   0.0000

          k = 0.2406 0.2406-0.3849 (   171 PWs)   bands (ev):

     1.6550   8.9285   9.5107  13.6379  23.5646  23.5773

     occupation numbers 
     1.0000   0.0000   0.0000   0.0000   0.0000   0.0000

          k = 0.2406 0.2887-0.4330 (   167 PWs)   bands (ev):

     2.8448   7.3614   8.9546  13.3283  23.3593  24.4883

     occupation numbers 
     1.0000   1.0009   0.0000   0.0000   0.0000   0.0000

          k = 0.2406 0.3368-0.4811 (   166 PWs)   bands (ev):

     4.1728   5.7510   8.7683  13.1726  23.2394  25.3284

     occupation numbers 
     1.0000   1.0000   0.0000   0.0000   0.0000   0.0000

          k = 0.2406-0.1443 0.0000 (   166 PWs)   bands (ev):

    -1.8047  13.2022  16.4766  18.7279  19.2705  20.9649

     occupation numbers 
     1.0000   0.0000   0.0000   0.0000   0.0000   0.0000

          k = 0.2406-0.0962-0.0481 (   170 PWs)   bands (ev):

    -1.9798  14.4053  15.6707  19.0922  19.8032  20.5589

     occupation numbers 
     1.0000   0.0000   0.0000   0.0000   0.0000   0.0000

          k = 0.2887 0.2887-0.4811 (   167 PWs)   bands (ev):

     4.1002   6.8715   7.4882  13.0954  24.4116  24.4353

     occupation numbers 
     1.0000   1.0000   1.0263   0.0000   0.0000   0.0000

          k = 0.2887 0.3368-0.5292 (   165 PWs)   bands (ev):

     5.3029   5.7308   7.1921  13.0177  24.3828  25.4248

     occupation numbers 
     1.0000   1.0000   1.0000   0.0000   0.0000   0.0000

          k = 0.2887-0.1925 0.0000 (   167 PWs)   bands (ev):

    -1.0194  11.0641  15.8035  18.0505  18.6139  20.7082

     occupation numbers 
     1.0000   0.0000   0.0000   0.0000   0.0000   0.0000

          k = 0.2887-0.1443-0.0481 (   168 PWs)   bands (ev):

    -1.2808  12.2446  14.9040  18.3600  19.2217  20.8427

     occupation numbers 
     1.0000   0.0000   0.0000   0.0000   0.0000   0.0000

          k = 0.2887-0.0962-0.0962 (   169 PWs)   bands (ev):

    -1.3681  13.3710  13.7489  18.7621  19.5461  20.1992

     occupation numbers 
     1.0000   0.0000   0.0000   0.0000   0.0000   0.0000

          k = 0.3368-0.2406 0.0000 (   171 PWs)   bands (ev):

    -0.0650   9.0423  15.2762  17.5152  18.0910  20.3782

     occupation numbers 
     1.0000   0.0000   0.0000   0.0000   0.0000   0.0000

          k = 0.3368-0.1925-0.0481 (   170 PWs)   bands (ev):

    -0.4113  10.1721  14.2865  17.7655  18.6639  21.1405

     occupation numbers 
     1.0000   0.0000   0.0000   0.0000   0.0000   0.0000

          k = 0.3368-0.1443-0.0962 (   172 PWs)   bands (ev):

    -0.5849  11.4225  12.8899  18.1947  19.2018  20.4588

     occupation numbers 
     1.0000   0.0000   0.0000   0.0000   0.0000   0.0000

          k = 0.3849-0.2887-0.0000 (   174 PWs)   bands (ev):

     1.0550   7.1540  14.8976  17.1293  17.7137  20.0938

     occupation numbers 
     1.0000   1.0000   0.0000   0.0000   0.0000   0.0000

          k = 0.3849-0.2406-0.0481 (   172 PWs)   bands (ev):

     0.6254   8.2211  13.8206  17.3161  18.2209  21.2178

     occupation numbers 
     1.0000   0.0000   0.0000   0.0000   0.0000   0.0000

          k = 0.3849-0.1925-0.0962 (   172 PWs)   bands (ev):

     0.3670   9.4318  12.3230  17.7075  18.7418  21.1087

     occupation numbers 
     1.0000   0.0000   0.0000   0.0000   0.0000   0.0000

          k = 0.3849-0.1443-0.1443 (   172 PWs)   bands (ev):

     0.2807  10.5548  11.0842  17.7583  19.5607  20.1774

     occupation numbers 
     1.0000   0.0000   0.0000   0.0000   0.0000   0.0000

          k = 0.4330-0.3368 0.0000 (   172 PWs)   bands (ev):

     2.3328   5.4138  14.6698  16.8963  17.4861  19.9088

     occupation numbers 
     1.0000   1.0000   0.0000   0.0000   0.0000   0.0000

          k = 0.4330-0.2887-0.0481 (   172 PWs)   bands (ev):

     1.8247   6.4083  13.5090  17.0153  17.9184  21.1461

     occupation numbers 
     1.0000   1.0000   0.0000   0.0000   0.0000   0.0000

          k = 0.4330-0.2406-0.0962 (   171 PWs)   bands (ev):

     1.4837   7.5589  11.9211  17.3511  18.3779  21.8381

     occupation numbers 
     1.0000   1.0713   0.0000   0.0000   0.0000   0.0000

          k = 0.4330-0.1925-0.1443 (   172 PWs)   bands (ev):

     1.3126   8.8335  10.3913  17.3610  19.3788  20.7665

     occupation numbers 
     1.0000   0.0000   0.0000   0.0000   0.0000   0.0000

          k =-0.3849-0.3849 0.8660 (   176 PWs)   bands (ev):

     3.5645   4.0273  14.5933  16.8183  17.4100  19.8447

     occupation numbers 
     1.0000   1.0000   0.0000   0.0000   0.0000   0.0000

          k =-0.3849-0.3368 0.8179 (   171 PWs)   bands (ev):

     3.1667   4.7586  13.3529  16.8644  17.7650  21.0783

     occupation numbers 
     1.0000   1.0000   0.0000   0.0000   0.0000   0.0000

          k =-0.3849-0.2887 0.7698 (   168 PWs)   bands (ev):

     2.7571   5.8284  11.6802  17.1354  18.1515  22.4120

     occupation numbers 
     1.0000   1.0000   0.0000   0.0000   0.0000   0.0000

          k =-0.3849-0.2406 0.7217 (   170 PWs)   bands (ev):

     2.5056   7.0562  10.0457  17.0825  19.1167  21.7134

     occupation numbers 
     1.0000   1.0000   0.0000   0.0000   0.0000   0.0000

          k =-0.3849-0.1925 0.6736 (   173 PWs)   bands (ev):

     2.4212   8.1846   8.7774  17.0410  20.0967  20.6442

     occupation numbers 
     1.0000   0.0000   0.0000   0.0000   0.0000   0.0000

          k =-0.3368-0.3368 0.7698 (   170 PWs)   bands (ev):

     3.9788   4.4537  11.5997  17.0631  18.0749  22.6071

     occupation numbers 
     1.0000   1.0000   0.0000   0.0000   0.0000   0.0000

          k =-0.3368-0.2887 0.7217 (   169 PWs)   bands (ev):

     3.8385   5.4244   9.8778  16.9407  18.9749  22.7680

     occupation numbers 
     1.0000   1.0000   0.0000   0.0000   0.0000   0.0000

          k =-0.3368-0.2406 0.6736 (   168 PWs)   bands (ev):

     3.6837   6.7021   8.2998  16.8365  20.1107  21.5079

     occupation numbers 
     1.0000   1.0000   0.0000   0.0000   0.0000   0.0000

          k =-0.2887-0.2887 0.6736 (   165 PWs)   bands (ev):

     4.8893   5.3636   8.1995  16.7671  20.0576  22.7500

     occupation numbers 
     1.0000   1.0000   0.0000   0.0000   0.0000   0.0000

          k =-0.2887-0.2406 0.6255 (   167 PWs)   bands (ev):

     4.9903   6.2927   6.9379  16.7042  21.1295  21.5101

     occupation numbers 
     1.0000   1.0000   1.0000   0.0000   0.0000   0.0000

          k = 0.1925 0.1925-0.1925 (   171 PWs)   bands (ev):

    -1.1937  13.5764  13.5764  14.2203  24.1840  24.1840

     occupation numbers 
     1.0000   0.0000   0.0000   0.0000   0.0000   0.0000

          k = 0.1925 0.2406-0.2406 (   171 PWs)   bands (ev):

    -0.4114  11.5832  12.8518  13.4144  23.9946  24.2247

     occupation numbers 
     1.0000   0.0000   0.0000   0.0000   0.0000   0.0000

          k = 0.1925 0.2887-0.2887 (   170 PWs)   bands (ev):

     0.5395   9.5935  12.2841  12.8620  23.6957  23.9198

     occupation numbers 
     1.0000   0.0000   0.0000   0.0000   0.0000   0.0000

          k = 0.1925 0.3368-0.3368 (   171 PWs)   bands (ev):

     1.6548   7.7228  11.8769  12.4707  23.4244  23.6665

     occupation numbers 
     1.0000   0.7423   0.0000   0.0000   0.0000   0.0000

          k = 0.1925 0.3849-0.3849 (   171 PWs)   bands (ev):

     2.9264   5.9945  11.6319  12.2355  23.2445  23.5035

     occupation numbers 
     1.0000   1.0000   0.0000   0.0000   0.0000   0.0000

          k = 0.1925 0.4330-0.4330 (   166 PWs)   bands (ev):

     4.1447   4.6238  11.5502  12.1575  23.1823  23.4480

     occupation numbers 
     1.0000   1.0000   0.0000   0.0000   0.0000   0.0000

          k = 0.1925-0.0000 0.0000 (   173 PWs)   bands (ev):

    -2.5939  17.1398  17.1398  19.3850  19.4976  21.6556

     occupation numbers 
     1.0000   0.0000   0.0000   0.0000   0.0000   0.0000

          k = 0.2406 0.2406-0.2887 (   172 PWs)   bands (ev):

     0.4532  10.7329  11.1950  12.5979  24.7083  24.9192

     occupation numbers 
     1.0000   0.0000   0.0000   0.0000   0.0000   0.0000

          k = 0.2406 0.2887-0.3368 (   170 PWs)   bands (ev):

     1.4841   8.9978  10.5293  12.1047  24.6325  25.2396

     occupation numbers 
     1.0000   0.0000   0.0000   0.0000   0.0000   0.0000

          k = 0.2406 0.3368-0.3849 (   170 PWs)   bands (ev):

     2.6755   7.2210  10.1876  11.7815  24.4431  25.3525

     occupation numbers 
     1.0000   1.0000   0.0000   0.0000   0.0000   0.0000

          k = 0.2406 0.3849-0.4330 (   167 PWs)   bands (ev):

     4.0063   5.5915  10.0204  11.6205  24.3355  25.3561

     occupation numbers 
     1.0000   1.0000   0.0000   0.0000   0.0000   0.0000

          k = 0.2406-0.0481 0.0000 (   172 PWs)   bands (ev):

    -2.1551  15.4963  16.1680  18.4464  19.1352  21.4491

     occupation numbers 
     1.0000   0.0000   0.0000   0.0000   0.0000   0.0000

          k = 0.2887 0.2887-0.3849 (   167 PWs)   bands (ev):

     2.5916   8.3549   8.9246  11.6856  25.4287  25.5977

     occupation numbers 
     1.0000   0.0000   0.0000   0.0000   0.0000   0.0000

          k = 0.2887 0.3368-0.4330 (   166 PWs)   bands (ev):

     3.8522   6.8677   8.4561  11.4401  25.4366  26.3342

     occupation numbers 
     1.0000   1.0000   0.0000   0.0000   0.0000   0.0000

          k = 0.2887 0.3849-0.4811 (   164 PWs)   bands (ev):

     5.0552   5.5312   8.3570  11.3588  25.4015  26.7471

     occupation numbers 
     1.0000   1.0000   0.0000   0.0000   0.0000   0.0000

          k = 0.2887-0.0962 0.0000 (   167 PWs)   bands (ev):

    -1.5425  13.3887  15.3372  17.6344  19.4272  20.8213

     occupation numbers 
     1.0000   0.0000   0.0000   0.0000   0.0000   0.0000

          k = 0.2887-0.0481-0.0481 (   169 PWs)   bands (ev):

    -1.6299  14.4693  14.6777  17.9962  18.4282  21.3584

     occupation numbers 
     1.0000   0.0000   0.0000   0.0000   0.0000   0.0000

          k = 0.3368 0.3368-0.4811 (   167 PWs)   bands (ev):

     5.1570   6.4595   7.0974  11.2746  26.3477  26.6220

     occupation numbers 
     1.0000   1.0000   1.0000   0.0000   0.0000   0.0000

          k = 0.3368-0.1443 0.0000 (   169 PWs)   bands (ev):

    -0.7586  11.2844  14.6526  16.9448  19.9278  20.2095

     occupation numbers 
     1.0000   0.0000   0.0000   0.0000   0.0000   0.0000

          k = 0.3368-0.0962-0.0481 (   169 PWs)   bands (ev):

    -0.9325  12.5043  13.8196  17.4162  18.6503  20.8489

     occupation numbers 
     1.0000   0.0000   0.0000   0.0000   0.0000   0.0000

          k = 0.3849-0.1925 0.0000 (   173 PWs)   bands (ev):

     0.1943   9.2774  14.1178  16.3978  19.7068  20.4594

     occupation numbers 
     1.0000   0.0000   0.0000   0.0000   0.0000   0.0000

          k = 0.3849-0.1443-0.0481 (   169 PWs)   bands (ev):

    -0.0649  10.4720  13.1914  16.8204  19.2116  20.4010

     occupation numbers 
     1.0000   0.0000   0.0000   0.0000   0.0000   0.0000

          k = 0.3849-0.0962-0.0962 (   171 PWs)   bands (ev):

    -0.1515  11.5909  12.0356  17.7457  18.1278  20.4494

     occupation numbers 
     1.0000   0.0000   0.0000   0.0000   0.0000   0.0000

          k = 0.4330-0.2406-0.0000 (   173 PWs)   bands (ev):

     1.3124   7.3976  13.7351  16.0022  19.3395  20.8299

     occupation numbers 
     1.0000   1.0028   0.0000   0.0000   0.0000   0.0000

          k = 0.4330-0.1925-0.0481 (   173 PWs)   bands (ev):

     0.9695   8.5384  12.7200  16.3586  19.5444  20.4340

     occupation numbers 
     1.0000   0.0000   0.0000   0.0000   0.0000   0.0000

          k = 0.4330-0.1443-0.0962 (   174 PWs)   bands (ev):

     0.7976   9.7996  11.3012  17.3856  18.6196  20.1083

     occupation numbers 
     1.0000   0.0000   0.0000   0.0000   0.0000   0.0000

          k = 0.4811-0.2887 0.0000 (   172 PWs)   bands (ev):

     2.5875   5.6629  13.5049  15.7631  19.1166  20.9609

     occupation numbers 
     1.0000   1.0000   0.0000   0.0000   0.0000   0.0000

          k = 0.4811-0.2406-0.0481 (   173 PWs)   bands (ev):

     2.1656   6.7357  12.4052  16.0468  19.4119  21.1105

     occupation numbers 
     1.0000   1.0000   0.0000   0.0000   0.0000   0.0000

          k = 0.4811-0.1925-0.0962 (   171 PWs)   bands (ev):

     1.9110   7.9560  10.8843  17.0166  19.0818  20.2197

     occupation numbers 
     1.0000   0.0115   0.0000   0.0000   0.0000   0.0000

          k = 0.4811-0.1443-0.1443 (   175 PWs)   bands (ev):

     1.8257   9.0811   9.6393  18.0969  18.2187  19.8391

     occupation numbers 
     1.0000   0.0000   0.0000   0.0000   0.0000   0.0000

          k =-0.3368-0.3368 0.8660 (   168 PWs)   bands (ev):

     3.8132   4.2839  13.4283  15.6832  19.0420  20.9808

     occupation numbers 
     1.0000   1.0000   0.0000   0.0000   0.0000   0.0000

          k =-0.3368-0.2887 0.8179 (   171 PWs)   bands (ev):

     3.5032   5.0933  12.2476  15.8901  19.2951  21.7298

     occupation numbers 
     1.0000   1.0000   0.0000   0.0000   0.0000   0.0000

          k =-0.3368-0.2406 0.7698 (   170 PWs)   bands (ev):

     3.1797   6.2389  10.6385  16.7895  19.1026  21.0404

     occupation numbers 
     1.0000   1.0000   0.0000   0.0000   0.0000   0.0000

          k =-0.3368-0.1925 0.7217 (   171 PWs)   bands (ev):

     3.0137   7.5192   9.0941  17.8668  18.7683  19.9665

     occupation numbers 
     1.0000   1.0447   0.0000   0.0000   0.0000   0.0000

          k =-0.2887-0.2887 0.7698 (   168 PWs)   bands (ev):

     4.3927   4.8755  10.5570  16.7134  19.0701  22.1180

     occupation numbers 
     1.0000   1.0000   0.0000   0.0000   0.0000   0.0000

          k =-0.2887-0.2406 0.7217 (   167 PWs)   bands (ev):

     4.3394   5.9147   8.9102  17.7186  18.9118  20.8029

     occupation numbers 
     1.0000   1.0000   0.0000   0.0000   0.0000   0.0000

          k =-0.2887-0.1925 0.6736 (   169 PWs)   bands (ev):

     4.2669   7.0322   7.6399  18.3560  18.9662  19.9235

     occupation numbers 
     1.0000   1.0000   1.0468   0.0000   0.0000   0.0000

          k =-0.2406-0.2406 0.6736 (   169 PWs)   bands (ev):

     5.4671   5.8940   7.3473  18.3420  19.2577  20.3311

     occupation numbers 
     1.0000   1.0000   1.0005   0.0000   0.0000   0.0000

          k = 0.2887 0.2887-0.2887 (   168 PWs)   bands (ev):

     1.3986  10.1618  10.1618  11.0862  26.1330  26.1332

     occupation numbers 
     1.0000   0.0000   0.0000   0.0000   0.0000   0.0000

          k = 0.2887 0.3368-0.3368 (   169 PWs)   bands (ev):

     2.5068   8.4873   9.7523  10.4976  26.3875  26.4218

     occupation numbers 
     1.0000   0.0000   0.0000   0.0000   0.0000   0.0000

          k = 0.2887 0.3849-0.3849 (   168 PWs)   bands (ev):

     3.7689   6.8043   9.5061  10.2220  26.4054  26.4098

     occupation numbers 
     1.0000   1.0000   0.0000   0.0000   0.0000   0.0000

          k = 0.2887 0.4330-0.4330 (   166 PWs)   bands (ev):

     4.9725   5.4561   9.4241  10.1343  26.3898  26.4028

     occupation numbers 
     1.0000   1.0000   0.0000   0.0000   0.0000   0.0000

          k = 0.2887 0.0000 0.0000 (   164 PWs)   bands (ev):

    -1.7171  15.1812  15.1812  17.1334  17.8503  22.5098

     occupation numbers 
     1.0000   0.0000   0.0000   0.0000   0.0000   0.0000

          k = 0.3368 0.3368-0.3849 (   165 PWs)   bands (ev):

     3.6874   7.9440   8.4390   9.9180  27.2357  27.3923

     occupation numbers 
     1.0000   0.0163   0.0000   0.0000   0.0000   0.0000

          k = 0.3368 0.3849-0.4330 (   166 PWs)   bands (ev):

     5.0027   6.5440   8.0891   9.7223  27.4203  27.8893

     occupation numbers 
     1.0000   1.0000   0.0001   0.0000   0.0000   0.0000

          k = 0.3368-0.0481 0.0000 (   169 PWs)   bands (ev):

    -1.1065  13.6288  14.3399  16.4716  17.4794  22.4367

     occupation numbers 
     1.0000   0.0000   0.0000   0.0000   0.0000   0.0000

          k = 0.3849 0.3849-0.4811 (   167 PWs)   bands (ev):

     6.2122   6.2122   7.0020   9.6163  28.0763  28.5136

     occupation numbers 
     1.0000   1.0000   1.0000   0.0000   0.0000   0.0000

          k = 0.3849-0.0962 0.0000 (   167 PWs)   bands (ev):

    -0.3246  11.6341  13.6491  15.8749  17.8809  21.9409

     occupation numbers 
     1.0000   0.0000   0.0000   0.0000   0.0000   0.0000

          k = 0.3849-0.0481-0.0481 (   169 PWs)   bands (ev):

    -0.4114  12.7206  12.9816  16.1437  16.9276  22.4554

     occupation numbers 
     1.0000   0.0000   0.0000   0.0000   0.0000   0.0000

          k = 0.4330-0.1443 0.0000 (   171 PWs)   bands (ev):

     0.6256   9.6630  13.1103  15.3438  18.6045  21.4731

     occupation numbers 
     1.0000   0.0000   0.0000   0.0000   0.0000   0.0000

          k = 0.4330-0.0962-0.0481 (   171 PWs)   bands (ev):

     0.4532  10.8970  12.2523  15.8085  17.2323  22.0433

     occupation numbers 
     1.0000   0.0000   0.0000   0.0000   0.0000   0.0000

          k = 0.4811-0.1925-0.0000 (   171 PWs)   bands (ev):

     1.7403   7.8004  12.7247  14.9498  19.4918  21.1195

     occupation numbers 
     1.0000   0.3315   0.0000   0.0000   0.0000   0.0000

          k = 0.4811-0.1443-0.0481 (   172 PWs)   bands (ev):

     1.4840   9.0057  11.7729  15.3855  18.0219  21.6491

     occupation numbers 
     1.0000   0.0000   0.0000   0.0000   0.0000   0.0000

          k = 0.4811-0.0962-0.0962 (   169 PWs)   bands (ev):

     1.3985  10.1263  10.6074  16.2548  16.9258  21.6922

     occupation numbers 
     1.0000   0.0000   0.0000   0.0000   0.0000   0.0000

          k = 0.5292-0.2406 0.0000 (   173 PWs)   bands (ev):

     3.0108   6.0760  12.4931  14.7092  20.4581  20.9025

     occupation numbers 
     1.0000   1.0000   0.0000   0.0000   0.0000   0.0000

          k = 0.5292-0.1925-0.0481 (   171 PWs)   bands (ev):

     2.6755   7.2222  11.4546  15.0813  19.0006  21.3501

     occupation numbers 
     1.0000   1.0000   0.0000   0.0000   0.0000   0.0000

          k = 0.5292-0.1443-0.0962 (   174 PWs)   bands (ev):

     2.5067   8.4917  10.0155  16.1297  17.5873  21.3019

     occupation numbers 
     1.0000   0.0000   0.0000   0.0000   0.0000   0.0000

          k =-0.2887-0.2887 0.8660 (   168 PWs)   bands (ev):

     4.2271   4.7082  12.4160  14.6288  20.8295  21.1513

     occupation numbers 
     1.0000   1.0000   0.0000   0.0000   0.0000   0.0000

          k =-0.2887-0.2406 0.8179 (   170 PWs)   bands (ev):

     4.0062   5.5921  11.2958  14.9258  20.0507  21.0645

     occupation numbers 
     1.0000   1.0000   0.0000   0.0000   0.0000   0.0000

          k =-0.2887-0.1925 0.7698 (   174 PWs)   bands (ev):

     3.7687   6.8056   9.7557  15.9287  18.6302  20.7748

     occupation numbers 
     1.0000   1.0000   0.0000   0.0000   0.0000   0.0000

          k =-0.2887-0.1443 0.7217 (   169 PWs)   bands (ev):

     3.6873   7.9321   8.5042  16.9467  17.4724  20.6897

     occupation numbers 
     1.0000   0.0227   0.0000   0.0000   0.0000   0.0000

          k =-0.2406-0.2406 0.7698 (   169 PWs)   bands (ev):

     4.9713   5.4583   9.6717  15.8569  19.7114  19.8481

     occupation numbers 
     1.0000   1.0000   0.0000   0.0000   0.0000   0.0000

          k =-0.2406-0.1925 0.7217 (   169 PWs)   bands (ev):

     5.0022   6.5447   8.1223  17.0137  18.4023  19.6190

     occupation numbers 
     1.0000   1.0000   0.0000   0.0000   0.0000   0.0000

          k =-0.1925-0.1925 0.6736 (   173 PWs)   bands (ev):

     6.2077   6.2077   7.0285  18.1514  18.1514  18.5833

     occupation numbers 
     1.0000   1.0000   1.0000   0.0000   0.0000   0.0000

          k = 0.3849 0.3849-0.3849 (   165 PWs)   bands (ev):

     4.9306   7.6971   7.6971   8.7179  28.6428  28.6428

     occupation numbers 
     1.0000   0.8678   0.8678   0.0000   0.0000   0.0000

          k = 0.3849 0.4330-0.4330 (   166 PWs)   bands (ev):

     6.1302   6.5125   7.6143   8.4698  28.9283  29.1476

     occupation numbers 
     1.0000   1.0000   1.0769   0.0000   0.0000   0.0000

          k = 0.3849 0.0000 0.0000 (   168 PWs)   bands (ev):

    -0.4980  13.4924  13.4924  15.2138  16.3047  23.7004

     occupation numbers 
     1.0000   0.0000   0.0000   0.0000   0.0000   0.0000

          k = 0.4330-0.0481 0.0000 (   168 PWs)   bands (ev):

     0.2808  12.0492  12.7974  14.7759  16.0157  23.7458

     occupation numbers 
     1.0000   0.0000   0.0000   0.0000   0.0000   0.0000

          k = 0.4811-0.0962 0.0000 (   171 PWs)   bands (ev):

     1.2272  10.1820  12.2561  14.3811  16.5364  23.3739

     occupation numbers 
     1.0000   0.0000   0.0000   0.0000   0.0000   0.0000

          k = 0.4811-0.0481-0.0481 (   169 PWs)   bands (ev):

     1.1415  11.2778  11.5746  14.6219  15.5965  23.6566

     occupation numbers 
     1.0000   0.0000   0.0000   0.0000   0.0000   0.0000

          k = 0.5292-0.1443-0.0000 (   171 PWs)   bands (ev):

     2.3370   8.3551  11.8690  14.0166  17.4284  22.4967

     occupation numbers 
     1.0000   0.0000   0.0000   0.0000   0.0000   0.0000

          k = 0.5292-0.0962-0.0481 (   171 PWs)   bands (ev):

     2.1672   9.6005  10.9863  14.4873  16.0224  22.3854

     occupation numbers 
     1.0000   0.0000   0.0000   0.0000   0.0000   0.0000

          k = 0.5774-0.1925 0.0000 (   171 PWs)   bands (ev):

     3.6012   6.6490  11.6365  13.7834  18.5162  21.0919

     occupation numbers 
     1.0000   1.0000   0.0000   0.0000   0.0000   0.0000

          k = 0.5774-0.1443-0.0481 (   171 PWs)   bands (ev):

     3.3521   7.8593  10.6611  14.2350  16.9699  20.9055

     occupation numbers 
     1.0000   0.1237   0.0000   0.0000   0.0000   0.0000

          k = 0.5774-0.0962-0.0962 (   175 PWs)   bands (ev):

     3.2684   8.9829   9.4836  15.0890  15.8791  20.8371

     occupation numbers 
     1.0000   0.0000   0.0000   0.0000   0.0000   0.0000

          k =-0.2406-0.2406 0.8660 (   168 PWs)   bands (ev):

     4.8058   5.2961  11.5590  13.7045  19.6863  19.8133

     occupation numbers 
     1.0000   1.0000   0.0000   0.0000   0.0000   0.0000

          k =-0.2406-0.1925 0.8179 (   169 PWs)   bands (ev):

     4.6737   6.2496  10.5001  14.0908  18.1244  19.4905

     occupation numbers 
     1.0000   1.0000   0.0000   0.0000   0.0000   0.0000

          k =-0.2406-0.1443 0.7698 (   169 PWs)   bands (ev):

     4.5213   7.5106   9.0466  15.1497  16.6707  19.3449

     occupation numbers 
     1.0000   1.0391   0.0000   0.0000   0.0000   0.0000

          k =-0.1925-0.1925 0.7698 (   169 PWs)   bands (ev):

     5.7129   6.1903   8.9518  15.1033  17.6601  18.1880

     occupation numbers 
     1.0000   1.0000   0.0000   0.0000   0.0000   0.0000

          k =-0.1925-0.1443 0.7217 (   171 PWs)   bands (ev):

     5.8163   7.1097   7.7208  16.1211  16.6434  17.9508

     occupation numbers 
     1.0000   1.0000   0.7526   0.0000   0.0000   0.0000

          k = 0.4811 0.0000 0.0000 (   168 PWs)   bands (ev):

     1.0557  12.0997  12.0997  13.6392  14.9446  24.0192

     occupation numbers 
     1.0000   0.0000   0.0000   0.0000   0.0000   0.0000

          k = 0.5292-0.0481 0.0000 (   172 PWs)   bands (ev):

     1.9969  10.7741  11.5565  13.4060  14.7782  22.3688

     occupation numbers 
     1.0000   0.0000   0.0000   0.0000   0.0000   0.0000

          k = 0.5774-0.0962-0.0000 (   170 PWs)   bands (ev):

     3.1003   9.0452  11.1685  13.1941  15.4419  20.7445

     occupation numbers 
     1.0000   0.0000   0.0000   0.0000   0.0000   0.0000

          k = 0.5774-0.0481-0.0481 (   172 PWs)   bands (ev):

     3.0160  10.1500  10.4702  13.4368  14.4979  20.6810

     occupation numbers 
     1.0000   0.0000   0.0000   0.0000   0.0000   0.0000

          k = 0.6255-0.1443 0.0000 (   171 PWs)   bands (ev):

     4.3557   7.3741  10.9355  12.9951  16.4853  19.2202

     occupation numbers 
     1.0000   1.0013   0.0000   0.0000   0.0000   0.0000

          k = 0.6255-0.0962-0.0481 (   170 PWs)   bands (ev):

     4.1922   8.6243  10.0311  13.4814  15.0630  19.0768

     occupation numbers 
     1.0000   0.0000   0.0000   0.0000   0.0000   0.0000

          k =-0.1925-0.1925 0.8660 (   166 PWs)   bands (ev):

     5.5479   6.0402  10.8580  12.9227  17.4964  18.0573

     occupation numbers 
     1.0000   1.0000   0.0000   0.0000   0.0000   0.0000

          k =-0.1925-0.1443 0.8179 (   171 PWs)   bands (ev):

     5.5016   7.0557   9.8638  13.3899  16.1195  17.6393

     occupation numbers 
     1.0000   1.0000   0.0000   0.0000   0.0000   0.0000

          k =-0.1925-0.0962 0.7698 (   173 PWs)   bands (ev):

     5.4310   8.1648   8.6834  14.2553  15.0356  17.5462

     occupation numbers 
     1.0000   0.0000   0.0000   0.0000   0.0000   0.0000

          k =-0.1443-0.1443 0.7698 (   169 PWs)   bands (ev):

     6.6158   7.0347   8.4225  14.4472  15.6243  16.5200

     occupation numbers 
     1.0000   1.0000   0.0000   0.0000   0.0000   0.0000

          k = 0.5774-0.0000 0.0000 (   176 PWs)   bands (ev):

     2.9315  11.0122  11.0122  12.4126  13.8220  20.6184

     occupation numbers 
     1.0000   0.0000   0.0000   0.0000   0.0000   0.0000

          k = 0.6255-0.0481-0.0000 (   172 PWs)   bands (ev):

     4.0263   9.8129  10.6236  12.3726  13.7970  18.9338

     occupation numbers 
     1.0000   0.0000   0.0000   0.0000   0.0000   0.0000

          k = 0.6736-0.0962 0.0000 (   169 PWs)   bands (ev):

     5.2702   8.2340  10.3904  12.3278  14.5977  17.3879

     occupation numbers 
     1.0000   0.0000   0.0000   0.0000   0.0000   0.0000

          k = 0.6736-0.0481-0.0481 (   172 PWs)   bands (ev):

     5.1902   9.3421   9.6779  12.5906  13.6437  17.3061

     occupation numbers 
     1.0000   0.0000   0.0000   0.0000   0.0000   0.0000

          k =-0.1443-0.1443 0.8660 (   174 PWs)   bands (ev):

     6.4509   6.9265  10.3124  12.2809  15.4585  16.3226

     occupation numbers 
     1.0000   1.0000   0.0000   0.0000   0.0000   0.0000

          k =-0.1443-0.0962 0.8179 (   174 PWs)   bands (ev):

     6.4832   7.9847   9.3944  12.7901  14.2719  15.9124

     occupation numbers 
     1.0000   0.0047   0.0000   0.0000   0.0000   0.0000

          k =-0.0962-0.0962 0.7698 (   170 PWs)   bands (ev):

     7.6735   7.6735   8.3721  13.7545  13.7545  15.1514

     occupation numbers 
     0.9605   0.9605   0.0000   0.0000   0.0000   0.0000

          k = 0.6736 0.0000-0.0000 (   172 PWs)   bands (ev):

     5.1091  10.2342  10.2342  11.5358  12.9541  17.2260

     occupation numbers 
     1.0000   0.0000   0.0000   0.0000   0.0000   0.0000

          k = 0.7217-0.0481 0.0000 (   174 PWs)   bands (ev):

     6.3362   9.1715  10.0006  11.6763  13.0349  15.6983

     occupation numbers 
     1.0000   0.0000   0.0000   0.0000   0.0000   0.0000

          k =-0.0962-0.0962 0.8660 (   174 PWs)   bands (ev):

     7.5094   7.9264   9.9225  11.7519  13.5873  14.7608

     occupation numbers 
     1.0384   0.0264   0.0000   0.0000   0.0000   0.0000

          k =-0.0962-0.0481 0.8179 (   172 PWs)   bands (ev):

     7.6002   8.8565   9.2115  12.0830  12.7991  14.4478

     occupation numbers 
     1.0827   0.0000   0.0000   0.0000   0.0000   0.0000

          k = 0.7698 0.0000 0.0000 (   172 PWs)   bands (ev):

     7.5365   9.7669   9.7669  11.0095  12.1847  14.2718

     occupation numbers 
     1.0566   0.0000   0.0000   0.0000   0.0000   0.0000

          k =-0.0481-0.0481 0.8660 (   170 PWs)   bands (ev):

     8.6946   8.9616   9.6890  11.2436  11.9139  13.5724

     occupation numbers 
     0.0000   0.0000   0.0000   0.0000   0.0000   0.0000

          k =-0.8660-0.8660 0.8660 (   164 PWs)   bands (ev):

     9.6114   9.6114   9.6114  10.8343  10.8343  13.1114

     occupation numbers 
     0.0000   0.0000   0.0000   0.0000   0.0000   0.0000

     the Fermi energy is     7.7860 ev

!    total energy              =      -6.70066669 Ry
     Harris-Foulkes estimate   =      -6.70066665 Ry
     estimated scf accuracy    <       0.00000079 Ry

     The total energy is the sum of the following terms:

     one-electron contribution =       2.96256036 Ry
     hartree contribution      =       0.00560915 Ry
     xc contribution           =      -4.28703951 Ry
     ewald contribution        =      -5.38183350 Ry
     smearing contrib. (-TS)   =       0.00003681 Ry

     convergence has been achieved in   3 iterations
 
     init_run     :      0.78s CPU      0.46s WALL (       1 calls)
     electrons    :      7.33s CPU      3.75s WALL (       1 calls)

     Called by init_run:
     wfcinit      :      0.68s CPU      0.26s WALL (       1 calls)
     wfcinit:atom :      0.01s CPU      0.00s WALL (     195 calls)
     wfcinit:wfcr :      0.65s CPU      0.24s WALL (     195 calls)
     potinit      :      0.00s CPU      0.00s WALL (       1 calls)

     Called by electrons:
     c_bands      :      6.32s CPU      3.37s WALL (       4 calls)
     sum_band     :      0.36s CPU      0.23s WALL (       4 calls)
     v_of_rho     :      0.00s CPU      0.00s WALL (       4 calls)
     v_h          :      0.00s CPU      0.00s WALL (       4 calls)
     v_xc         :      0.00s CPU      0.00s WALL (       4 calls)
     newd         :      0.52s CPU      0.13s WALL (       4 calls)
     mix_rho      :      0.00s CPU      0.00s WALL (       4 calls)

     Called by c_bands:
     init_us_2    :      0.09s CPU      0.04s WALL (    1755 calls)
     cegterg      :      4.96s CPU      2.51s WALL (     780 calls)

     Called by sum_band:
     sum_band:bec :      0.00s CPU      0.00s WALL (     780 calls)
     addusdens    :      0.00s CPU      0.00s WALL (       4 calls)

     Called by *egterg:
     h_psi        :      2.64s CPU      1.17s WALL (    2664 calls)
     s_psi        :      0.03s CPU      0.02s WALL (    2664 calls)
     g_psi        :      0.02s CPU      0.01s WALL (    1689 calls)
     cdiaghg      :      2.45s CPU      1.34s WALL (    2274 calls)
     cegterg:over :      0.08s CPU      0.04s WALL (    1689 calls)
     cegterg:upda :      0.05s CPU      0.02s WALL (    1689 calls)
     cegterg:last :      0.02s CPU      0.01s WALL (     863 calls)

     Called by h_psi:
     h_psi:pot    :      2.62s CPU      1.15s WALL (    2664 calls)
     h_psi:calbec :      0.12s CPU      0.06s WALL (    2664 calls)
     vloc_psi     :      2.41s CPU      1.06s WALL (    2664 calls)
     add_vuspsi   :      0.04s CPU      0.02s WALL (    2664 calls)

     General routines
     calbec       :      0.15s CPU      0.08s WALL (    3444 calls)
     fft          :      0.00s CPU      0.01s WALL (      54 calls)
     fftw         :      2.46s CPU      1.10s WALL (   31240 calls)
 
     Parallel routines
     fft_scatt_xy :      0.24s CPU      0.12s WALL (   31294 calls)
     fft_scatt_yz :      1.07s CPU      0.46s WALL (   31294 calls)
 
     PWSCF        :     8.16s CPU         4.30s WALL

 
   This run was terminated on:  22: 8:42  30Jan2019            

=------------------------------------------------------------------------------=
   JOB DONE.
=------------------------------------------------------------------------------=
