
     Program PWSCF v.6.2 (svn rev. 14038) starts on 30Jan2019 at 19: 9: 5 

     This program is part of the open-source Quantum ESPRESSO suite
     for quantum simulation of materials; please cite
         "P. Giannozzi et al., J. Phys.:Condens. Matter 21 395502 (2009);
         "P. Giannozzi et al., J. Phys.:Condens. Matter 29 465901 (2017);
          URL http://www.quantum-espresso.org", 
     in publications or presentations arising from this work. More details at
     http://www.quantum-espresso.org/quote

     Parallel version (MPI), running on     1 processors

     MPI processes distributed on     1 nodes
     Reading input from ./Alkpoint12.in
Warning: card &IONS ignored
Warning: card / ignored
Warning: card &CELL ignored
Warning: card / ignored

     Current dimensions of program PWSCF are:
     Max number of different atomic species (ntypx) = 10
     Max number of k-points (npk) =  40000
     Max angular momentum in pseudopotentials (lmaxx) =  3
     Message from routine iosys:
     minimal I/O required, wf_collect reset to FALSE

     Subspace diagonalization in iterative solution of the eigenvalue problem:
     a serial algorithm will be used

 
     G-vector sticks info
     --------------------
     sticks:   dense  smooth     PW     G-vecs:    dense   smooth      PW
     Sum         283     283    129                 3103     3103     887
 


     bravais-lattice index     =            0
     lattice parameter (alat)  =       5.2705  a.u.
     unit-cell volume          =     112.7033 (a.u.)^3
     number of atoms/cell      =            1
     number of atomic types    =            1
     number of electrons       =         3.00
     number of Kohn-Sham states=            6
     kinetic-energy cutoff     =      35.0000  Ry
     charge density cutoff     =     140.0000  Ry
     convergence threshold     =      1.0E-06
     mixing beta               =       0.7000
     number of iterations used =            8  plain     mixing
     Exchange-correlation      = SLA  PW   PBE  PBE ( 1  4  3  4 0 0)

     celldm(1)=   5.270512  celldm(2)=   0.000000  celldm(3)=   0.000000
     celldm(4)=   0.000000  celldm(5)=   0.000000  celldm(6)=   0.000000

     crystal axes: (cart. coord. in units of alat)
               a(1) = (   0.577350   0.577350   0.577350 )  
               a(2) = (   0.577350  -0.577350  -0.577350 )  
               a(3) = (  -0.577350   0.577350  -0.577350 )  

     reciprocal axes: (cart. coord. in units 2 pi/alat)
               b(1) = (  0.866025  0.866025  0.000000 )  
               b(2) = (  0.866025  0.000000 -0.866025 )  
               b(3) = (  0.000000  0.866025 -0.866025 )  


     PseudoPot. # 1 for Al read from file:
     ./al_pbe_v1.uspp.F.UPF
     MD5 check sum: 0a6289f5291fc8f409219462bc851e1f
     Pseudo is Ultrasoft + core correction, Zval =  3.0
     Generated by new atomic code, or converted to UPF format
     Using radial grid of  893 points,  3 beta functions with: 
                l(1) =   0
                l(2) =   1
                l(3) =   2
     Q(r) pseudized with  8 coefficients,  rinner =    0.900   0.900   0.900
                                                       0.900   0.900

     atomic species   valence    mass     pseudopotential
        Al             3.00    26.98150     Al( 1.00)

     48 Sym. Ops., with inversion, found


                                    s                        frac. trans.

      isym =  1     identity                                     

 cryst.   s( 1) = (     1          0          0      )
                  (     0          1          0      )
                  (     0          0          1      )

 cart.    s( 1) = (  1.0000000  0.0000000  0.0000000 )
                  (  0.0000000  1.0000000  0.0000000 )
                  (  0.0000000  0.0000000  1.0000000 )


      isym =  2     180 deg rotation - cart. axis [0,0,1]        

 cryst.   s( 2) = (    -1         -1         -1      )
                  (     0          0          1      )
                  (     0          1          0      )

 cart.    s( 2) = ( -1.0000000  0.0000000  0.0000000 )
                  (  0.0000000 -1.0000000  0.0000000 )
                  (  0.0000000  0.0000000  1.0000000 )


      isym =  3     180 deg rotation - cart. axis [0,1,0]        

 cryst.   s( 3) = (     0          0          1      )
                  (    -1         -1         -1      )
                  (     1          0          0      )

 cart.    s( 3) = ( -1.0000000  0.0000000  0.0000000 )
                  (  0.0000000  1.0000000  0.0000000 )
                  (  0.0000000  0.0000000 -1.0000000 )


      isym =  4     180 deg rotation - cart. axis [1,0,0]        

 cryst.   s( 4) = (     0          1          0      )
                  (     1          0          0      )
                  (    -1         -1         -1      )

 cart.    s( 4) = (  1.0000000  0.0000000  0.0000000 )
                  (  0.0000000 -1.0000000  0.0000000 )
                  (  0.0000000  0.0000000 -1.0000000 )


      isym =  5     180 deg rotation - cart. axis [1,1,0]        

 cryst.   s( 5) = (     1          1          1      )
                  (     0         -1          0      )
                  (     0          0         -1      )

 cart.    s( 5) = (  0.0000000  1.0000000  0.0000000 )
                  (  1.0000000  0.0000000  0.0000000 )
                  (  0.0000000  0.0000000 -1.0000000 )


      isym =  6     180 deg rotation - cart. axis [1,-1,0]       

 cryst.   s( 6) = (    -1          0          0      )
                  (     0          0         -1      )
                  (     0         -1          0      )

 cart.    s( 6) = (  0.0000000 -1.0000000  0.0000000 )
                  ( -1.0000000  0.0000000  0.0000000 )
                  (  0.0000000  0.0000000 -1.0000000 )


      isym =  7      90 deg rotation - cart. axis [0,0,-1]       

 cryst.   s( 7) = (     0          0         -1      )
                  (    -1          0          0      )
                  (     1          1          1      )

 cart.    s( 7) = (  0.0000000  1.0000000  0.0000000 )
                  ( -1.0000000  0.0000000  0.0000000 )
                  (  0.0000000  0.0000000  1.0000000 )


      isym =  8      90 deg rotation - cart. axis [0,0,1]        

 cryst.   s( 8) = (     0         -1          0      )
                  (     1          1          1      )
                  (    -1          0          0      )

 cart.    s( 8) = (  0.0000000 -1.0000000  0.0000000 )
                  (  1.0000000  0.0000000  0.0000000 )
                  (  0.0000000  0.0000000  1.0000000 )


      isym =  9     180 deg rotation - cart. axis [1,0,1]        

 cryst.   s( 9) = (     0          0         -1      )
                  (     0         -1          0      )
                  (    -1          0          0      )

 cart.    s( 9) = (  0.0000000  0.0000000  1.0000000 )
                  (  0.0000000 -1.0000000  0.0000000 )
                  (  1.0000000  0.0000000  0.0000000 )


      isym = 10     180 deg rotation - cart. axis [-1,0,1]       

 cryst.   s(10) = (    -1          0          0      )
                  (     1          1          1      )
                  (     0          0         -1      )

 cart.    s(10) = (  0.0000000  0.0000000 -1.0000000 )
                  (  0.0000000 -1.0000000  0.0000000 )
                  ( -1.0000000  0.0000000  0.0000000 )


      isym = 11      90 deg rotation - cart. axis [0,1,0]        

 cryst.   s(11) = (     1          1          1      )
                  (    -1          0          0      )
                  (     0         -1          0      )

 cart.    s(11) = (  0.0000000  0.0000000  1.0000000 )
                  (  0.0000000  1.0000000  0.0000000 )
                  ( -1.0000000  0.0000000  0.0000000 )


      isym = 12      90 deg rotation - cart. axis [0,-1,0]       

 cryst.   s(12) = (     0         -1          0      )
                  (     0          0         -1      )
                  (     1          1          1      )

 cart.    s(12) = (  0.0000000  0.0000000 -1.0000000 )
                  (  0.0000000  1.0000000  0.0000000 )
                  (  1.0000000  0.0000000  0.0000000 )


      isym = 13     180 deg rotation - cart. axis [0,1,1]        

 cryst.   s(13) = (     0         -1          0      )
                  (    -1          0          0      )
                  (     0          0         -1      )

 cart.    s(13) = ( -1.0000000  0.0000000  0.0000000 )
                  (  0.0000000  0.0000000  1.0000000 )
                  (  0.0000000  1.0000000  0.0000000 )


      isym = 14     180 deg rotation - cart. axis [0,1,-1]       

 cryst.   s(14) = (    -1          0          0      )
                  (     0         -1          0      )
                  (     1          1          1      )

 cart.    s(14) = ( -1.0000000  0.0000000  0.0000000 )
                  (  0.0000000  0.0000000 -1.0000000 )
                  (  0.0000000 -1.0000000  0.0000000 )


      isym = 15      90 deg rotation - cart. axis [-1,0,0]       

 cryst.   s(15) = (     1          1          1      )
                  (     0          0         -1      )
                  (    -1          0          0      )

 cart.    s(15) = (  1.0000000  0.0000000  0.0000000 )
                  (  0.0000000  0.0000000  1.0000000 )
                  (  0.0000000 -1.0000000  0.0000000 )


      isym = 16      90 deg rotation - cart. axis [1,0,0]        

 cryst.   s(16) = (     0          0         -1      )
                  (     1          1          1      )
                  (     0         -1          0      )

 cart.    s(16) = (  1.0000000  0.0000000  0.0000000 )
                  (  0.0000000  0.0000000 -1.0000000 )
                  (  0.0000000  1.0000000  0.0000000 )


      isym = 17     120 deg rotation - cart. axis [-1,-1,-1]     

 cryst.   s(17) = (     1          0          0      )
                  (    -1         -1         -1      )
                  (     0          1          0      )

 cart.    s(17) = (  0.0000000  1.0000000  0.0000000 )
                  (  0.0000000  0.0000000  1.0000000 )
                  (  1.0000000  0.0000000  0.0000000 )


      isym = 18     120 deg rotation - cart. axis [-1,1,1]       

 cryst.   s(18) = (     0          0          1      )
                  (     0          1          0      )
                  (    -1         -1         -1      )

 cart.    s(18) = (  0.0000000 -1.0000000  0.0000000 )
                  (  0.0000000  0.0000000  1.0000000 )
                  ( -1.0000000  0.0000000  0.0000000 )


      isym = 19     120 deg rotation - cart. axis [1,1,-1]       

 cryst.   s(19) = (     0          1          0      )
                  (     0          0          1      )
                  (     1          0          0      )

 cart.    s(19) = (  0.0000000  1.0000000  0.0000000 )
                  (  0.0000000  0.0000000 -1.0000000 )
                  ( -1.0000000  0.0000000  0.0000000 )


      isym = 20     120 deg rotation - cart. axis [1,-1,1]       

 cryst.   s(20) = (    -1         -1         -1      )
                  (     1          0          0      )
                  (     0          0          1      )

 cart.    s(20) = (  0.0000000 -1.0000000  0.0000000 )
                  (  0.0000000  0.0000000 -1.0000000 )
                  (  1.0000000  0.0000000  0.0000000 )


      isym = 21     120 deg rotation - cart. axis [1,1,1]        

 cryst.   s(21) = (     1          0          0      )
                  (     0          0          1      )
                  (    -1         -1         -1      )

 cart.    s(21) = (  0.0000000  0.0000000  1.0000000 )
                  (  1.0000000  0.0000000  0.0000000 )
                  (  0.0000000  1.0000000  0.0000000 )


      isym = 22     120 deg rotation - cart. axis [-1,1,-1]      

 cryst.   s(22) = (     0          1          0      )
                  (    -1         -1         -1      )
                  (     0          0          1      )

 cart.    s(22) = (  0.0000000  0.0000000  1.0000000 )
                  ( -1.0000000  0.0000000  0.0000000 )
                  (  0.0000000 -1.0000000  0.0000000 )


      isym = 23     120 deg rotation - cart. axis [1,-1,-1]      

 cryst.   s(23) = (    -1         -1         -1      )
                  (     0          1          0      )
                  (     1          0          0      )

 cart.    s(23) = (  0.0000000  0.0000000 -1.0000000 )
                  ( -1.0000000  0.0000000  0.0000000 )
                  (  0.0000000  1.0000000  0.0000000 )


      isym = 24     120 deg rotation - cart. axis [-1,-1,1]      

 cryst.   s(24) = (     0          0          1      )
                  (     1          0          0      )
                  (     0          1          0      )

 cart.    s(24) = (  0.0000000  0.0000000 -1.0000000 )
                  (  1.0000000  0.0000000  0.0000000 )
                  (  0.0000000 -1.0000000  0.0000000 )


      isym = 25     inversion                                    

 cryst.   s(25) = (    -1          0          0      )
                  (     0         -1          0      )
                  (     0          0         -1      )

 cart.    s(25) = ( -1.0000000  0.0000000  0.0000000 )
                  (  0.0000000 -1.0000000  0.0000000 )
                  (  0.0000000  0.0000000 -1.0000000 )


      isym = 26     inv. 180 deg rotation - cart. axis [0,0,1]   

 cryst.   s(26) = (     1          1          1      )
                  (     0          0         -1      )
                  (     0         -1          0      )

 cart.    s(26) = (  1.0000000  0.0000000  0.0000000 )
                  (  0.0000000  1.0000000  0.0000000 )
                  (  0.0000000  0.0000000 -1.0000000 )


      isym = 27     inv. 180 deg rotation - cart. axis [0,1,0]   

 cryst.   s(27) = (     0          0         -1      )
                  (     1          1          1      )
                  (    -1          0          0      )

 cart.    s(27) = (  1.0000000  0.0000000  0.0000000 )
                  (  0.0000000 -1.0000000  0.0000000 )
                  (  0.0000000  0.0000000  1.0000000 )


      isym = 28     inv. 180 deg rotation - cart. axis [1,0,0]   

 cryst.   s(28) = (     0         -1          0      )
                  (    -1          0          0      )
                  (     1          1          1      )

 cart.    s(28) = ( -1.0000000  0.0000000  0.0000000 )
                  (  0.0000000  1.0000000  0.0000000 )
                  (  0.0000000  0.0000000  1.0000000 )


      isym = 29     inv. 180 deg rotation - cart. axis [1,1,0]   

 cryst.   s(29) = (    -1         -1         -1      )
                  (     0          1          0      )
                  (     0          0          1      )

 cart.    s(29) = (  0.0000000 -1.0000000  0.0000000 )
                  ( -1.0000000  0.0000000  0.0000000 )
                  (  0.0000000  0.0000000  1.0000000 )


      isym = 30     inv. 180 deg rotation - cart. axis [1,-1,0]  

 cryst.   s(30) = (     1          0          0      )
                  (     0          0          1      )
                  (     0          1          0      )

 cart.    s(30) = (  0.0000000  1.0000000  0.0000000 )
                  (  1.0000000  0.0000000  0.0000000 )
                  (  0.0000000  0.0000000  1.0000000 )


      isym = 31     inv.  90 deg rotation - cart. axis [0,0,-1]  

 cryst.   s(31) = (     0          0          1      )
                  (     1          0          0      )
                  (    -1         -1         -1      )

 cart.    s(31) = (  0.0000000 -1.0000000  0.0000000 )
                  (  1.0000000  0.0000000  0.0000000 )
                  (  0.0000000  0.0000000 -1.0000000 )


      isym = 32     inv.  90 deg rotation - cart. axis [0,0,1]   

 cryst.   s(32) = (     0          1          0      )
                  (    -1         -1         -1      )
                  (     1          0          0      )

 cart.    s(32) = (  0.0000000  1.0000000  0.0000000 )
                  ( -1.0000000  0.0000000  0.0000000 )
                  (  0.0000000  0.0000000 -1.0000000 )


      isym = 33     inv. 180 deg rotation - cart. axis [1,0,1]   

 cryst.   s(33) = (     0          0          1      )
                  (     0          1          0      )
                  (     1          0          0      )

 cart.    s(33) = (  0.0000000  0.0000000 -1.0000000 )
                  (  0.0000000  1.0000000  0.0000000 )
                  ( -1.0000000  0.0000000  0.0000000 )


      isym = 34     inv. 180 deg rotation - cart. axis [-1,0,1]  

 cryst.   s(34) = (     1          0          0      )
                  (    -1         -1         -1      )
                  (     0          0          1      )

 cart.    s(34) = (  0.0000000  0.0000000  1.0000000 )
                  (  0.0000000  1.0000000  0.0000000 )
                  (  1.0000000  0.0000000  0.0000000 )


      isym = 35     inv.  90 deg rotation - cart. axis [0,1,0]   

 cryst.   s(35) = (    -1         -1         -1      )
                  (     1          0          0      )
                  (     0          1          0      )

 cart.    s(35) = (  0.0000000  0.0000000 -1.0000000 )
                  (  0.0000000 -1.0000000  0.0000000 )
                  (  1.0000000  0.0000000  0.0000000 )


      isym = 36     inv.  90 deg rotation - cart. axis [0,-1,0]  

 cryst.   s(36) = (     0          1          0      )
                  (     0          0          1      )
                  (    -1         -1         -1      )

 cart.    s(36) = (  0.0000000  0.0000000  1.0000000 )
                  (  0.0000000 -1.0000000  0.0000000 )
                  ( -1.0000000  0.0000000  0.0000000 )


      isym = 37     inv. 180 deg rotation - cart. axis [0,1,1]   

 cryst.   s(37) = (     0          1          0      )
                  (     1          0          0      )
                  (     0          0          1      )

 cart.    s(37) = (  1.0000000  0.0000000  0.0000000 )
                  (  0.0000000  0.0000000 -1.0000000 )
                  (  0.0000000 -1.0000000  0.0000000 )


      isym = 38     inv. 180 deg rotation - cart. axis [0,1,-1]  

 cryst.   s(38) = (     1          0          0      )
                  (     0          1          0      )
                  (    -1         -1         -1      )

 cart.    s(38) = (  1.0000000  0.0000000  0.0000000 )
                  (  0.0000000  0.0000000  1.0000000 )
                  (  0.0000000  1.0000000  0.0000000 )


      isym = 39     inv.  90 deg rotation - cart. axis [-1,0,0]  

 cryst.   s(39) = (    -1         -1         -1      )
                  (     0          0          1      )
                  (     1          0          0      )

 cart.    s(39) = ( -1.0000000  0.0000000  0.0000000 )
                  (  0.0000000  0.0000000 -1.0000000 )
                  (  0.0000000  1.0000000  0.0000000 )


      isym = 40     inv.  90 deg rotation - cart. axis [1,0,0]   

 cryst.   s(40) = (     0          0          1      )
                  (    -1         -1         -1      )
                  (     0          1          0      )

 cart.    s(40) = ( -1.0000000  0.0000000  0.0000000 )
                  (  0.0000000  0.0000000  1.0000000 )
                  (  0.0000000 -1.0000000  0.0000000 )


      isym = 41     inv. 120 deg rotation - cart. axis [-1,-1,-1]

 cryst.   s(41) = (    -1          0          0      )
                  (     1          1          1      )
                  (     0         -1          0      )

 cart.    s(41) = (  0.0000000 -1.0000000  0.0000000 )
                  (  0.0000000  0.0000000 -1.0000000 )
                  ( -1.0000000  0.0000000  0.0000000 )


      isym = 42     inv. 120 deg rotation - cart. axis [-1,1,1]  

 cryst.   s(42) = (     0          0         -1      )
                  (     0         -1          0      )
                  (     1          1          1      )

 cart.    s(42) = (  0.0000000  1.0000000  0.0000000 )
                  (  0.0000000  0.0000000 -1.0000000 )
                  (  1.0000000  0.0000000  0.0000000 )


      isym = 43     inv. 120 deg rotation - cart. axis [1,1,-1]  

 cryst.   s(43) = (     0         -1          0      )
                  (     0          0         -1      )
                  (    -1          0          0      )

 cart.    s(43) = (  0.0000000 -1.0000000  0.0000000 )
                  (  0.0000000  0.0000000  1.0000000 )
                  (  1.0000000  0.0000000  0.0000000 )


      isym = 44     inv. 120 deg rotation - cart. axis [1,-1,1]  

 cryst.   s(44) = (     1          1          1      )
                  (    -1          0          0      )
                  (     0          0         -1      )

 cart.    s(44) = (  0.0000000  1.0000000  0.0000000 )
                  (  0.0000000  0.0000000  1.0000000 )
                  ( -1.0000000  0.0000000  0.0000000 )


      isym = 45     inv. 120 deg rotation - cart. axis [1,1,1]   

 cryst.   s(45) = (    -1          0          0      )
                  (     0          0         -1      )
                  (     1          1          1      )

 cart.    s(45) = (  0.0000000  0.0000000 -1.0000000 )
                  ( -1.0000000  0.0000000  0.0000000 )
                  (  0.0000000 -1.0000000  0.0000000 )


      isym = 46     inv. 120 deg rotation - cart. axis [-1,1,-1] 

 cryst.   s(46) = (     0         -1          0      )
                  (     1          1          1      )
                  (     0          0         -1      )

 cart.    s(46) = (  0.0000000  0.0000000 -1.0000000 )
                  (  1.0000000  0.0000000  0.0000000 )
                  (  0.0000000  1.0000000  0.0000000 )


      isym = 47     inv. 120 deg rotation - cart. axis [1,-1,-1] 

 cryst.   s(47) = (     1          1          1      )
                  (     0         -1          0      )
                  (    -1          0          0      )

 cart.    s(47) = (  0.0000000  0.0000000  1.0000000 )
                  (  1.0000000  0.0000000  0.0000000 )
                  (  0.0000000 -1.0000000  0.0000000 )


      isym = 48     inv. 120 deg rotation - cart. axis [-1,-1,1] 

 cryst.   s(48) = (     0          0         -1      )
                  (    -1          0          0      )
                  (     0         -1          0      )

 cart.    s(48) = (  0.0000000  0.0000000  1.0000000 )
                  ( -1.0000000  0.0000000  0.0000000 )
                  (  0.0000000  1.0000000  0.0000000 )


   Cartesian axes

     site n.     atom                  positions (alat units)
         1           Al  tau(   1) = (   0.0000000   0.0000000   0.0000000  )

   Crystallographic axes

     site n.     atom                  positions (cryst. coord.)
         1           Al  tau(   1) = (  0.0000000  0.0000000  0.0000000  )

     number of k points=    72  Marzari-Vanderbilt smearing, width (Ry)=  0.0100
                       cart. coord. in units 2pi/alat
        k(    1) = (   0.0000000   0.0000000   0.0000000), wk =   0.0011574
        k(    2) = (   0.0000000   0.0721688  -0.0721688), wk =   0.0138889
        k(    3) = (   0.0000000   0.1443376  -0.1443376), wk =   0.0138889
        k(    4) = (   0.0000000   0.2165064  -0.2165064), wk =   0.0138889
        k(    5) = (   0.0000000   0.2886751  -0.2886751), wk =   0.0138889
        k(    6) = (   0.0000000   0.3608439  -0.3608439), wk =   0.0138889
        k(    7) = (   0.0000000  -0.4330127   0.4330127), wk =   0.0069444
        k(    8) = (   0.0721688   0.0721688  -0.1443376), wk =   0.0277778
        k(    9) = (   0.0721688   0.1443376  -0.2165064), wk =   0.0555556
        k(   10) = (   0.0721688   0.2165064  -0.2886751), wk =   0.0555556
        k(   11) = (   0.0721688   0.2886751  -0.3608439), wk =   0.0555556
        k(   12) = (   0.0721688   0.3608439  -0.4330127), wk =   0.0555556
        k(   13) = (   0.1443376   0.1443376  -0.2886751), wk =   0.0277778
        k(   14) = (   0.1443376   0.2165064  -0.3608439), wk =   0.0555556
        k(   15) = (   0.1443376   0.2886751  -0.4330127), wk =   0.0555556
        k(   16) = (   0.1443376   0.3608439  -0.5051815), wk =   0.0277778
        k(   17) = (   0.2165064   0.2165064  -0.4330127), wk =   0.0277778
        k(   18) = (   0.2165064   0.2886751  -0.5051815), wk =   0.0555556
        k(   19) = (   0.2886751   0.2886751  -0.5773503), wk =   0.0092593
        k(   20) = (   0.1443376   0.1443376  -0.1443376), wk =   0.0092593
        k(   21) = (   0.1443376   0.2165064  -0.2165064), wk =   0.0277778
        k(   22) = (   0.1443376   0.2886751  -0.2886751), wk =   0.0277778
        k(   23) = (   0.1443376   0.3608439  -0.3608439), wk =   0.0277778
        k(   24) = (   0.1443376   0.4330127  -0.4330127), wk =   0.0138889
        k(   25) = (   0.1443376  -0.0000000   0.0000000), wk =   0.0069444
        k(   26) = (   0.2165064   0.2165064  -0.2886751), wk =   0.0277778
        k(   27) = (   0.2165064   0.2886751  -0.3608439), wk =   0.0555556
        k(   28) = (   0.2165064   0.3608439  -0.4330127), wk =   0.0555556
        k(   29) = (   0.2165064  -0.0721688   0.0000000), wk =   0.0277778
        k(   30) = (   0.2886751   0.2886751  -0.4330127), wk =   0.0277778
        k(   31) = (   0.2886751   0.3608439  -0.5051815), wk =   0.0277778
        k(   32) = (   0.2886751  -0.1443376   0.0000000), wk =   0.0277778
        k(   33) = (   0.2886751  -0.0721688  -0.0721688), wk =   0.0277778
        k(   34) = (   0.3608439  -0.2165064   0.0000000), wk =   0.0277778
        k(   35) = (   0.3608439  -0.1443376  -0.0721688), wk =   0.0555556
        k(   36) = (   0.4330127  -0.2886751  -0.0000000), wk =   0.0277778
        k(   37) = (   0.4330127  -0.2165064  -0.0721688), wk =   0.0555556
        k(   38) = (   0.4330127  -0.1443376  -0.1443376), wk =   0.0277778
        k(   39) = (  -0.3608439  -0.3608439   0.8660254), wk =   0.0138889
        k(   40) = (  -0.3608439  -0.2886751   0.7938566), wk =   0.0555556
        k(   41) = (  -0.3608439  -0.2165064   0.7216878), wk =   0.0555556
        k(   42) = (  -0.2886751  -0.2886751   0.7216878), wk =   0.0277778
        k(   43) = (  -0.2886751  -0.2165064   0.6495191), wk =   0.0277778
        k(   44) = (   0.2886751   0.2886751  -0.2886751), wk =   0.0092593
        k(   45) = (   0.2886751   0.3608439  -0.3608439), wk =   0.0277778
        k(   46) = (   0.2886751   0.4330127  -0.4330127), wk =   0.0138889
        k(   47) = (   0.2886751   0.0000000   0.0000000), wk =   0.0069444
        k(   48) = (   0.3608439   0.3608439  -0.4330127), wk =   0.0277778
        k(   49) = (   0.3608439  -0.0721688   0.0000000), wk =   0.0277778
        k(   50) = (   0.4330127  -0.1443376   0.0000000), wk =   0.0277778
        k(   51) = (   0.4330127  -0.0721688  -0.0721688), wk =   0.0277778
        k(   52) = (   0.5051815  -0.2165064  -0.0000000), wk =   0.0277778
        k(   53) = (   0.5051815  -0.1443376  -0.0721688), wk =   0.0555556
        k(   54) = (  -0.2886751  -0.2886751   0.8660254), wk =   0.0138889
        k(   55) = (  -0.2886751  -0.2165064   0.7938566), wk =   0.0555556
        k(   56) = (  -0.2886751  -0.1443376   0.7216878), wk =   0.0277778
        k(   57) = (  -0.2165064  -0.2165064   0.7216878), wk =   0.0277778
        k(   58) = (   0.4330127   0.4330127  -0.4330127), wk =   0.0023148
        k(   59) = (   0.4330127   0.0000000   0.0000000), wk =   0.0069444
        k(   60) = (   0.5051815  -0.0721688   0.0000000), wk =   0.0277778
        k(   61) = (   0.5773503  -0.1443376  -0.0000000), wk =   0.0277778
        k(   62) = (   0.5773503  -0.0721688  -0.0721688), wk =   0.0277778
        k(   63) = (  -0.2165064  -0.2165064   0.8660254), wk =   0.0138889
        k(   64) = (  -0.2165064  -0.1443376   0.7938566), wk =   0.0555556
        k(   65) = (  -0.1443376  -0.1443376   0.7216878), wk =   0.0092593
        k(   66) = (   0.5773503  -0.0000000   0.0000000), wk =   0.0069444
        k(   67) = (   0.6495191  -0.0721688  -0.0000000), wk =   0.0277778
        k(   68) = (  -0.1443376  -0.1443376   0.8660254), wk =   0.0138889
        k(   69) = (  -0.1443376  -0.0721688   0.7938566), wk =   0.0277778
        k(   70) = (   0.7216878   0.0000000  -0.0000000), wk =   0.0069444
        k(   71) = (  -0.0721688  -0.0721688   0.8660254), wk =   0.0138889
        k(   72) = (  -0.8660254  -0.8660254   0.8660254), wk =   0.0011574

                       cryst. coord.
        k(    1) = (   0.0000000   0.0000000   0.0000000), wk =   0.0011574
        k(    2) = (   0.0000000   0.0000000   0.0833333), wk =   0.0138889
        k(    3) = (   0.0000000   0.0000000   0.1666667), wk =   0.0138889
        k(    4) = (   0.0000000   0.0000000   0.2500000), wk =   0.0138889
        k(    5) = (   0.0000000   0.0000000   0.3333333), wk =   0.0138889
        k(    6) = (   0.0000000   0.0000000   0.4166667), wk =   0.0138889
        k(    7) = (   0.0000000   0.0000000  -0.5000000), wk =   0.0069444
        k(    8) = (   0.0000000   0.0833333   0.0833333), wk =   0.0277778
        k(    9) = (   0.0000000   0.0833333   0.1666667), wk =   0.0555556
        k(   10) = (   0.0000000   0.0833333   0.2500000), wk =   0.0555556
        k(   11) = (   0.0000000   0.0833333   0.3333333), wk =   0.0555556
        k(   12) = (   0.0000000   0.0833333   0.4166667), wk =   0.0555556
        k(   13) = (   0.0000000   0.1666667   0.1666667), wk =   0.0277778
        k(   14) = (  -0.0000000   0.1666667   0.2500000), wk =   0.0555556
        k(   15) = (   0.0000000   0.1666667   0.3333333), wk =   0.0555556
        k(   16) = (   0.0000000   0.1666667   0.4166667), wk =   0.0277778
        k(   17) = (   0.0000000   0.2500000   0.2500000), wk =   0.0277778
        k(   18) = (  -0.0000000   0.2500000   0.3333333), wk =   0.0555556
        k(   19) = (   0.0000000   0.3333333   0.3333333), wk =   0.0092593
        k(   20) = (   0.0833333   0.0833333   0.0833333), wk =   0.0092593
        k(   21) = (   0.0833333   0.0833333   0.1666667), wk =   0.0277778
        k(   22) = (   0.0833333   0.0833333   0.2500000), wk =   0.0277778
        k(   23) = (   0.0833333   0.0833333   0.3333333), wk =   0.0277778
        k(   24) = (   0.0833333   0.0833333   0.4166667), wk =   0.0138889
        k(   25) = (   0.0833333   0.0833333  -0.0833333), wk =   0.0069444
        k(   26) = (   0.0833333   0.1666667   0.1666667), wk =   0.0277778
        k(   27) = (   0.0833333   0.1666667   0.2500000), wk =   0.0555556
        k(   28) = (   0.0833333   0.1666667   0.3333333), wk =   0.0555556
        k(   29) = (   0.0833333   0.1666667  -0.1666667), wk =   0.0277778
        k(   30) = (   0.0833333   0.2500000   0.2500000), wk =   0.0277778
        k(   31) = (   0.0833333   0.2500000   0.3333333), wk =   0.0277778
        k(   32) = (   0.0833333   0.2500000  -0.2500000), wk =   0.0277778
        k(   33) = (   0.0833333   0.2500000  -0.1666667), wk =   0.0277778
        k(   34) = (   0.0833333   0.3333333  -0.3333333), wk =   0.0277778
        k(   35) = (   0.0833333   0.3333333  -0.2500000), wk =   0.0555556
        k(   36) = (   0.0833333   0.4166667  -0.4166667), wk =   0.0277778
        k(   37) = (   0.0833333   0.4166667  -0.3333333), wk =   0.0555556
        k(   38) = (   0.0833333   0.4166667  -0.2500000), wk =   0.0277778
        k(   39) = (   0.0833333  -0.5000000  -0.5000000), wk =   0.0138889
        k(   40) = (   0.0833333  -0.5000000  -0.4166667), wk =   0.0555556
        k(   41) = (   0.0833333  -0.5000000  -0.3333333), wk =   0.0555556
        k(   42) = (   0.0833333  -0.4166667  -0.4166667), wk =   0.0277778
        k(   43) = (   0.0833333  -0.4166667  -0.3333333), wk =   0.0277778
        k(   44) = (   0.1666667   0.1666667   0.1666667), wk =   0.0092593
        k(   45) = (   0.1666667   0.1666667   0.2500000), wk =   0.0277778
        k(   46) = (   0.1666667   0.1666667   0.3333333), wk =   0.0138889
        k(   47) = (   0.1666667   0.1666667  -0.1666667), wk =   0.0069444
        k(   48) = (   0.1666667   0.2500000   0.2500000), wk =   0.0277778
        k(   49) = (   0.1666667   0.2500000  -0.2500000), wk =   0.0277778
        k(   50) = (   0.1666667   0.3333333  -0.3333333), wk =   0.0277778
        k(   51) = (   0.1666667   0.3333333  -0.2500000), wk =   0.0277778
        k(   52) = (   0.1666667   0.4166667  -0.4166667), wk =   0.0277778
        k(   53) = (   0.1666667   0.4166667  -0.3333333), wk =   0.0555556
        k(   54) = (   0.1666667  -0.5000000  -0.5000000), wk =   0.0138889
        k(   55) = (   0.1666667  -0.5000000  -0.4166667), wk =   0.0555556
        k(   56) = (   0.1666667  -0.5000000  -0.3333333), wk =   0.0277778
        k(   57) = (   0.1666667  -0.4166667  -0.4166667), wk =   0.0277778
        k(   58) = (   0.2500000   0.2500000   0.2500000), wk =   0.0023148
        k(   59) = (   0.2500000   0.2500000  -0.2500000), wk =   0.0069444
        k(   60) = (   0.2500000   0.3333333  -0.3333333), wk =   0.0277778
        k(   61) = (   0.2500000   0.4166667  -0.4166667), wk =   0.0277778
        k(   62) = (   0.2500000   0.4166667  -0.3333333), wk =   0.0277778
        k(   63) = (   0.2500000  -0.5000000  -0.5000000), wk =   0.0138889
        k(   64) = (   0.2500000  -0.5000000  -0.4166667), wk =   0.0555556
        k(   65) = (   0.2500000  -0.4166667  -0.4166667), wk =   0.0092593
        k(   66) = (   0.3333333   0.3333333  -0.3333333), wk =   0.0069444
        k(   67) = (   0.3333333   0.4166667  -0.4166667), wk =   0.0277778
        k(   68) = (   0.3333333  -0.5000000  -0.5000000), wk =   0.0138889
        k(   69) = (   0.3333333  -0.5000000  -0.4166667), wk =   0.0277778
        k(   70) = (   0.4166667   0.4166667  -0.4166667), wk =   0.0069444
        k(   71) = (   0.4166667  -0.5000000  -0.5000000), wk =   0.0138889
        k(   72) = (  -0.5000000  -0.5000000  -0.5000000), wk =   0.0011574

     Dense  grid:     3103 G-vectors     FFT dimensions: (  20,  20,  20)

     Dynamical RAM for                 wfc:       0.04 MB

     Dynamical RAM for     wfc (w. buffer):       2.63 MB

     Dynamical RAM for           str. fact:       0.05 MB

     Dynamical RAM for           local pot:       0.00 MB

     Dynamical RAM for          nlocal pot:       0.05 MB

     Dynamical RAM for                qrad:       0.23 MB

     Dynamical RAM for          rho,v,vnew:       0.33 MB

     Dynamical RAM for               rhoin:       0.11 MB

     Dynamical RAM for            rho*nmix:       0.76 MB

     Dynamical RAM for           G-vectors:       0.20 MB

     Dynamical RAM for          h,s,v(r/c):       0.03 MB

     Dynamical RAM for          <psi|beta>:       0.00 MB

     Dynamical RAM for                 psi:       0.14 MB

     Dynamical RAM for                hpsi:       0.14 MB

     Dynamical RAM for                spsi:       0.14 MB

     Dynamical RAM for      wfcinit/wfcrot:       0.07 MB

     Dynamical RAM for           addusdens:       2.89 MB

     Estimated static dynamical RAM per process >       4.75 MB

     Estimated max dynamical RAM per process >       7.64 MB

     Initial potential from superposition of free atoms

     starting charge    2.99753, renormalised to    3.00000
     Starting wfc are    4 randomized atomic wfcs +    2 random wfc

     total cpu time spent up to now is        0.3 secs

     Self-consistent Calculation

     iteration #  1     ecut=    35.00 Ry     beta= 0.70
     Davidson diagonalization with overlap
     ethr =  1.00E-02,  avg # of iterations =  4.7

     Threshold (ethr) on eigenvalues was too large:
     Diagonalizing with lowered threshold

     Davidson diagonalization with overlap
     ethr =  1.91E-04,  avg # of iterations =  1.4

     total cpu time spent up to now is        1.5 secs

     total energy              =      -6.70007749 Ry
     Harris-Foulkes estimate   =      -6.70214564 Ry
     estimated scf accuracy    <       0.00573404 Ry

     iteration #  2     ecut=    35.00 Ry     beta= 0.70
     Davidson diagonalization with overlap
     ethr =  1.91E-04,  avg # of iterations =  1.0

     total cpu time spent up to now is        1.8 secs

     total energy              =      -6.70011632 Ry
     Harris-Foulkes estimate   =      -6.70022170 Ry
     estimated scf accuracy    <       0.00030598 Ry

     iteration #  3     ecut=    35.00 Ry     beta= 0.70
     Davidson diagonalization with overlap
     ethr =  1.02E-05,  avg # of iterations =  1.7

     total cpu time spent up to now is        2.3 secs

     End of self-consistent calculation

          k = 0.0000 0.0000 0.0000 (   381 PWs)   bands (ev):

    -3.2976  20.9697  20.9701  22.0556  22.0556  22.0556

     occupation numbers 
     1.0000   0.0000   0.0000   0.0000   0.0000   0.0000

          k = 0.0000 0.0722-0.0722 (   382 PWs)   bands (ev):

    -3.0992  18.7406  19.6870  20.2298  21.4104  22.5730

     occupation numbers 
     1.0000   0.0000   0.0000   0.0000   0.0000   0.0000

          k = 0.0000 0.1443-0.1443 (   388 PWs)   bands (ev):

    -2.5053  15.3767  18.2971  18.9040  20.2048  21.4118

     occupation numbers 
     1.0000   0.0000   0.0000   0.0000   0.0000   0.0000

          k = 0.0000 0.2165-0.2165 (   386 PWs)   bands (ev):

    -1.5201  12.0494  17.2035  17.6987  19.1065  20.4215

     occupation numbers 
     1.0000   0.0000   0.0000   0.0000   0.0000   0.0000

          k = 0.0000 0.2887-0.2887 (   388 PWs)   bands (ev):

    -0.1508   8.9640  16.4215  16.7935  18.2849  19.6533

     occupation numbers 
     1.0000   0.0000   0.0000   0.0000   0.0000   0.0000

          k = 0.0000 0.3608-0.3608 (   394 PWs)   bands (ev):

     1.5903   6.1825  15.9526  16.2392  17.7833  19.1661

     occupation numbers 
     1.0000   1.0000   0.0000   0.0000   0.0000   0.0000

          k = 0.0000-0.4330 0.4330 (   392 PWs)   bands (ev):

     3.4822   3.9425  15.7964  16.0531  17.6150  18.9994

     occupation numbers 
     1.0000   1.0000   0.0000   0.0000   0.0000   0.0000

          k = 0.0722 0.0722-0.1443 (   389 PWs)   bands (ev):

    -2.7030  17.1101  17.2274  19.0619  21.5853  21.9485

     occupation numbers 
     1.0000   0.0000   0.0000   0.0000   0.0000   0.0000

          k = 0.0722 0.1443-0.2165 (   390 PWs)   bands (ev):

    -1.9135  13.8073  15.8344  17.8378  20.6340  21.8884

     occupation numbers 
     1.0000   0.0000   0.0000   0.0000   0.0000   0.0000

          k = 0.0722 0.2165-0.2887 (   386 PWs)   bands (ev):

    -0.7362  10.6023  14.7989  16.8584  19.6704  21.5121

     occupation numbers 
     1.0000   0.0000   0.0000   0.0000   0.0000   0.0000

          k = 0.0722 0.2887-0.3608 (   393 PWs)   bands (ev):

     0.8197   7.6699  14.0992  16.1912  18.9969  21.0335

     occupation numbers 
     1.0000   0.8188   0.0000   0.0000   0.0000   0.0000

          k = 0.0722 0.3608-0.4330 (   396 PWs)   bands (ev):

     2.7326   5.0635  13.7469  15.8548  18.6535  20.7564

     occupation numbers 
     1.0000   1.0000   0.0000   0.0000   0.0000   0.0000

          k = 0.1443 0.1443-0.2887 (   389 PWs)   bands (ev):

    -0.9318  12.3482  12.8141  16.7830  21.2988  21.4681

     occupation numbers 
     1.0000   0.0000   0.0000   0.0000   0.0000   0.0000

          k = 0.1443 0.2165-0.3608 (   388 PWs)   bands (ev):

     0.4324   9.4891  11.7213  15.9685  20.6247  22.3814

     occupation numbers 
     1.0000   0.0000   0.0000   0.0000   0.0000   0.0000

          k = 0.1443 0.2887-0.4330 (   395 PWs)   bands (ev):

     2.1663   6.7363  11.1678  15.4660  20.1394  23.2239

     occupation numbers 
     1.0000   1.0000   0.0000   0.0000   0.0000   0.0000

          k = 0.1443 0.3608-0.5052 (   395 PWs)   bands (ev):

     4.0413   4.5180  10.9843  15.2968  19.9736  23.4491

     occupation numbers 
     1.0000   1.0000   0.0000   0.0000   0.0000   0.0000

          k = 0.2165 0.2165-0.4330 (   390 PWs)   bands (ev):

     1.9756   8.4955   9.0899  15.3179  21.8101  22.0777

     occupation numbers 
     1.0000   0.0000   0.0000   0.0000   0.0000   0.0000

          k = 0.2165 0.2887-0.5052 (   393 PWs)   bands (ev):

     3.8688   6.1679   8.4719  14.9828  21.6424  23.5374

     occupation numbers 
     1.0000   1.0000   0.0000   0.0000   0.0000   0.0000

          k = 0.2887 0.2887-0.5774 (   399 PWs)   bands (ev):

     5.7159   5.7159   6.5514  14.8171  23.4049  23.5345

     occupation numbers 
     1.0000   1.0000   1.0000   0.0000   0.0000   0.0000

          k = 0.1443 0.1443-0.1443 (   396 PWs)   bands (ev):

    -2.1106  15.6074  15.6074  15.9848  23.4155  23.4156

     occupation numbers 
     1.0000   0.0000   0.0000   0.0000   0.0000   0.0000

          k = 0.1443 0.2165-0.2165 (   392 PWs)   bands (ev):

    -1.1277  12.3867  14.3630  14.7658  22.8293  23.1855

     occupation numbers 
     1.0000   0.0000   0.0000   0.0000   0.0000   0.0000

          k = 0.1443 0.2887-0.2887 (   390 PWs)   bands (ev):

     0.2382   9.3226  13.4566  13.9260  22.1679  22.5645

     occupation numbers 
     1.0000   0.0000   0.0000   0.0000   0.0000   0.0000

          k = 0.1443 0.3608-0.3608 (   394 PWs)   bands (ev):

     1.9746   6.5538  12.9084  13.4161  21.7150  22.1541

     occupation numbers 
     1.0000   1.0000   0.0000   0.0000   0.0000   0.0000

          k = 0.1443 0.4330-0.4330 (   394 PWs)   bands (ev):

     3.8550   4.3276  12.7251  13.2452  21.5580  22.0120

     occupation numbers 
     1.0000   1.0000   0.0000   0.0000   0.0000   0.0000

          k = 0.1443-0.0000 0.0000 (   385 PWs)   bands (ev):

    -2.9010  18.2006  18.2006  20.3211  20.6244  21.3546

     occupation numbers 
     1.0000   0.0000   0.0000   0.0000   0.0000   0.0000

          k = 0.2165 0.2165-0.2887 (   391 PWs)   bands (ev):

     0.0439  11.0787  11.5758  13.5902  23.8890  24.0541

     occupation numbers 
     1.0000   0.0000   0.0000   0.0000   0.0000   0.0000

          k = 0.2165 0.2887-0.3608 (   391 PWs)   bands (ev):

     1.5916   8.3851  10.6408  12.8848  23.5406  24.6904

     occupation numbers 
     1.0000   0.0000   0.0000   0.0000   0.0000   0.0000

          k = 0.2165 0.3608-0.4330 (   394 PWs)   bands (ev):

     3.4922   5.8107  10.2639  12.5303  23.2668  24.8476

     occupation numbers 
     1.0000   1.0000   0.0000   0.0000   0.0000   0.0000

          k = 0.2165-0.0722 0.0000 (   390 PWs)   bands (ev):

    -2.3078  15.4643  16.7143  19.0120  20.1179  20.7406

     occupation numbers 
     1.0000   0.0000   0.0000   0.0000   0.0000   0.0000

          k = 0.2887 0.2887-0.4330 (   396 PWs)   bands (ev):

     3.3091   7.5726   8.1727  12.3477  24.9170  25.0136

     occupation numbers 
     1.0000   1.0792   0.0000   0.0000   0.0000   0.0000

          k = 0.2887 0.3608-0.5052 (   391 PWs)   bands (ev):

     5.1586   5.6210   7.7492  12.1686  24.8840  26.2478

     occupation numbers 
     1.0000   1.0000   0.3961   0.0000   0.0000   0.0000

          k = 0.2887-0.1443 0.0000 (   389 PWs)   bands (ev):

    -1.3238  12.2083  15.5325  17.8256  19.6969  20.5398

     occupation numbers 
     1.0000   0.0000   0.0000   0.0000   0.0000   0.0000

          k = 0.2887-0.0722-0.0722 (   389 PWs)   bands (ev):

    -1.5201  13.9199  14.2280  18.7340  18.8854  20.4822

     occupation numbers 
     1.0000   0.0000   0.0000   0.0000   0.0000   0.0000

          k = 0.3608-0.2165 0.0000 (   393 PWs)   bands (ev):

     0.0438   9.1413  14.6795  16.9559  18.8791  20.7113

     occupation numbers 
     1.0000   0.0000   0.0000   0.0000   0.0000   0.0000

          k = 0.3608-0.1443-0.0722 (   389 PWs)   bands (ev):

    -0.3457  10.9317  13.0427  17.7992  19.1454  20.1609

     occupation numbers 
     1.0000   0.0000   0.0000   0.0000   0.0000   0.0000

          k = 0.4330-0.2887-0.0000 (   396 PWs)   bands (ev):

     1.7826   6.3678  14.1647  16.4260  18.3757  20.5448

     occupation numbers 
     1.0000   1.0000   0.0000   0.0000   0.0000   0.0000

          k = 0.4330-0.2165-0.0722 (   396 PWs)   bands (ev):

     1.2061   8.0304  12.3266  17.1174  18.7353  21.0812

     occupation numbers 
     1.0000   0.0002   0.0000   0.0000   0.0000   0.0000

          k = 0.4330-0.1443-0.1443 (   391 PWs)   bands (ev):

     1.0132   9.7779  10.3259  18.1828  18.7900  19.7597

     occupation numbers 
     1.0000   0.0000   0.0000   0.0000   0.0000   0.0000

          k =-0.3608-0.3608 0.8660 (   394 PWs)   bands (ev):

     3.6685   4.1352  13.9926  16.2480  18.2065  20.4490

     occupation numbers 
     1.0000   1.0000   0.0000   0.0000   0.0000   0.0000

          k =-0.3608-0.2887 0.7939 (   397 PWs)   bands (ev):

     3.1129   5.4382  11.9683  16.7734  18.4338  22.0563

     occupation numbers 
     1.0000   1.0000   0.0000   0.0000   0.0000   0.0000

          k =-0.3608-0.2165 0.7217 (   399 PWs)   bands (ev):

     2.7394   7.2728   9.5471  17.7758  18.7566  20.7065

     occupation numbers 
     1.0000   1.0001   0.0000   0.0000   0.0000   0.0000

          k =-0.2887-0.2887 0.7217 (   396 PWs)   bands (ev):

     4.5996   5.0831   9.3526  17.6202  18.6326  22.4367

     occupation numbers 
     1.0000   1.0000   0.0000   0.0000   0.0000   0.0000

          k =-0.2887-0.2165 0.6495 (   394 PWs)   bands (ev):

     4.6135   6.6424   7.2662  17.6317  20.0299  20.6014

     occupation numbers 
     1.0000   1.0000   1.0001   0.0000   0.0000   0.0000

          k = 0.2887 0.2887-0.2887 (   390 PWs)   bands (ev):

     1.3992  10.1618  10.1618  11.0879  26.1333  26.1333

     occupation numbers 
     1.0000   0.0000   0.0000   0.0000   0.0000   0.0000

          k = 0.2887 0.3608-0.3608 (   394 PWs)   bands (ev):

     3.1203   7.6325   9.6091  10.3358  26.4090  26.4173

     occupation numbers 
     1.0000   0.9715   0.0000   0.0000   0.0000   0.0000

          k = 0.2887 0.4330-0.4330 (   390 PWs)   bands (ev):

     4.9727   5.4570   9.4246  10.1354  26.3879  26.4026

     occupation numbers 
     1.0000   1.0000   0.0000   0.0000   0.0000   0.0000

          k = 0.2887 0.0000 0.0000 (   390 PWs)   bands (ev):

    -1.7167  15.1812  15.1812  17.1313  17.8529  22.5077

     occupation numbers 
     1.0000   0.0000   0.0000   0.0000   0.0000   0.0000

          k = 0.3608 0.3608-0.4330 (   391 PWs)   bands (ev):

     4.9881   7.0171   7.5855   9.6913  27.7430  27.9531

     occupation numbers 
     1.0000   1.0000   1.0695   0.0000   0.0000   0.0000

          k = 0.3608-0.0722 0.0000 (   392 PWs)   bands (ev):

    -0.7362  12.6405  13.9759  16.1747  17.6206  22.1955

     occupation numbers 
     1.0000   0.0000   0.0000   0.0000   0.0000   0.0000

          k = 0.4330-0.1443 0.0000 (   397 PWs)   bands (ev):

     0.6263   9.6636  13.1108  15.3441  18.6055  21.4721

     occupation numbers 
     1.0000   0.0000   0.0000   0.0000   0.0000   0.0000

          k = 0.4330-0.0722-0.0722 (   397 PWs)   bands (ev):

     0.4325  11.3843  11.7777  16.1157  16.8468  22.0826

     occupation numbers 
     1.0000   0.0000   0.0000   0.0000   0.0000   0.0000

          k = 0.5052-0.2165-0.0000 (   400 PWs)   bands (ev):

     2.3577   6.9199  12.5904  14.8097  19.9733  20.9929

     occupation numbers 
     1.0000   1.0000   0.0000   0.0000   0.0000   0.0000

          k = 0.5052-0.1443-0.0722 (   400 PWs)   bands (ev):

     1.9759   8.7332  10.8979  15.7189  17.7841  21.5029

     occupation numbers 
     1.0000   0.0000   0.0000   0.0000   0.0000   0.0000

          k =-0.2887-0.2887 0.8660 (   398 PWs)   bands (ev):

     4.2272   4.7090  12.4167  14.6285  20.8302  21.1533

     occupation numbers 
     1.0000   1.0000   0.0000   0.0000   0.0000   0.0000

          k =-0.2887-0.2165 0.7939 (   396 PWs)   bands (ev):

     3.8699   6.1800  10.5299  15.3878  19.3471  20.8890

     occupation numbers 
     1.0000   1.0000   0.0000   0.0000   0.0000   0.0000

          k =-0.2887-0.1443 0.7217 (   402 PWs)   bands (ev):

     3.6878   7.9322   8.5052  16.9455  17.4735  20.6890

     occupation numbers 
     1.0000   0.0076   0.0000   0.0000   0.0000   0.0000

          k =-0.2165-0.2165 0.7217 (   398 PWs)   bands (ev):

     5.5281   5.9912   8.0942  17.0020  18.9376  19.0730

     occupation numbers 
     1.0000   1.0000   0.0000   0.0000   0.0000   0.0000

          k = 0.4330 0.4330-0.4330 (   420 PWs)   bands (ev):

     6.8317   6.8317   6.8317   8.0761  29.4396  30.2197

     occupation numbers 
     1.0000   1.0000   1.0000   0.0000   0.0000   0.0000

          k = 0.4330 0.0000 0.0000 (   402 PWs)   bands (ev):

     0.2384  12.7590  12.7590  14.3819  15.5994  24.4180

     occupation numbers 
     1.0000   0.0000   0.0000   0.0000   0.0000   0.0000

          k = 0.5052-0.0722 0.0000 (   400 PWs)   bands (ev):

     1.5920  10.4780  11.8879  13.9099  15.5905  23.2103

     occupation numbers 
     1.0000   0.0000   0.0000   0.0000   0.0000   0.0000

          k = 0.5774-0.1443-0.0000 (   408 PWs)   bands (ev):

     3.3106   7.8231  11.3645  13.4662  16.9279  20.8945

     occupation numbers 
     1.0000   0.1198   0.0000   0.0000   0.0000   0.0000

          k = 0.5774-0.0722-0.0722 (   404 PWs)   bands (ev):

     3.1219   9.5582   9.9907  14.2309  15.1448  20.7537

     occupation numbers 
     1.0000   0.0000   0.0000   0.0000   0.0000   0.0000

          k =-0.2165-0.2165 0.8660 (   398 PWs)   bands (ev):

     5.1564   5.6502  11.1900  13.2946  18.5711  18.9481

     occupation numbers 
     1.0000   1.0000   0.0000   0.0000   0.0000   0.0000

          k =-0.2165-0.1443 0.7939 (   403 PWs)   bands (ev):

     4.9954   7.2645   9.4527  14.2371  16.3820  18.4762

     occupation numbers 
     1.0000   1.0001   0.0000   0.0000   0.0000   0.0000

          k =-0.1443-0.1443 0.7217 (   406 PWs)   bands (ev):

     6.8218   6.8218   7.6119  15.8303  15.8303  16.8821

     occupation numbers 
     1.0000   1.0000   1.0276   0.0000   0.0000   0.0000

          k = 0.5774-0.0000 0.0000 (   402 PWs)   bands (ev):

     2.9322  11.0134  11.0134  12.4114  13.8228  20.6192

     occupation numbers 
     1.0000   0.0000   0.0000   0.0000   0.0000   0.0000

          k = 0.6495-0.0722-0.0000 (   398 PWs)   bands (ev):

     4.6311   9.0234  10.4885  12.3653  14.1288  18.1393

     occupation numbers 
     1.0000   0.0000   0.0000   0.0000   0.0000   0.0000

          k =-0.1443-0.1443 0.8660 (   394 PWs)   bands (ev):

     6.4512   6.9270  10.3134  12.2805  15.4578  16.3246

     occupation numbers 
     1.0000   1.0000   0.0000   0.0000   0.0000   0.0000

          k =-0.1443-0.0722 0.7939 (   394 PWs)   bands (ev):

     6.4692   8.4582   8.9192  13.0983  13.9018  15.8784

     occupation numbers 
     1.0000   0.0000   0.0000   0.0000   0.0000   0.0000

          k = 0.7217 0.0000-0.0000 (   394 PWs)   bands (ev):

     6.2983   9.9627   9.9627  11.2276  12.5895  15.6501

     occupation numbers 
     1.0000   0.0000   0.0000   0.0000   0.0000   0.0000

          k =-0.0722-0.0722 0.8660 (   390 PWs)   bands (ev):

     8.0909   8.4505   9.7874  11.5030  12.7206  14.1024

     occupation numbers 
     0.0000   0.0000   0.0000   0.0000   0.0000   0.0000

          k =-0.8660-0.8660 0.8660 (   370 PWs)   bands (ev):

     9.6120   9.6120   9.6120  10.8328  10.8328  13.1131

     occupation numbers 
     0.0000   0.0000   0.0000   0.0000   0.0000   0.0000

     the Fermi energy is     7.7483 ev

!    total energy              =      -6.70013081 Ry
     Harris-Foulkes estimate   =      -6.70013078 Ry
     estimated scf accuracy    <       0.00000079 Ry

     The total energy is the sum of the following terms:

     one-electron contribution =       2.96278294 Ry
     hartree contribution      =       0.00557656 Ry
     xc contribution           =      -4.28666346 Ry
     ewald contribution        =      -5.38183349 Ry
     smearing contrib. (-TS)   =       0.00000665 Ry

     convergence has been achieved in   3 iterations
 
     init_run     :      4.60s CPU      0.29s WALL (       1 calls)
     electrons    :     28.44s CPU      1.94s WALL (       1 calls)

     Called by init_run:
     wfcinit      :      4.40s CPU      0.19s WALL (       1 calls)
     wfcinit:atom :      0.12s CPU      0.01s WALL (      72 calls)
     wfcinit:wfcr :      4.00s CPU      0.17s WALL (      72 calls)
     potinit      :      0.01s CPU      0.00s WALL (       1 calls)

     Called by electrons:
     c_bands      :     26.12s CPU      1.70s WALL (       4 calls)
     sum_band     :      2.10s CPU      0.23s WALL (       4 calls)
     v_of_rho     :      0.05s CPU      0.01s WALL (       4 calls)
     v_h          :      0.00s CPU      0.00s WALL (       4 calls)
     v_xc         :      0.05s CPU      0.01s WALL (       4 calls)
     newd         :      0.16s CPU      0.01s WALL (       4 calls)
     mix_rho      :      0.00s CPU      0.00s WALL (       4 calls)

     Called by c_bands:
     init_us_2    :      0.70s CPU      0.05s WALL (     648 calls)
     cegterg      :     23.73s CPU      1.53s WALL (     288 calls)

     Called by sum_band:
     sum_band:bec :      0.06s CPU      0.00s WALL (     288 calls)
     addusdens    :      0.11s CPU      0.01s WALL (       4 calls)

     Called by *egterg:
     h_psi        :     23.26s CPU      1.43s WALL (     999 calls)
     s_psi        :      0.25s CPU      0.02s WALL (     999 calls)
     g_psi        :      0.12s CPU      0.01s WALL (     639 calls)
     cdiaghg      :      1.40s CPU      0.09s WALL (     855 calls)
     cegterg:over :      0.34s CPU      0.02s WALL (     639 calls)
     cegterg:upda :      0.28s CPU      0.02s WALL (     639 calls)
     cegterg:last :      0.20s CPU      0.01s WALL (     326 calls)

     Called by h_psi:
     h_psi:pot    :     22.97s CPU      1.41s WALL (     999 calls)
     h_psi:calbec :      0.43s CPU      0.03s WALL (     999 calls)
     vloc_psi     :     21.78s CPU      1.34s WALL (     999 calls)
     add_vuspsi   :      0.33s CPU      0.02s WALL (     999 calls)

     General routines
     calbec       :      0.26s CPU      0.02s WALL (    1287 calls)
     fft          :      0.03s CPU      0.02s WALL (      54 calls)
     fftw         :     19.45s CPU      1.29s WALL (   11576 calls)
 
     Parallel routines
 
     PWSCF        :    33.19s CPU         2.29s WALL

 
   This run was terminated on:  19: 9: 7  30Jan2019            

=------------------------------------------------------------------------------=
   JOB DONE.
=------------------------------------------------------------------------------=
